                               Psi4 1.3.2 release

  ==> Input File <==

--------------------------------------------------------------------------
#psi4
#
memory 32 gb

molecule  {
0 1
  O       -0.2992330     0.0680890    -1.4276520
  O        1.1877390     1.7321380     1.3773370
  O        0.9070540     2.3739560    -0.7854760
  O        2.2997900    -2.4217320    -0.0198770
  O       -3.4576290     0.0760600    -0.5562400
  O        2.6367540    -0.2338110    -0.4932570
  O       -2.4353810    -1.6060190     0.5619510
  C       -0.1069590     0.3116290    -0.0442930
  C        0.5596730    -0.9208470     0.5522810
  C       -1.4701600     0.6204770     0.6141540
  C        0.8114081     1.5895661     0.2998486
  C        1.9236380    -1.1208730    -0.0515330
  C       -2.4761190    -0.4337210     0.2256320
  H       -0.0681530    -1.7945710     0.3697710
  H        0.6733550    -0.8157800     1.6370670
  H       -1.8203350     1.5970450     0.2687060
  H       -1.3720190     0.6392280     1.7041070
  H       -0.0402350     0.8946720    -1.8856460
  H        1.6977260     2.5694770     1.3788080
  H        3.2012140    -2.4469230    -0.4041650
  H       -4.0405490    -0.6812350    -0.7753220
units angstrom
no_reorient  #important for SAPT in psi4, default
symmetry c1  #important for SAPT in psi4, default
}

set PROPERTIES_ORIGIN ["COM"]
properties('MP2/aug-cc-pvtz', properties = ['dipole'])
--------------------------------------------------------------------------

    Molecular point group: c1
  Charge       = 0
  Multiplicity = 1
  Basis Set: AUG-CC-PVTZ
    Blend: AUG-CC-PVTZ
  Basis Set: (AUG-CC-PVTZ AUX)
    Blend: AUG-CC-PVTZ-JKFIT

    Orbital Energies [Eh]
    ---------------------

    Doubly Occupied:

       1A    -20.695176     2A    -20.624160     3A    -20.623714
       4A    -20.572437     5A    -20.560147     6A    -20.559451
       7A    -20.534581     8A    -11.414314     9A    -11.402772
      10A    -11.401112    11A    -11.339329    12A    -11.268864
      13A    -11.258606    14A     -1.610826    15A     -1.469987
      16A     -1.469184    17A     -1.385300    18A     -1.366194
      19A     -1.365376    20A     -1.300858    21A     -1.111517
      22A     -1.035945    23A     -0.972289    24A     -0.888303
      25A     -0.828869    26A     -0.802056    27A     -0.790464
      28A     -0.744080    29A     -0.731458    30A     -0.716958
      31A     -0.714434    32A     -0.695653    33A     -0.680726
      34A     -0.665420    35A     -0.644594    36A     -0.630656
      37A     -0.614703    38A     -0.601236    39A     -0.593402
      40A     -0.577314    41A     -0.560623    42A     -0.555874
      43A     -0.509389    44A     -0.492520    45A     -0.490684
      46A     -0.473492    47A     -0.470250    48A     -0.465415
      49A     -0.447632    50A     -0.429289

  @DF-RHF Final Energy:  -756.19108011966148

   => Energetics <=

    Nuclear Repulsion Energy =            874.1752128787784386
    One-Electron Energy =               -2776.4173228278100396
    Two-Electron Energy =                1146.0510298293700089
    Total Energy =                       -756.1910801196615921
  Basis Set: (AUG-CC-PVTZ AUX)
    Blend: AUG-CC-PVTZ-RI
    Molecular point group: c1

    Geometry (in Angstrom), charge = 0, multiplicity = 1:

       Center              X                  Y                   Z               Mass
    ------------   -----------------  -----------------  -----------------  -----------------
         O           -0.312440369812     0.066342674093    -1.427546563287    15.994914619570
         O            1.174531630188     1.730391674093     1.377442436713    15.994914619570
         O            0.893846630188     2.372209674093    -0.785370563287    15.994914619570
         O            2.286582630188    -2.423478325907    -0.019771563287    15.994914619570
         O           -3.470836369812     0.074313674093    -0.556134563287    15.994914619570
         O            2.623546630188    -0.235557325907    -0.493151563287    15.994914619570
         O           -2.448588369812    -1.607765325907     0.562056436713    15.994914619570
         C           -0.120166369812     0.309882674093    -0.044187563287    12.000000000000
         C            0.546465630188    -0.922593325907     0.552386436713    12.000000000000
         C           -1.483367369812     0.618730674093     0.614259436713    12.000000000000
         C            0.798200730188     1.587819774093     0.299954036713    12.000000000000
         C            1.910430630188    -1.122619325907    -0.051427563287    12.000000000000
         C           -2.489326369812    -0.435467325907     0.225737436713    12.000000000000
         H           -0.081360369812    -1.796317325907     0.369876436713     1.007825032230
         H            0.660147630188    -0.817526325907     1.637172436713     1.007825032230
         H           -1.833542369812     1.595298674093     0.268811436713     1.007825032230
         H           -1.385226369812     0.637481674093     1.704212436713     1.007825032230
         H           -0.053442369812     0.892925674093    -1.885540563287     1.007825032230
         H            1.684518630188     2.567730674093     1.378913436713     1.007825032230
         H            3.188006630188    -2.448669325907    -0.404059563287     1.007825032230
         H           -4.053756369812    -0.682981325907    -0.775216563287     1.007825032230

  Basis Set: AUG-CC-PVTZ
    Blend: AUG-CC-PVTZ
  Basis Set: (AUG-CC-PVTZ AUX)
    Blend: AUG-CC-PVTZ-JKFIT
	 Reference Energy          =    -756.1910801196614784 [Eh]
	 Singles Energy            =      -0.0000000000000000 [Eh]
	 Same-Spin Energy          =      -0.7321030833641693 [Eh]
	 Opposite-Spin Energy      =      -2.1627868590921926 [Eh]
	 Correlation Energy        =      -2.8948899424563619 [Eh]
	 Total Energy              =    -759.0859700621178945 [Eh]

	 ================> DF-SCS-MP2 Energies <==================
	-----------------------------------------------------------
	 SCS Same-Spin Scale       =       0.3333333333333333 [-]
	 SCS Opposite-Spin Scale   =       1.2000000000000000 [-]
	 SCS Same-Spin Energy      =      -0.2440343611213898 [Eh]
	 SCS Opposite-Spin Energy  =      -2.5953442309106309 [Eh]
	 SCS Correlation Energy    =      -2.8393785920320207 [Eh]
	 SCS Total Energy          =    -759.0304587116935409 [Eh]
	-----------------------------------------------------------

  Dipole Moment: [D]
     X:     0.3137      Y:     0.8117      Z:     3.2356     Total:     3.3506

*** Psi4 exiting successfully. Buy a developer a beer!
