                               Psi4 1.3.2 release

  ==> Input File <==

--------------------------------------------------------------------------
#psi4
#
memory 32 gb

molecule  {
0 1
  O       -0.2992330     0.0680890    -1.4276520
  O        1.1877390     1.7321380     1.3773370
  O        0.9070540     2.3739560    -0.7854760
  O        2.2997900    -2.4217320    -0.0198770
  O       -3.4576290     0.0760600    -0.5562400
  O        2.6367540    -0.2338110    -0.4932570
  O       -2.4353810    -1.6060190     0.5619510
  C       -0.1069590     0.3116290    -0.0442930
  C        0.5596730    -0.9208470     0.5522810
  C       -1.4701600     0.6204770     0.6141540
  C        0.7459700     1.5647750     0.1124900
  C        1.9236380    -1.1208730    -0.0515330
  C       -2.4761190    -0.4337210     0.2256320
  H       -0.0681530    -1.7945710     0.3697710
  H        0.6733550    -0.8157800     1.6370670
  H       -1.8203350     1.5970450     0.2687060
  H       -1.3720190     0.6392280     1.7041070
  H        0.0126306     1.0633907    -1.9791298
  H        1.6977260     2.5694770     1.3788080
  H        3.2012140    -2.4469230    -0.4041650
  H       -4.0405490    -0.6812350    -0.7753220
units angstrom
no_reorient  #important for SAPT in psi4, default
symmetry c1  #important for SAPT in psi4, default
}

set PROPERTIES_ORIGIN ["COM"]
properties('MP2/aug-cc-pvtz', properties = ['dipole'])
--------------------------------------------------------------------------

    Molecular point group: c1
  Charge       = 0
  Multiplicity = 1
  Basis Set: AUG-CC-PVTZ
    Blend: AUG-CC-PVTZ
  Basis Set: (AUG-CC-PVTZ AUX)
    Blend: AUG-CC-PVTZ-JKFIT

    Orbital Energies [Eh]
    ---------------------

    Doubly Occupied:

       1A    -20.639553     2A    -20.625264     3A    -20.624006
       4A    -20.582106     5A    -20.575093     6A    -20.560883
       7A    -20.559875     8A    -11.412754     9A    -11.404638
      10A    -11.401258    11A    -11.337186    12A    -11.271364
      13A    -11.260410    14A     -1.486781    15A     -1.470741
      16A     -1.469192    17A     -1.388470    18A     -1.367891
      19A     -1.366995    20A     -1.349928    21A     -1.107706
      22A     -1.037053    23A     -0.950845    24A     -0.849447
      25A     -0.828388    26A     -0.787242    27A     -0.746284
      28A     -0.729252    29A     -0.716472    30A     -0.714883
      31A     -0.701235    32A     -0.687542    33A     -0.666622
      34A     -0.653495    35A     -0.637870    36A     -0.632322
      37A     -0.620480    38A     -0.601299    39A     -0.592577
      40A     -0.578376    41A     -0.557713    42A     -0.554551
      43A     -0.524748    44A     -0.507131    45A     -0.492486
      46A     -0.489579    47A     -0.486979    48A     -0.467207
      49A     -0.462939    50A     -0.451393

  @DF-RHF Final Energy:  -756.22376392215745

   => Energetics <=

    Nuclear Repulsion Energy =            873.5381006744160004
    One-Electron Energy =               -2775.5467224670046562
    Two-Electron Energy =                1145.7848578704313240
    Total Energy =                       -756.2237639221573318
  Basis Set: (AUG-CC-PVTZ AUX)
    Blend: AUG-CC-PVTZ-RI
    Molecular point group: c1

    Geometry (in Angstrom), charge = 0, multiplicity = 1:

       Center              X                  Y                   Z               Mass
    ------------   -----------------  -----------------  -----------------  -----------------
         O           -0.308628520878     0.067006405074    -1.415347661663    15.994914619570
         O            1.178343479122     1.731055405074     1.389641338337    15.994914619570
         O            0.897658479122     2.372873405074    -0.773171661663    15.994914619570
         O            2.290394479122    -2.422814594926    -0.007572661663    15.994914619570
         O           -3.467024520878     0.074977405074    -0.543935661663    15.994914619570
         O            2.627358479122    -0.234893594926    -0.480952661663    15.994914619570
         O           -2.444776520878    -1.607101594926     0.574255338337    15.994914619570
         C           -0.116354520878     0.310546405074    -0.031988661663    12.000000000000
         C            0.550277479122    -0.921929594926     0.564585338337    12.000000000000
         C           -1.479555520878     0.619394405074     0.626458338337    12.000000000000
         C            0.736574479122     1.563692405074     0.124794338337    12.000000000000
         C            1.914242479122    -1.121955594926    -0.039228661663    12.000000000000
         C           -2.485514520878    -0.434803594926     0.237936338337    12.000000000000
         H           -0.077548520878    -1.795653594926     0.382075338337     1.007825032230
         H            0.663959479122    -0.816862594926     1.649371338337     1.007825032230
         H           -1.829730520878     1.595962405074     0.281010338337     1.007825032230
         H           -1.381414520878     0.638145405074     1.716411338337     1.007825032230
         H            0.003235079122     1.062308105074    -1.966825461663     1.007825032230
         H            1.688330479122     2.568394405074     1.391112338337     1.007825032230
         H            3.191818479122    -2.448005594926    -0.391860661663     1.007825032230
         H           -4.049944520878    -0.682317594926    -0.763017661663     1.007825032230

  Basis Set: AUG-CC-PVTZ
    Blend: AUG-CC-PVTZ
  Basis Set: (AUG-CC-PVTZ AUX)
    Blend: AUG-CC-PVTZ-JKFIT
	 Reference Energy          =    -756.2237639221574454 [Eh]
	 Singles Energy            =      -0.0000000000000000 [Eh]
	 Same-Spin Energy          =      -0.7335154927437263 [Eh]
	 Opposite-Spin Energy      =      -2.1681947898260749 [Eh]
	 Correlation Energy        =      -2.9017102825698013 [Eh]
	 Total Energy              =    -759.1254742047271975 [Eh]

	 ================> DF-SCS-MP2 Energies <==================
	-----------------------------------------------------------
	 SCS Same-Spin Scale       =       0.3333333333333333 [-]
	 SCS Opposite-Spin Scale   =       1.2000000000000000 [-]
	 SCS Same-Spin Energy      =      -0.2445051642479087 [Eh]
	 SCS Opposite-Spin Energy  =      -2.6018337477912898 [Eh]
	 SCS Correlation Energy    =      -2.8463389120391986 [Eh]
	 SCS Total Energy          =    -759.0701028341966321 [Eh]
	-----------------------------------------------------------

  Dipole Moment: [D]
     X:    -0.0317      Y:     1.0144      Z:     1.7806     Total:     2.0495

*** Psi4 exiting successfully. Buy a developer a beer!
