                               Psi4 1.3.2 release

  ==> Input File <==

--------------------------------------------------------------------------
#psi4
#
memory 32 gb

molecule  {
0 1
  O       -0.2992330     0.0680890    -1.4276520
  O        1.1987574     1.7518686     1.3706584
  O        0.9070540     2.3739560    -0.7854760
  O        2.2997900    -2.4217320    -0.0198770
  O       -3.4576290     0.0760600    -0.5562400
  O        2.6367540    -0.2338110    -0.4932570
  O       -2.4353810    -1.6060190     0.5619510
  C       -0.1069590     0.3116290    -0.0442930
  C        0.5596730    -0.9208470     0.5522810
  C       -1.4701600     0.6204770     0.6141540
  C        0.7459700     1.5647750     0.1124900
  C        1.9236380    -1.1208730    -0.0515330
  C       -2.4761190    -0.4337210     0.2256320
  H       -0.0681530    -1.7945710     0.3697710
  H        0.6733550    -0.8157800     1.6370670
  H       -1.8203350     1.5970450     0.2687060
  H       -1.3720190     0.6392280     1.7041070
  H       -0.0402350     0.8946720    -1.8856460
  H        1.6977260     2.5694770     1.3788080
  H        3.2012140    -2.4469230    -0.4041650
  H       -4.0405490    -0.6812350    -0.7753220
units angstrom
no_reorient  #important for SAPT in psi4, default
symmetry c1  #important for SAPT in psi4, default
}

set PROPERTIES_ORIGIN ["COM"]
properties('MP2/aug-cc-pvtz', properties = ['dipole'])
--------------------------------------------------------------------------

    Molecular point group: c1
  Charge       = 0
  Multiplicity = 1
  Basis Set: AUG-CC-PVTZ
    Blend: AUG-CC-PVTZ
  Basis Set: (AUG-CC-PVTZ AUX)
    Blend: AUG-CC-PVTZ-JKFIT

    Orbital Energies [Eh]
    ---------------------

    Doubly Occupied:

       1A    -20.635088     2A    -20.627220     3A    -20.625227
       4A    -20.579011     5A    -20.570314     6A    -20.563012
       7A    -20.561238     8A    -11.411497     9A    -11.406700
      10A    -11.402644    11A    -11.341947    12A    -11.273858
      13A    -11.262612    14A     -1.487607    15A     -1.472796
      16A     -1.470487    17A     -1.399997    18A     -1.372224
      19A     -1.369052    20A     -1.366659    21A     -1.117874
      22A     -1.039460    23A     -0.954493    24A     -0.855881
      25A     -0.830787    26A     -0.798025    27A     -0.761757
      28A     -0.728064    29A     -0.718875    30A     -0.716383
      31A     -0.705449    32A     -0.691441    33A     -0.669687
      34A     -0.653894    35A     -0.644528    36A     -0.638078
      37A     -0.622560    38A     -0.605012    39A     -0.595575
      40A     -0.580742    41A     -0.562727    42A     -0.560028
      43A     -0.546341    44A     -0.505209    45A     -0.495434
      46A     -0.490697    47A     -0.485859    48A     -0.472513
      49A     -0.465805    50A     -0.453059

  @DF-RHF Final Energy:  -756.25932843013970

   => Energetics <=

    Nuclear Repulsion Energy =            874.4687608920012281
    One-Electron Energy =               -2777.1253279303541603
    Two-Electron Energy =                1146.3972386082132289
    Total Energy =                       -756.2593284301397034
  Basis Set: (AUG-CC-PVTZ AUX)
    Blend: AUG-CC-PVTZ-RI
    Molecular point group: c1

    Geometry (in Angstrom), charge = 0, multiplicity = 1:

       Center              X                  Y                   Z               Mass
    ------------   -----------------  -----------------  -----------------  -----------------
         O           -0.309268842763     0.066248437022    -1.415282002548    15.994914619570
         O            1.188721557237     1.750028037022     1.383028397452    15.994914619570
         O            0.897018157237     2.372115437022    -0.773106002548    15.994914619570
         O            2.289754157237    -2.423572562978    -0.007507002548    15.994914619570
         O           -3.467664842763     0.074219437022    -0.543870002548    15.994914619570
         O            2.626718157237    -0.235651562978    -0.480887002548    15.994914619570
         O           -2.445416842763    -1.607859562978     0.574320997452    15.994914619570
         C           -0.116994842763     0.309788437022    -0.031923002548    12.000000000000
         C            0.549637157237    -0.922687562978     0.564650997452    12.000000000000
         C           -1.480195842763     0.618636437022     0.626523997452    12.000000000000
         C            0.735934157237     1.562934437022     0.124859997452    12.000000000000
         C            1.913602157237    -1.122713562978    -0.039163002548    12.000000000000
         C           -2.486154842763    -0.435561562978     0.238001997452    12.000000000000
         H           -0.078188842763    -1.796411562978     0.382140997452     1.007825032230
         H            0.663319157237    -0.817620562978     1.649436997452     1.007825032230
         H           -1.830370842763     1.595204437022     0.281075997452     1.007825032230
         H           -1.382054842763     0.637387437022     1.716476997452     1.007825032230
         H           -0.050270842763     0.892831437022    -1.873276002548     1.007825032230
         H            1.687690157237     2.567636437022     1.391177997452     1.007825032230
         H            3.191178157237    -2.448763562978    -0.391795002548     1.007825032230
         H           -4.050584842763    -0.683075562978    -0.762952002548     1.007825032230

  Basis Set: AUG-CC-PVTZ
    Blend: AUG-CC-PVTZ
  Basis Set: (AUG-CC-PVTZ AUX)
    Blend: AUG-CC-PVTZ-JKFIT
	 Reference Energy          =    -756.2593284301397034 [Eh]
	 Singles Energy            =      -0.0000000000000000 [Eh]
	 Same-Spin Energy          =      -0.7301032200479991 [Eh]
	 Opposite-Spin Energy      =      -2.1606627875891062 [Eh]
	 Correlation Energy        =      -2.8907660076371053 [Eh]
	 Total Energy              =    -759.1500944377768292 [Eh]

	 ================> DF-SCS-MP2 Energies <==================
	-----------------------------------------------------------
	 SCS Same-Spin Scale       =       0.3333333333333333 [-]
	 SCS Opposite-Spin Scale   =       1.2000000000000000 [-]
	 SCS Same-Spin Energy      =      -0.2433677400159997 [Eh]
	 SCS Opposite-Spin Energy  =      -2.5927953451069272 [Eh]
	 SCS Correlation Energy    =      -2.8361630851229269 [Eh]
	 SCS Total Energy          =    -759.0954915152626654 [Eh]
	-----------------------------------------------------------

  Dipole Moment: [D]
     X:    -0.1976      Y:     0.6963      Z:     1.8508     Total:     1.9873

*** Psi4 exiting successfully. Buy a developer a beer!
