                               Psi4 1.3.2 release

  ==> Input File <==

--------------------------------------------------------------------------
#psi4
#
memory 32 gb

molecule  {
0 1
  O       -0.2992330     0.0680890    -1.4276520
  O        1.1877390     1.7321380     1.3773370
  O        0.9070540     2.3739560    -0.7854760
  O        2.2160842    -2.4415457     0.0193577
  O       -3.4576290     0.0760600    -0.5562400
  O        2.6367540    -0.2338110    -0.4932570
  O       -2.4353810    -1.6060190     0.5619510
  C       -0.1069590     0.3116290    -0.0442930
  C        0.5596730    -0.9208470     0.5522810
  C       -1.4701600     0.6204770     0.6141540
  C        0.7459700     1.5647750     0.1124900
  C        1.9236380    -1.1208730    -0.0515330
  C       -2.4761190    -0.4337210     0.2256320
  H       -0.0681530    -1.7945710     0.3697710
  H        0.6733550    -0.8157800     1.6370670
  H       -1.8203350     1.5970450     0.2687060
  H       -1.3720190     0.6392280     1.7041070
  H       -0.0402350     0.8946720    -1.8856460
  H        1.6977260     2.5694770     1.3788080
  H        3.2012140    -2.4469230    -0.4041650
  H       -4.0405490    -0.6812350    -0.7753220
units angstrom
no_reorient  #important for SAPT in psi4, default
symmetry c1  #important for SAPT in psi4, default
}

set PROPERTIES_ORIGIN ["COM"]
properties('MP2/aug-cc-pvtz', properties = ['dipole'])
--------------------------------------------------------------------------

    Molecular point group: c1
  Charge       = 0
  Multiplicity = 1
  Basis Set: AUG-CC-PVTZ
    Blend: AUG-CC-PVTZ
  Basis Set: (AUG-CC-PVTZ AUX)
    Blend: AUG-CC-PVTZ-JKFIT

    Orbital Energies [Eh]
    ---------------------

    Doubly Occupied:

       1A    -20.637725     2A    -20.636352     3A    -20.626066
       4A    -20.577282     5A    -20.570858     6A    -20.565475
       7A    -20.561645     8A    -11.410690     9A    -11.405301
      10A    -11.402834    11A    -11.338574    12A    -11.271968
      13A    -11.257779    14A     -1.485044    15A     -1.471545
      16A     -1.463307    17A     -1.398078    18A     -1.371580
      19A     -1.368078    20A     -1.366705    21A     -1.114972
      22A     -1.035975    23A     -0.950003    24A     -0.847879
      25A     -0.822412    26A     -0.789740    27A     -0.758067
      28A     -0.728073    29A     -0.717517    30A     -0.711806
      31A     -0.704440    32A     -0.689630    33A     -0.668248
      34A     -0.653654    35A     -0.643462    36A     -0.637090
      37A     -0.619478    38A     -0.605102    39A     -0.594121
      40A     -0.580531    41A     -0.559807    42A     -0.555919
      43A     -0.543858    44A     -0.505778    45A     -0.494782
      46A     -0.493199    47A     -0.485135    48A     -0.471669
      49A     -0.464405    50A     -0.451495

  @DF-RHF Final Energy:  -756.24273224688181

   => Energetics <=

    Nuclear Repulsion Energy =            874.8743969628072819
    One-Electron Energy =               -2778.0639866046631141
    Two-Electron Energy =                1146.9468573949741312
    Total Energy =                       -756.2427322468818147
  Basis Set: (AUG-CC-PVTZ AUX)
    Blend: AUG-CC-PVTZ-RI
    Molecular point group: c1

    Geometry (in Angstrom), charge = 0, multiplicity = 1:

       Center              X                  Y                   Z               Mass
    ------------   -----------------  -----------------  -----------------  -----------------
         O           -0.301378777976     0.069542284729    -1.419106356954    15.994914619570
         O            1.185593222024     1.733591284729     1.385882643046    15.994914619570
         O            0.904908222024     2.375409284729    -0.776930356954    15.994914619570
         O            2.213938422024    -2.440092415271     0.027903343046    15.994914619570
         O           -3.459774777976     0.077513284729    -0.547694356954    15.994914619570
         O            2.634608222024    -0.232357715271    -0.484711356954    15.994914619570
         O           -2.437526777976    -1.604565715271     0.570496643046    15.994914619570
         C           -0.109104777976     0.313082284729    -0.035747356954    12.000000000000
         C            0.557527222024    -0.919393715271     0.560826643046    12.000000000000
         C           -1.472305777976     0.621930284729     0.622699643046    12.000000000000
         C            0.743824222024     1.566228284729     0.121035643046    12.000000000000
         C            1.921492222024    -1.119419715271    -0.042987356954    12.000000000000
         C           -2.478264777976    -0.432267715271     0.234177643046    12.000000000000
         H           -0.070298777976    -1.793117715271     0.378316643046     1.007825032230
         H            0.671209222024    -0.814326715271     1.645612643046     1.007825032230
         H           -1.822480777976     1.598498284729     0.277251643046     1.007825032230
         H           -1.374164777976     0.640681284729     1.712652643046     1.007825032230
         H           -0.042380777976     0.896125284729    -1.877100356954     1.007825032230
         H            1.695580222024     2.570930284729     1.387353643046     1.007825032230
         H            3.199068222024    -2.445469715271    -0.395619356954     1.007825032230
         H           -4.042694777976    -0.679781715271    -0.766776356954     1.007825032230

  Basis Set: AUG-CC-PVTZ
    Blend: AUG-CC-PVTZ
  Basis Set: (AUG-CC-PVTZ AUX)
    Blend: AUG-CC-PVTZ-JKFIT
	 Reference Energy          =    -756.2427322468818147 [Eh]
	 Singles Energy            =      -0.0000000000000000 [Eh]
	 Same-Spin Energy          =      -0.7324430852007848 [Eh]
	 Opposite-Spin Energy      =      -2.1658021749320913 [Eh]
	 Correlation Energy        =      -2.8982452601328763 [Eh]
	 Total Energy              =    -759.1409775070146679 [Eh]

	 ================> DF-SCS-MP2 Energies <==================
	-----------------------------------------------------------
	 SCS Same-Spin Scale       =       0.3333333333333333 [-]
	 SCS Opposite-Spin Scale   =       1.2000000000000000 [-]
	 SCS Same-Spin Energy      =      -0.2441476950669283 [Eh]
	 SCS Opposite-Spin Energy  =      -2.5989626099185092 [Eh]
	 SCS Correlation Energy    =      -2.8431103049854376 [Eh]
	 SCS Total Energy          =    -759.0858425518672448 [Eh]
	-----------------------------------------------------------

  Dipole Moment: [D]
     X:     0.0032      Y:     0.6845      Z:     1.8090     Total:     1.9342

*** Psi4 exiting successfully. Buy a developer a beer!
