                               Psi4 1.3.2 release

  ==> Input File <==

--------------------------------------------------------------------------
#psi4
#
memory 32 gb

molecule  {
0 1
  O       -0.2992330     0.0680890    -1.4276520
  O        1.1877390     1.7321380     1.3773370
  O        0.9070540     2.3739560    -0.7854760
  O        2.2997900    -2.4217320    -0.0198770
  O       -3.4576290     0.0760600    -0.5562400
  O        2.6367540    -0.2338110    -0.4932570
  O       -2.4353810    -1.6060190     0.5619510
  C       -0.1282364     0.3072468    -0.0289780
  C        0.5596730    -0.9208470     0.5522810
  C       -1.4701600     0.6204770     0.6141540
  C        0.7459700     1.5647750     0.1124900
  C        1.9236380    -1.1208730    -0.0515330
  C       -2.4761190    -0.4337210     0.2256320
  H       -0.0681530    -1.7945710     0.3697710
  H        0.6733550    -0.8157800     1.6370670
  H       -1.8203350     1.5970450     0.2687060
  H       -1.3720190     0.6392280     1.7041070
  H       -0.0402350     0.8946720    -1.8856460
  H        1.6977260     2.5694770     1.3788080
  H        3.2012140    -2.4469230    -0.4041650
  H       -4.0405490    -0.6812350    -0.7753220
units angstrom
no_reorient  #important for SAPT in psi4, default
symmetry c1  #important for SAPT in psi4, default
}

set PROPERTIES_ORIGIN ["COM"]
properties('MP2/aug-cc-pvtz', properties = ['dipole'])
--------------------------------------------------------------------------

    Molecular point group: c1
  Charge       = 0
  Multiplicity = 1
  Basis Set: AUG-CC-PVTZ
    Blend: AUG-CC-PVTZ
  Basis Set: (AUG-CC-PVTZ AUX)
    Blend: AUG-CC-PVTZ-JKFIT

    Orbital Energies [Eh]
    ---------------------

    Doubly Occupied:

       1A    -20.637872     2A    -20.627372     3A    -20.625204
       4A    -20.576460     5A    -20.571386     6A    -20.563277
       7A    -20.560918     8A    -11.411628     9A    -11.406980
      10A    -11.402762    11A    -11.341009    12A    -11.273460
      13A    -11.262209    14A     -1.485048    15A     -1.472999
      16A     -1.470223    17A     -1.395529    18A     -1.371346
      19A     -1.369045    20A     -1.365713    21A     -1.119757
      22A     -1.040656    23A     -0.950374    24A     -0.853727
      25A     -0.831609    26A     -0.794367    27A     -0.758215
      28A     -0.728053    29A     -0.718746    30A     -0.716086
      31A     -0.704877    32A     -0.691382    33A     -0.670175
      34A     -0.653680    35A     -0.644388    36A     -0.638112
      37A     -0.623294    38A     -0.604991    39A     -0.595561
      40A     -0.580651    41A     -0.562513    42A     -0.557411
      43A     -0.543644    44A     -0.505686    45A     -0.495220
      46A     -0.490665    47A     -0.486008    48A     -0.473765
      49A     -0.465738    50A     -0.452321

  @DF-RHF Final Energy:  -756.25697009537976

   => Energetics <=

    Nuclear Repulsion Energy =            874.5463268688711196
    One-Electron Energy =               -2777.3223724198778655
    Two-Electron Energy =                1146.5190754556269894
    Total Energy =                       -756.2569700953797565
  Basis Set: (AUG-CC-PVTZ AUX)
    Blend: AUG-CC-PVTZ-RI
    Molecular point group: c1

    Geometry (in Angstrom), charge = 0, multiplicity = 1:

       Center              X                  Y                   Z               Mass
    ------------   -----------------  -----------------  -----------------  -----------------
         O           -0.307021413176     0.068165748949    -1.416795350322    15.994914619570
         O            1.179950586824     1.732214748949     1.388193649678    15.994914619570
         O            0.899265586824     2.374032748949    -0.774619350322    15.994914619570
         O            2.292001586824    -2.421655251051    -0.009020350322    15.994914619570
         O           -3.465417413176     0.076136748949    -0.545383350322    15.994914619570
         O            2.628965586824    -0.233734251051    -0.482400350322    15.994914619570
         O           -2.443169413176    -1.605942251051     0.572807649678    15.994914619570
         C           -0.136024813176     0.307323548949    -0.018121350322    12.000000000000
         C            0.551884586824    -0.920770251051     0.563137649678    12.000000000000
         C           -1.477948413176     0.620553748949     0.625010649678    12.000000000000
         C            0.738181586824     1.564851748949     0.123346649678    12.000000000000
         C            1.915849586824    -1.120796251051    -0.040676350322    12.000000000000
         C           -2.483907413176    -0.433644251051     0.236488649678    12.000000000000
         H           -0.075941413176    -1.794494251051     0.380627649678     1.007825032230
         H            0.665566586824    -0.815703251051     1.647923649678     1.007825032230
         H           -1.828123413176     1.597121748949     0.279562649678     1.007825032230
         H           -1.379807413176     0.639304748949     1.714963649678     1.007825032230
         H           -0.048023413176     0.894748748949    -1.874789350322     1.007825032230
         H            1.689937586824     2.569553748949     1.389664649678     1.007825032230
         H            3.193425586824    -2.446846251051    -0.393308350322     1.007825032230
         H           -4.048337413176    -0.681158251051    -0.764465350322     1.007825032230

  Basis Set: AUG-CC-PVTZ
    Blend: AUG-CC-PVTZ
  Basis Set: (AUG-CC-PVTZ AUX)
    Blend: AUG-CC-PVTZ-JKFIT
	 Reference Energy          =    -756.2569700953797565 [Eh]
	 Singles Energy            =      -0.0000000000000000 [Eh]
	 Same-Spin Energy          =      -0.7306306772186630 [Eh]
	 Opposite-Spin Energy      =      -2.1619050023800659 [Eh]
	 Correlation Energy        =      -2.8925356795987289 [Eh]
	 Total Energy              =    -759.1495057749784792 [Eh]

	 ================> DF-SCS-MP2 Energies <==================
	-----------------------------------------------------------
	 SCS Same-Spin Scale       =       0.3333333333333333 [-]
	 SCS Opposite-Spin Scale   =       1.2000000000000000 [-]
	 SCS Same-Spin Energy      =      -0.2435435590728877 [Eh]
	 SCS Opposite-Spin Energy  =      -2.5942860028560788 [Eh]
	 SCS Correlation Energy    =      -2.8378295619289666 [Eh]
	 SCS Total Energy          =    -759.0947996573087266 [Eh]
	-----------------------------------------------------------

  Dipole Moment: [D]
     X:    -0.2037      Y:     0.7534      Z:     1.9047     Total:     2.0584

*** Psi4 exiting successfully. Buy a developer a beer!
