                               Psi4 1.3.2 release

  ==> Input File <==

--------------------------------------------------------------------------
#psi4
#
memory 32 gb

molecule  {
0 1
  O       -0.2992330     0.0680890    -1.4276520
  O        1.1877390     1.7321380     1.3773370
  O        0.9070540     2.3739560    -0.7854760
  O        2.2586742    -2.4322547     0.0009579
  O       -3.4576290     0.0760600    -0.5562400
  O        2.6367540    -0.2338110    -0.4932570
  O       -2.4353810    -1.6060190     0.5619510
  C       -0.1069590     0.3116290    -0.0442930
  C        0.5596730    -0.9208470     0.5522810
  C       -1.4701600     0.6204770     0.6141540
  C        0.7459700     1.5647750     0.1124900
  C        1.9236380    -1.1208730    -0.0515330
  C       -2.4761190    -0.4337210     0.2256320
  H       -0.0681530    -1.7945710     0.3697710
  H        0.6733550    -0.8157800     1.6370670
  H       -1.8203350     1.5970450     0.2687060
  H       -1.3720190     0.6392280     1.7041070
  H       -0.0402350     0.8946720    -1.8856460
  H        1.6977260     2.5694770     1.3788080
  H        3.2012140    -2.4469230    -0.4041650
  H       -4.0405490    -0.6812350    -0.7753220
units angstrom
no_reorient  #important for SAPT in psi4, default
symmetry c1  #important for SAPT in psi4, default
}

set PROPERTIES_ORIGIN ["COM"]
properties('MP2/aug-cc-pvtz', properties = ['dipole'])
--------------------------------------------------------------------------

    Molecular point group: c1
  Charge       = 0
  Multiplicity = 1
  Basis Set: AUG-CC-PVTZ
    Blend: AUG-CC-PVTZ
  Basis Set: (AUG-CC-PVTZ AUX)
    Blend: AUG-CC-PVTZ-JKFIT

    Orbital Energies [Eh]
    ---------------------

    Doubly Occupied:

       1A    -20.637966     2A    -20.630981     3A    -20.626505
       4A    -20.577805     5A    -20.571104     6A    -20.563239
       7A    -20.562168     8A    -11.411089     9A    -11.405830
      10A    -11.402517    11A    -11.339691    12A    -11.272681
      13A    -11.259920    14A     -1.485343    15A     -1.472014
      16A     -1.466441    17A     -1.398588    18A     -1.371939
      19A     -1.368357    20A     -1.366521    21A     -1.116027
      22A     -1.037496    23A     -0.951342    24A     -0.850016
      25A     -0.826123    26A     -0.792583    27A     -0.759035
      28A     -0.727976    29A     -0.717989    30A     -0.714281
      31A     -0.704830    32A     -0.690397    33A     -0.668661
      34A     -0.653656    35A     -0.644000    36A     -0.637593
      37A     -0.621365    38A     -0.604931    39A     -0.594732
      40A     -0.580632    41A     -0.560966    42A     -0.557773
      43A     -0.545005    44A     -0.505812    45A     -0.494790
      46A     -0.492046    47A     -0.485540    48A     -0.471827
      49A     -0.465157    50A     -0.452085

  @DF-RHF Final Energy:  -756.25225703294063

   => Energetics <=

    Nuclear Repulsion Energy =            874.7362224303479934
    One-Electron Energy =               -2777.7462269691654910
    Two-Electron Energy =                1146.7577475058769778
    Total Energy =                       -756.2522570329406335
  Basis Set: (AUG-CC-PVTZ AUX)
    Blend: AUG-CC-PVTZ-RI
    Molecular point group: c1

    Geometry (in Angstrom), charge = 0, multiplicity = 1:

       Center              X                  Y                   Z               Mass
    ------------   -----------------  -----------------  -----------------  -----------------
         O           -0.304926317668     0.068768389653    -1.417573743176    15.994914619570
         O            1.182045682332     1.732817389653     1.387415256824    15.994914619570
         O            0.901360682332     2.374635389653    -0.775397743176    15.994914619570
         O            2.252980882332    -2.431575310347     0.011036156824    15.994914619570
         O           -3.463322317668     0.076739389653    -0.546161743176    15.994914619570
         O            2.631060682332    -0.233131610347    -0.483178743176    15.994914619570
         O           -2.441074317668    -1.605339610347     0.572029256824    15.994914619570
         C           -0.112652317668     0.312308389653    -0.034214743176    12.000000000000
         C            0.553979682332    -0.920167610347     0.562359256824    12.000000000000
         C           -1.475853317668     0.621156389653     0.624232256824    12.000000000000
         C            0.740276682332     1.565454389653     0.122568256824    12.000000000000
         C            1.917944682332    -1.120193610347    -0.041454743176    12.000000000000
         C           -2.481812317668    -0.433041610347     0.235710256824    12.000000000000
         H           -0.073846317668    -1.793891610347     0.379849256824     1.007825032230
         H            0.667661682332    -0.815100610347     1.647145256824     1.007825032230
         H           -1.826028317668     1.597724389653     0.278784256824     1.007825032230
         H           -1.377712317668     0.639907389653     1.714185256824     1.007825032230
         H           -0.045928317668     0.895351389653    -1.875567743176     1.007825032230
         H            1.692032682332     2.570156389653     1.388886256824     1.007825032230
         H            3.195520682332    -2.446243610347    -0.394086743176     1.007825032230
         H           -4.046242317668    -0.680555610347    -0.765243743176     1.007825032230

  Basis Set: AUG-CC-PVTZ
    Blend: AUG-CC-PVTZ
  Basis Set: (AUG-CC-PVTZ AUX)
    Blend: AUG-CC-PVTZ-JKFIT
	 Reference Energy          =    -756.2522570329406335 [Eh]
	 Singles Energy            =      -0.0000000000000000 [Eh]
	 Same-Spin Energy          =      -0.7314618392304353 [Eh]
	 Opposite-Spin Energy      =      -2.1636009167141124 [Eh]
	 Correlation Energy        =      -2.8950627559445476 [Eh]
	 Total Energy              =    -759.1473197888851701 [Eh]

	 ================> DF-SCS-MP2 Energies <==================
	-----------------------------------------------------------
	 SCS Same-Spin Scale       =       0.3333333333333333 [-]
	 SCS Opposite-Spin Scale   =       1.2000000000000000 [-]
	 SCS Same-Spin Energy      =      -0.2438206130768117 [Eh]
	 SCS Opposite-Spin Energy  =      -2.5963211000569348 [Eh]
	 SCS Correlation Energy    =      -2.8401417131337467 [Eh]
	 SCS Total Energy          =    -759.0923987460744229 [Eh]
	-----------------------------------------------------------

  Dipole Moment: [D]
     X:    -0.0801      Y:     0.7096      Z:     1.8322     Total:     1.9664

*** Psi4 exiting successfully. Buy a developer a beer!
