                               Psi4 1.3.2 release

  ==> Input File <==

--------------------------------------------------------------------------
#psi4
#
memory 32 gb

molecule  {
0 1
  O       -0.2992330     0.0680890    -1.4276520
  O        1.1877390     1.7321380     1.3773370
  O        0.9070540     2.3739560    -0.7854760
  O        2.2997900    -2.4217320    -0.0198770
  O       -3.4576290     0.0760600    -0.5562400
  O        2.6367540    -0.2338110    -0.4932570
  O       -2.4353810    -1.6060190     0.5619510
  C       -0.1226021     0.2656290    -0.0349056
  C        0.5596730    -0.9208470     0.5522810
  C       -1.4701600     0.6204770     0.6141540
  C        0.7459700     1.5647750     0.1124900
  C        1.9236380    -1.1208730    -0.0515330
  C       -2.4761190    -0.4337210     0.2256320
  H       -0.0681530    -1.7945710     0.3697710
  H        0.6733550    -0.8157800     1.6370670
  H       -1.8203350     1.5970450     0.2687060
  H       -1.3720190     0.6392280     1.7041070
  H       -0.0402350     0.8946720    -1.8856460
  H        1.6977260     2.5694770     1.3788080
  H        3.2012140    -2.4469230    -0.4041650
  H       -4.0405490    -0.6812350    -0.7753220
units angstrom
no_reorient  #important for SAPT in psi4, default
symmetry c1  #important for SAPT in psi4, default
}

set PROPERTIES_ORIGIN ["COM"]
properties('MP2/aug-cc-pvtz', properties = ['dipole'])
--------------------------------------------------------------------------

    Molecular point group: c1
  Charge       = 0
  Multiplicity = 1
  Basis Set: AUG-CC-PVTZ
    Blend: AUG-CC-PVTZ
  Basis Set: (AUG-CC-PVTZ AUX)
    Blend: AUG-CC-PVTZ-JKFIT

    Orbital Energies [Eh]
    ---------------------

    Doubly Occupied:

       1A    -20.636997     2A    -20.626847     3A    -20.625771
       4A    -20.576510     5A    -20.570689     6A    -20.562683
       7A    -20.561725     8A    -11.410838     9A    -11.406004
      10A    -11.403516    11A    -11.342236    12A    -11.273235
      13A    -11.261279    14A     -1.483587    15A     -1.472511
      16A     -1.470805    17A     -1.397061    18A     -1.371690
      19A     -1.368916    20A     -1.366591    21A     -1.120397
      22A     -1.042328    23A     -0.943804    24A     -0.855036
      25A     -0.831193    26A     -0.795001    27A     -0.758142
      28A     -0.727272    29A     -0.718208    30A     -0.716967
      31A     -0.705534    32A     -0.690453    33A     -0.671581
      34A     -0.653483    35A     -0.645899    36A     -0.637344
      37A     -0.623210    38A     -0.605687    39A     -0.594834
      40A     -0.581331    41A     -0.563899    42A     -0.560845
      43A     -0.541012    44A     -0.505638    45A     -0.495910
      46A     -0.491557    47A     -0.484879    48A     -0.473243
      49A     -0.466160    50A     -0.448010

  @DF-RHF Final Energy:  -756.25543336889359

   => Energetics <=

    Nuclear Repulsion Energy =            874.6153055559231007
    One-Electron Energy =               -2777.4647878789687638
    Two-Electron Energy =                1146.5940489541521856
    Total Energy =                       -756.2554333688935913
  Basis Set: (AUG-CC-PVTZ AUX)
    Blend: AUG-CC-PVTZ-RI
    Molecular point group: c1

    Geometry (in Angstrom), charge = 0, multiplicity = 1:

       Center              X                  Y                   Z               Mass
    ------------   -----------------  -----------------  -----------------  -----------------
         O           -0.307373507408     0.070766495684    -1.416424927417    15.994914619570
         O            1.179598492592     1.734815495684     1.388564072583    15.994914619570
         O            0.898913492592     2.376633495684    -0.774248927417    15.994914619570
         O            2.291649492592    -2.419054504316    -0.008649927417    15.994914619570
         O           -3.465769507408     0.078737495684    -0.545012927417    15.994914619570
         O            2.628613492592    -0.231133504316    -0.482029927417    15.994914619570
         O           -2.443521507408    -1.603341504316     0.573178072583    15.994914619570
         C           -0.130742607408     0.268306495684    -0.023678527417    12.000000000000
         C            0.551532492592    -0.918169504316     0.563508072583    12.000000000000
         C           -1.478300507408     0.623154495684     0.625381072583    12.000000000000
         C            0.737829492592     1.567452495684     0.123717072583    12.000000000000
         C            1.915497492592    -1.118195504316    -0.040305927417    12.000000000000
         C           -2.484259507408    -0.431043504316     0.236859072583    12.000000000000
         H           -0.076293507408    -1.791893504316     0.380998072583     1.007825032230
         H            0.665214492592    -0.813102504316     1.648294072583     1.007825032230
         H           -1.828475507408     1.599722495684     0.279933072583     1.007825032230
         H           -1.380159507408     0.641905495684     1.715334072583     1.007825032230
         H           -0.048375507408     0.897349495684    -1.874418927417     1.007825032230
         H            1.689585492592     2.572154495684     1.390035072583     1.007825032230
         H            3.193073492592    -2.444245504316    -0.392937927417     1.007825032230
         H           -4.048689507408    -0.678557504316    -0.764094927417     1.007825032230

  Basis Set: AUG-CC-PVTZ
    Blend: AUG-CC-PVTZ
  Basis Set: (AUG-CC-PVTZ AUX)
    Blend: AUG-CC-PVTZ-JKFIT
	 Reference Energy          =    -756.2554333688935913 [Eh]
	 Singles Energy            =      -0.0000000000000000 [Eh]
	 Same-Spin Energy          =      -0.7307549888072978 [Eh]
	 Opposite-Spin Energy      =      -2.1617775409580227 [Eh]
	 Correlation Energy        =      -2.8925325297653206 [Eh]
	 Total Energy              =    -759.1479658986588674 [Eh]

	 ================> DF-SCS-MP2 Energies <==================
	-----------------------------------------------------------
	 SCS Same-Spin Scale       =       0.3333333333333333 [-]
	 SCS Opposite-Spin Scale   =       1.2000000000000000 [-]
	 SCS Same-Spin Energy      =      -0.2435849962690993 [Eh]
	 SCS Opposite-Spin Energy  =      -2.5941330491496273 [Eh]
	 SCS Correlation Energy    =      -2.8377180454187267 [Eh]
	 SCS Total Energy          =    -759.0931514143122740 [Eh]
	-----------------------------------------------------------

  Dipole Moment: [D]
     X:    -0.1435      Y:     0.7159      Z:     1.8906     Total:     2.0267

*** Psi4 exiting successfully. Buy a developer a beer!
