                               Psi4 1.4a3.dev225

  ==> Input File <==

--------------------------------------------------------------------------
#psi4
#
memory 32 gb

molecule  {
0 1
  O       -0.2992690     0.0680640    -1.4275900
  O        1.1877140     1.7322170     1.3773330
  O        0.9070830     2.3739170    -0.7855270
  O        2.2997080    -2.4217750    -0.0198700
  O       -3.4574230     0.0760400    -0.5564670
  O        2.6367000    -0.2338780    -0.4933410
  O       -2.4354340    -1.6059620     0.5620860
  C       -0.1069630     0.3116450    -0.0442490
  C        0.5596710    -0.9208170     0.5523550
  C       -1.4701590     0.6204980     0.6142450
  C        0.7459620     1.5647900     0.1124790
  C        1.9352710    -1.1063759    -0.0587824
  C       -2.4760910    -0.4336940     0.2256510
  H       -0.0681940    -1.7945300     0.3699280
  H        0.6734230    -0.8156830     1.6371260
  H       -1.8203340     1.5970830     0.2688470
  H       -1.3719830     0.6391850     1.7041930
  H       -0.0401320     0.8945830    -1.8856220
  H        1.6977060     2.5695530     1.3787680
  H        3.2011100    -2.4470060    -0.4042100
  H       -4.0402960    -0.6812640    -0.7756360
units angstrom
no_reorient  #important for SAPT in psi4, default
symmetry c1  #important for SAPT in psi4, default
}

set PROPERTIES_ORIGIN ["COM"]
properties('MP2/aug-cc-pvtz', properties = ['dipole'])
--------------------------------------------------------------------------

    Molecular point group: c1
  Charge       = 0
  Multiplicity = 1
  Basis Set: AUG-CC-PVTZ
    Blend: AUG-CC-PVTZ
  Basis Set: (AUG-CC-PVTZ AUX)
    Blend: AUG-CC-PVTZ-JKFIT

    Orbital Energies [Eh]
    ---------------------

    Doubly Occupied:

       1A    -20.638832     2A    -20.626748     3A    -20.621558
       4A    -20.578430     5A    -20.572032     6A    -20.564800
       7A    -20.562432     8A    -11.411880     9A    -11.406113
      10A    -11.400680    11A    -11.340287    12A    -11.273133
      13A    -11.261483    14A     -1.486420    15A     -1.472273
      16A     -1.471233    17A     -1.399336    18A     -1.376054
      19A     -1.371601    20A     -1.368244    21A     -1.116236
      22A     -1.036812    23A     -0.951519    24A     -0.851621
      25A     -0.828493    26A     -0.794546    27A     -0.760007
      28A     -0.728497    29A     -0.718460    30A     -0.717303
      31A     -0.705851    32A     -0.690865    33A     -0.669184
      34A     -0.653702    35A     -0.644700    36A     -0.637978
      37A     -0.622712    38A     -0.606262    39A     -0.595055
      40A     -0.582324    41A     -0.561467    42A     -0.558997
      43A     -0.545819    44A     -0.506949    45A     -0.496655
      46A     -0.494630    47A     -0.486271    48A     -0.472713
      49A     -0.465335    50A     -0.452422

  @DF-RHF Final Energy:  -756.25883895448010

   => Energetics <=

    Nuclear Repulsion Energy =            874.7459518444067044
    One-Electron Energy =               -2777.6956773947604233
    Two-Electron Energy =                1146.6908865958737351
    Total Energy =                       -756.2588389544800975
  Basis Set: (AUG-CC-PVTZ AUX)
    Blend: AUG-CC-PVTZ-RI
    Molecular point group: c1

    Geometry (in Angstrom), charge = 0, multiplicity = 1:

       Center              X                  Y                   Z               Mass
    ------------   -----------------  -----------------  -----------------  -----------------
         O           -0.309115265390     0.066958936212    -1.415323697302    15.994914619570
         O            1.177867734610     1.731111936212     1.389599302698    15.994914619570
         O            0.897236734610     2.372811936212    -0.773260697302    15.994914619570
         O            2.289861734610    -2.422880063788    -0.007603697302    15.994914619570
         O           -3.467269265390     0.074934936212    -0.544200697302    15.994914619570
         O            2.626853734610    -0.234983063788    -0.481074697302    15.994914619570
         O           -2.445280265390    -1.607067063788     0.574352302698    15.994914619570
         C           -0.116809265390     0.310539936212    -0.031982697302    12.000000000000
         C            0.549824734610    -0.921922063788     0.564621302698    12.000000000000
         C           -1.480005265390     0.619392936212     0.626511302698    12.000000000000
         C            0.736115734610     1.563684936212     0.124745302698    12.000000000000
         C            1.925424734610    -1.107480963788    -0.046516097302    12.000000000000
         C           -2.485937265390    -0.434799063788     0.237917302698    12.000000000000
         H           -0.078040265390    -1.795635063788     0.382194302698     1.007825032230
         H            0.663576734610    -0.816788063788     1.649392302698     1.007825032230
         H           -1.830180265390     1.595977936212     0.281113302698     1.007825032230
         H           -1.381829265390     0.638079936212     1.716459302698     1.007825032230
         H           -0.049978265390     0.893477936212    -1.873355697302     1.007825032230
         H            1.687859734610     2.568447936212     1.391034302698     1.007825032230
         H            3.191263734610    -2.448111063788    -0.391943697302     1.007825032230
         H           -4.050142265390    -0.682369063788    -0.763369697302     1.007825032230

  Basis Set: AUG-CC-PVTZ
    Blend: AUG-CC-PVTZ
  Basis Set: (AUG-CC-PVTZ AUX)
    Blend: AUG-CC-PVTZ-JKFIT
	 Reference Energy          =    -756.2588389544800975 [Eh]
	 Singles Energy            =      -0.0000000000000000 [Eh]
	 Same-Spin Energy          =      -0.7301940419824001 [Eh]
	 Opposite-Spin Energy      =      -2.1609982971266222 [Eh]
	 Correlation Energy        =      -2.8911923391090224 [Eh]
	 Total Energy              =    -759.1500312935891088 [Eh]

	 ================> DF-SCS-MP2 Energies <==================
	-----------------------------------------------------------
	 SCS Same-Spin Scale       =       0.3333333333333333 [-]
	 SCS Opposite-Spin Scale   =       1.2000000000000000 [-]
	 SCS Same-Spin Energy      =      -0.2433980139941334 [Eh]
	 SCS Opposite-Spin Energy  =      -2.5931979565519465 [Eh]
	 SCS Correlation Energy    =      -2.8365959705460799 [Eh]
	 SCS Total Energy          =    -759.0954349250262112 [Eh]
	-----------------------------------------------------------

  Dipole Moment: [D]
     X:    -0.1187      Y:     0.8590      Z:     1.8241     Total:     2.0197

*** Psi4 exiting successfully. Buy a developer a beer!
