                               Psi4 1.3.2 release

  ==> Input File <==

--------------------------------------------------------------------------
#psi4
#
memory 32 gb

molecule  {
0 1
  O       -0.2992330     0.0680890    -1.4276520
  O        1.1877390     1.7321380     1.3773370
  O        0.9070540     2.3739560    -0.7854760
  O        2.2997900    -2.4217320    -0.0198770
  O       -3.4576290     0.0760600    -0.5562400
  O        2.6367540    -0.2338110    -0.4932570
  O       -2.4353810    -1.6060190     0.5619510
  C       -0.0615099     0.4476264    -0.0825118
  C        0.5596730    -0.9208470     0.5522810
  C       -1.4701600     0.6204770     0.6141540
  C        0.7459700     1.5647750     0.1124900
  C        1.9236380    -1.1208730    -0.0515330
  C       -2.4761190    -0.4337210     0.2256320
  H       -0.0681530    -1.7945710     0.3697710
  H        0.6733550    -0.8157800     1.6370670
  H       -1.8203350     1.5970450     0.2687060
  H       -1.3720190     0.6392280     1.7041070
  H       -0.0402350     0.8946720    -1.8856460
  H        1.6977260     2.5694770     1.3788080
  H        3.2012140    -2.4469230    -0.4041650
  H       -4.0405490    -0.6812350    -0.7753220
units angstrom
no_reorient  #important for SAPT in psi4, default
symmetry c1  #important for SAPT in psi4, default
}

set PROPERTIES_ORIGIN ["COM"]
properties('MP2/aug-cc-pvtz', properties = ['dipole'])
--------------------------------------------------------------------------

    Molecular point group: c1
  Charge       = 0
  Multiplicity = 1
  Basis Set: AUG-CC-PVTZ
    Blend: AUG-CC-PVTZ
  Basis Set: (AUG-CC-PVTZ AUX)
    Blend: AUG-CC-PVTZ-JKFIT

    Orbital Energies [Eh]
    ---------------------

    Doubly Occupied:

       1A    -20.640348     2A    -20.627665     3A    -20.623192
       4A    -20.585099     5A    -20.571625     6A    -20.563338
       7A    -20.559072     8A    -11.408714     9A    -11.407923
      10A    -11.399566    11A    -11.338606    12A    -11.276563
      13A    -11.265853    14A     -1.491276    15A     -1.472921
      16A     -1.468522    17A     -1.405866    18A     -1.374209
      19A     -1.369131    20A     -1.365387    21A     -1.112343
      22A     -1.030407    23A     -0.982427    24A     -0.848288
      25A     -0.826735    26A     -0.801020    27A     -0.762664
      28A     -0.730134    29A     -0.719771    30A     -0.713992
      31A     -0.706122    32A     -0.692376    33A     -0.665357
      34A     -0.654517    35A     -0.641804    36A     -0.638983
      37A     -0.619643    38A     -0.602224    39A     -0.596981
      40A     -0.578848    41A     -0.575889    42A     -0.556710
      43A     -0.542287    44A     -0.507059    45A     -0.494218
      46A     -0.489540    47A     -0.485451    48A     -0.471087
      49A     -0.459851    50A     -0.450970

  @DF-RHF Final Energy:  -756.23278163159341

   => Energetics <=

    Nuclear Repulsion Energy =            874.7739431812050270
    One-Electron Energy =               -2777.6682960996599832
    Two-Electron Energy =                1146.6615712868615446
    Total Energy =                       -756.2327816315932978
  Basis Set: (AUG-CC-PVTZ AUX)
    Blend: AUG-CC-PVTZ-RI
    Molecular point group: c1

    Geometry (in Angstrom), charge = 0, multiplicity = 1:

       Center              X                  Y                   Z               Mass
    ------------   -----------------  -----------------  -----------------  -----------------
         O           -0.311191232988     0.059393257699    -1.413449958313    15.994914619570
         O            1.175780767012     1.723442257699     1.391539041687    15.994914619570
         O            0.895095767012     2.365260257699    -0.771273958313    15.994914619570
         O            2.287831767012    -2.430427742301    -0.005674958313    15.994914619570
         O           -3.469587232988     0.067364257699    -0.542037958313    15.994914619570
         O            2.624795767012    -0.242506742301    -0.479054958313    15.994914619570
         O           -2.447339232988    -1.614714742301     0.576153041687    15.994914619570
         C           -0.073468132988     0.438930657699    -0.068309758313    12.000000000000
         C            0.547714767012    -0.929542742301     0.566483041687    12.000000000000
         C           -1.482118232988     0.611781257699     0.628356041687    12.000000000000
         C            0.734011767012     1.556079257699     0.126692041687    12.000000000000
         C            1.911679767012    -1.129568742301    -0.037330958313    12.000000000000
         C           -2.488077232988    -0.442416742301     0.239834041687    12.000000000000
         H           -0.080111232988    -1.803266742301     0.383973041687     1.007825032230
         H            0.661396767012    -0.824475742301     1.651269041687     1.007825032230
         H           -1.832293232988     1.588349257699     0.282908041687     1.007825032230
         H           -1.383977232988     0.630532257699     1.718309041687     1.007825032230
         H           -0.052193232988     0.885976257699    -1.871443958313     1.007825032230
         H            1.685767767012     2.560781257699     1.393010041687     1.007825032230
         H            3.189255767012    -2.455618742301    -0.389962958313     1.007825032230
         H           -4.052507232988    -0.689930742301    -0.761119958313     1.007825032230

  Basis Set: AUG-CC-PVTZ
    Blend: AUG-CC-PVTZ
  Basis Set: (AUG-CC-PVTZ AUX)
    Blend: AUG-CC-PVTZ-JKFIT
	 Reference Energy          =    -756.2327816315934115 [Eh]
	 Singles Energy            =      -0.0000000000000000 [Eh]
	 Same-Spin Energy          =      -0.7315853136052493 [Eh]
	 Opposite-Spin Energy      =      -2.1640484905216568 [Eh]
	 Correlation Energy        =      -2.8956338041269061 [Eh]
	 Total Energy              =    -759.1284154357202851 [Eh]

	 ================> DF-SCS-MP2 Energies <==================
	-----------------------------------------------------------
	 SCS Same-Spin Scale       =       0.3333333333333333 [-]
	 SCS Opposite-Spin Scale   =       1.2000000000000000 [-]
	 SCS Same-Spin Energy      =      -0.2438617712017497 [Eh]
	 SCS Opposite-Spin Energy  =      -2.5968581886259883 [Eh]
	 SCS Correlation Energy    =      -2.8407199598277382 [Eh]
	 SCS Total Energy          =    -759.0735015914211772 [Eh]
	-----------------------------------------------------------

  Dipole Moment: [D]
     X:    -0.2689      Y:     0.7477      Z:     1.7520     Total:     1.9237

*** Psi4 exiting successfully. Buy a developer a beer!
