                               Psi4 1.3.2 release

  ==> Input File <==

--------------------------------------------------------------------------
#psi4
#
memory 32 gb

molecule  {
0 1
  O       -0.2992330     0.0680890    -1.4276520
  O        1.1877390     1.7321380     1.3773370
  O        0.9070540     2.3739560    -0.7854760
  O        2.2997900    -2.4217320    -0.0198770
  O       -3.4576290     0.0760600    -0.5562400
  O        2.6367540    -0.2338110    -0.4932570
  O       -2.4353810    -1.6060190     0.5619510
  C       -0.1069590     0.3116290    -0.0442930
  C        0.5596730    -0.9208470     0.5522810
  C       -1.4701600     0.6204770     0.6141540
  C        0.7459700     1.5647750     0.1124900
  C        1.9236380    -1.1208730    -0.0515330
  C       -2.4761190    -0.4337210     0.2256320
  H       -0.0681530    -1.7945710     0.3697710
  H        0.6733550    -0.8157800     1.6370670
  H       -1.8203350     1.5970450     0.2687060
  H       -1.3720190     0.6392280     1.7041070
  H       -0.0402350     0.8946720    -1.8856460
  H        1.6977260     2.5694770     1.3788080
  H        3.1092548    -2.4443531    -0.3649617
  H       -4.0405490    -0.6812350    -0.7753220
units angstrom
no_reorient  #important for SAPT in psi4, default
symmetry c1  #important for SAPT in psi4, default
}

set PROPERTIES_ORIGIN ["COM"]
properties('MP2/aug-cc-pvtz', properties = ['dipole'])
--------------------------------------------------------------------------

    Molecular point group: c1
  Charge       = 0
  Multiplicity = 1
  Basis Set: AUG-CC-PVTZ
    Blend: AUG-CC-PVTZ
  Basis Set: (AUG-CC-PVTZ AUX)
    Blend: AUG-CC-PVTZ-JKFIT

    Orbital Energies [Eh]
    ---------------------

    Doubly Occupied:

       1A    -20.638691     2A    -20.627270     3A    -20.617777
       4A    -20.578848     5A    -20.571850     6A    -20.563132
       7A    -20.563069     8A    -11.411971     9A    -11.406736
      10A    -11.404455    11A    -11.341310    12A    -11.273814
      13A    -11.262664    14A     -1.489867    15A     -1.484426
      16A     -1.472827    17A     -1.399941    18A     -1.377965
      19A     -1.371564    20A     -1.368733    21A     -1.118059
      22A     -1.041683    23A     -0.956102    24A     -0.864211
      25A     -0.836170    26A     -0.798936    27A     -0.761253
      28A     -0.729003    29A     -0.725016    30A     -0.718871
      31A     -0.706723    32A     -0.692123    33A     -0.670596
      34A     -0.655860    35A     -0.645632    36A     -0.639342
      37A     -0.625298    38A     -0.606584    39A     -0.596241
      40A     -0.583339    41A     -0.564094    42A     -0.560777
      43A     -0.546664    44A     -0.506535    45A     -0.495866
      46A     -0.492964    47A     -0.486512    48A     -0.472868
      49A     -0.466821    50A     -0.453327

  @DF-RHF Final Energy:  -756.25357130033228

   => Energetics <=

    Nuclear Repulsion Energy =            875.3510365038758891
    One-Electron Energy =               -2778.7204552746302397
    Two-Electron Energy =                1147.1158474704220680
    Total Energy =                       -756.2535713003321689
  Basis Set: (AUG-CC-PVTZ AUX)
    Blend: AUG-CC-PVTZ-RI
    Molecular point group: c1

    Geometry (in Angstrom), charge = 0, multiplicity = 1:

       Center              X                  Y                   Z               Mass
    ------------   -----------------  -----------------  -----------------  -----------------
         O           -0.307868429554     0.067878412226    -1.416044050083    15.994914619570
         O            1.179103570446     1.731927412226     1.388944949917    15.994914619570
         O            0.898418570446     2.373745412226    -0.773868050083    15.994914619570
         O            2.291154570446    -2.421942587774    -0.008269050083    15.994914619570
         O           -3.466264429554     0.075849412226    -0.544632050083    15.994914619570
         O            2.628118570446    -0.234021587774    -0.481649050083    15.994914619570
         O           -2.444016429554    -1.606229587774     0.573558949917    15.994914619570
         C           -0.115594429554     0.311418412226    -0.032685050083    12.000000000000
         C            0.551037570446    -0.921057587774     0.563888949917    12.000000000000
         C           -1.478795429554     0.620266412226     0.625761949917    12.000000000000
         C            0.737334570446     1.564564412226     0.124097949917    12.000000000000
         C            1.915002570446    -1.121083587774    -0.039925050083    12.000000000000
         C           -2.484754429554    -0.433931587774     0.237239949917    12.000000000000
         H           -0.076788429554    -1.794781587774     0.381378949917     1.007825032230
         H            0.664719570446    -0.815990587774     1.648674949917     1.007825032230
         H           -1.828970429554     1.596834412226     0.280313949917     1.007825032230
         H           -1.380654429554     0.639017412226     1.715714949917     1.007825032230
         H           -0.048870429554     0.894461412226    -1.874038050083     1.007825032230
         H            1.689090570446     2.569266412226     1.390415949917     1.007825032230
         H            3.100619370446    -2.444563687774    -0.353353750083     1.007825032230
         H           -4.049184429554    -0.681445587774    -0.763714050083     1.007825032230

  Basis Set: AUG-CC-PVTZ
    Blend: AUG-CC-PVTZ
  Basis Set: (AUG-CC-PVTZ AUX)
    Blend: AUG-CC-PVTZ-JKFIT
	 Reference Energy          =    -756.2535713003322826 [Eh]
	 Singles Energy            =      -0.0000000000000000 [Eh]
	 Same-Spin Energy          =      -0.7292801526585313 [Eh]
	 Opposite-Spin Energy      =      -2.1587846090259082 [Eh]
	 Correlation Energy        =      -2.8880647616844395 [Eh]
	 Total Energy              =    -759.1416360620166870 [Eh]

	 ================> DF-SCS-MP2 Energies <==================
	-----------------------------------------------------------
	 SCS Same-Spin Scale       =       0.3333333333333333 [-]
	 SCS Opposite-Spin Scale   =       1.2000000000000000 [-]
	 SCS Same-Spin Energy      =      -0.2430933842195104 [Eh]
	 SCS Opposite-Spin Energy  =      -2.5905415308310897 [Eh]
	 SCS Correlation Energy    =      -2.8336349150506002 [Eh]
	 SCS Total Energy          =    -759.0872062153829347 [Eh]
	-----------------------------------------------------------

  Dipole Moment: [D]
     X:    -0.2835      Y:     0.7869      Z:     1.9032     Total:     2.0788

*** Psi4 exiting successfully. Buy a developer a beer!
