                               Psi4 1.4a3.dev225

  ==> Input File <==

--------------------------------------------------------------------------
#psi4
#
memory 32 gb

molecule  {
0 1
  O       -0.2992690     0.0680640    -1.4275900
  O        1.1877140     1.7322170     1.3773330
  O        0.9070830     2.3739170    -0.7855270
  O        2.2997080    -2.4217750    -0.0198700
  O       -3.4574230     0.0760400    -0.5564670
  O        2.6367000    -0.2338780    -0.4933410
  O       -2.4354340    -1.6059620     0.5620860
  C       -0.1069630     0.3116450    -0.0442490
  C        0.5596710    -0.9208170     0.5523550
  C       -1.4701590     0.6204980     0.6142450
  C        0.7459620     1.5647900     0.1124790
  C        1.9235890    -1.1209070    -0.0515450
  C       -2.4760910    -0.4336940     0.2256510
  H       -0.0681940    -1.7945300     0.3699280
  H        0.6734230    -0.8156830     1.6371260
  H       -1.8203340     1.5970830     0.2688470
  H       -1.3719830     0.6391850     1.7041930
  H       -0.0401320     0.8945830    -1.8856220
  H        1.6716972     2.5268501     1.3786948
  H        3.2011100    -2.4470060    -0.4042100
  H       -4.0402960    -0.6812640    -0.7756360
units angstrom
no_reorient  #important for SAPT in psi4, default
symmetry c1  #important for SAPT in psi4, default
}

set PROPERTIES_ORIGIN ["COM"]
properties('MP2/aug-cc-pvtz', properties = ['dipole'])
--------------------------------------------------------------------------

    Molecular point group: c1
  Charge       = 0
  Multiplicity = 1
  Basis Set: AUG-CC-PVTZ
    Blend: AUG-CC-PVTZ
  Basis Set: (AUG-CC-PVTZ AUX)
    Blend: AUG-CC-PVTZ-JKFIT

    Orbital Energies [Eh]
    ---------------------

    Doubly Occupied:

       1A    -20.635085     2A    -20.627175     3A    -20.625307
       4A    -20.578676     5A    -20.572397     6A    -20.562950
       7A    -20.561390     8A    -11.412557     9A    -11.406640
      10A    -11.402741    11A    -11.341117    12A    -11.273756
      13A    -11.262467    14A     -1.493361    15A     -1.472783
      16A     -1.470710    17A     -1.402099    18A     -1.374490
      19A     -1.369080    20A     -1.366996    21A     -1.118070
      22A     -1.039404    23A     -0.956585    24A     -0.857835
      25A     -0.830870    26A     -0.799050    27A     -0.761934
      28A     -0.731717    29A     -0.719332    30A     -0.716525
      31A     -0.706020    32A     -0.691565    33A     -0.669666
      34A     -0.654959    35A     -0.646605    36A     -0.639357
      37A     -0.623401    38A     -0.605159    39A     -0.595827
      40A     -0.580844    41A     -0.562637    42A     -0.559930
      43A     -0.547410    44A     -0.507281    45A     -0.495451
      46A     -0.491002    47A     -0.486542    48A     -0.472419
      49A     -0.465955    50A     -0.453090

  @DF-RHF Final Energy:  -756.25885321279338

   => Energetics <=

    Nuclear Repulsion Energy =            875.0172809740737421
    One-Electron Energy =               -2778.1558277305334741
    Two-Electron Energy =                1146.8796935436662352
    Total Energy =                       -756.2588532127933831
  Basis Set: (AUG-CC-PVTZ AUX)
    Blend: AUG-CC-PVTZ-RI
    Molecular point group: c1

    Geometry (in Angstrom), charge = 0, multiplicity = 1:

       Center              X                  Y                   Z               Mass
    ------------   -----------------  -----------------  -----------------  -----------------
         O           -0.308248739758     0.068091122043    -1.415775587016    15.994914619570
         O            1.178734260242     1.732244122043     1.389147412984    15.994914619570
         O            0.898103260242     2.373944122043    -0.773712587016    15.994914619570
         O            2.290728260242    -2.421747877957    -0.008055587016    15.994914619570
         O           -3.466402739758     0.076067122043    -0.544652587016    15.994914619570
         O            2.627720260242    -0.233850877957    -0.481526587016    15.994914619570
         O           -2.444413739758    -1.605934877957     0.573900412984    15.994914619570
         C           -0.115942739758     0.311672122043    -0.032434587016    12.000000000000
         C            0.550691260242    -0.920789877957     0.564169412984    12.000000000000
         C           -1.479138739758     0.620525122043     0.626059412984    12.000000000000
         C            0.736982260242     1.564817122043     0.124293412984    12.000000000000
         C            1.914609260242    -1.120879877957    -0.039730587016    12.000000000000
         C           -2.485070739758    -0.433666877957     0.237465412984    12.000000000000
         H           -0.077173739758    -1.794502877957     0.381742412984     1.007825032230
         H            0.664443260242    -0.815655877957     1.648940412984     1.007825032230
         H           -1.829313739758     1.597110122043     0.280661412984     1.007825032230
         H           -1.380962739758     0.639212122043     1.716007412984     1.007825032230
         H           -0.049111739758     0.894610122043    -1.873807587016     1.007825032230
         H            1.662717460242     2.526877222043     1.390509212984     1.007825032230
         H            3.192130260242    -2.446978877957    -0.392395587016     1.007825032230
         H           -4.049275739758    -0.681236877957    -0.763821587016     1.007825032230

  Basis Set: AUG-CC-PVTZ
    Blend: AUG-CC-PVTZ
  Basis Set: (AUG-CC-PVTZ AUX)
    Blend: AUG-CC-PVTZ-JKFIT
	 Reference Energy          =    -756.2588532127933831 [Eh]
	 Singles Energy            =      -0.0000000000000000 [Eh]
	 Same-Spin Energy          =      -0.7299045072079415 [Eh]
	 Opposite-Spin Energy      =      -2.1601402309204163 [Eh]
	 Correlation Energy        =      -2.8900447381283580 [Eh]
	 Total Energy              =    -759.1488979509217643 [Eh]

	 ================> DF-SCS-MP2 Energies <==================
	-----------------------------------------------------------
	 SCS Same-Spin Scale       =       0.3333333333333333 [-]
	 SCS Opposite-Spin Scale   =       1.2000000000000000 [-]
	 SCS Same-Spin Energy      =      -0.2433015024026472 [Eh]
	 SCS Opposite-Spin Energy  =      -2.5921682771044994 [Eh]
	 SCS Correlation Energy    =      -2.8354697795071466 [Eh]
	 SCS Total Energy          =    -759.0943229923004765 [Eh]
	-----------------------------------------------------------

  Dipole Moment: [D]
     X:    -0.2087      Y:     0.6805      Z:     1.8402     Total:     1.9731

*** Psi4 exiting successfully. Buy a developer a beer!
