                               Psi4 1.3.2 release

  ==> Input File <==

--------------------------------------------------------------------------
#psi4
#
memory 32 gb

molecule  {
0 1
  O       -0.2992330     0.0680890    -1.4276520
  O        1.1877390     1.7321380     1.3773370
  O        0.9070540     2.3739560    -0.7854760
  O        2.3805973    -2.3959466    -0.0616370
  O       -3.4576290     0.0760600    -0.5562400
  O        2.6367540    -0.2338110    -0.4932570
  O       -2.4353810    -1.6060190     0.5619510
  C       -0.1069590     0.3116290    -0.0442930
  C        0.5596730    -0.9208470     0.5522810
  C       -1.4701600     0.6204770     0.6141540
  C        0.7459700     1.5647750     0.1124900
  C        1.9236380    -1.1208730    -0.0515330
  C       -2.4761190    -0.4337210     0.2256320
  H       -0.0681530    -1.7945710     0.3697710
  H        0.6733550    -0.8157800     1.6370670
  H       -1.8203350     1.5970450     0.2687060
  H       -1.3720190     0.6392280     1.7041070
  H       -0.0402350     0.8946720    -1.8856460
  H        1.6977260     2.5694770     1.3788080
  H        3.2012140    -2.4469230    -0.4041650
  H       -4.0405490    -0.6812350    -0.7753220
units angstrom
no_reorient  #important for SAPT in psi4, default
symmetry c1  #important for SAPT in psi4, default
}

set PROPERTIES_ORIGIN ["COM"]
properties('MP2/aug-cc-pvtz', properties = ['dipole'])
--------------------------------------------------------------------------

    Molecular point group: c1
  Charge       = 0
  Multiplicity = 1
  Basis Set: AUG-CC-PVTZ
    Blend: AUG-CC-PVTZ
  Basis Set: (AUG-CC-PVTZ AUX)
    Blend: AUG-CC-PVTZ-JKFIT

    Orbital Energies [Eh]
    ---------------------

    Doubly Occupied:

       1A    -20.638762     2A    -20.627880     3A    -20.611458
       4A    -20.579454     5A    -20.571915     6A    -20.563810
       7A    -20.556827     8A    -11.412360     9A    -11.407490
      10A    -11.403017    11A    -11.343097    12A    -11.274905
      13A    -11.266726    14A     -1.486790    15A     -1.479749
      16A     -1.473481    17A     -1.400231    18A     -1.373314
      19A     -1.369845    20A     -1.367139    21A     -1.119298
      22A     -1.042364    23A     -0.956393    24A     -0.866556
      25A     -0.837913    26A     -0.800919    27A     -0.762202
      28A     -0.729341    29A     -0.719876    30A     -0.717633
      31A     -0.705223    32A     -0.692585    33A     -0.670990
      34A     -0.654537    35A     -0.645572    36A     -0.638461
      37A     -0.624477    38A     -0.603793    39A     -0.596618
      40A     -0.579377    41A     -0.565021    42A     -0.561904
      43A     -0.547602    44A     -0.506182    45A     -0.496104
      46A     -0.488101    47A     -0.486078    48A     -0.472839
      49A     -0.465399    50A     -0.453658

  @DF-RHF Final Energy:  -756.25463269357681

   => Energetics <=

    Nuclear Repulsion Energy =            874.6178084015379000
    One-Electron Energy =               -2777.3143554869534455
    Two-Electron Energy =                1146.4419143918389636
    Total Energy =                       -756.2546326935766956
  Basis Set: (AUG-CC-PVTZ AUX)
    Blend: AUG-CC-PVTZ-RI
    Molecular point group: c1

    Geometry (in Angstrom), charge = 0, multiplicity = 1:

       Center              X                  Y                   Z               Mass
    ------------   -----------------  -----------------  -----------------  -----------------
         O           -0.315081918434     0.065744101654    -1.412359892688    15.994914619570
         O            1.171890081566     1.729793101654     1.392629107312    15.994914619570
         O            0.891205081566     2.371611101654    -0.770183892688    15.994914619570
         O            2.364748381566    -2.398291498346    -0.046344892688    15.994914619570
         O           -3.473477918434     0.073715101654    -0.540947892688    15.994914619570
         O            2.620905081566    -0.236155898346    -0.477964892688    15.994914619570
         O           -2.451229918434    -1.608363898346     0.577243107312    15.994914619570
         C           -0.122807918434     0.309284101654    -0.029000892688    12.000000000000
         C            0.543824081566    -0.923191898346     0.567573107312    12.000000000000
         C           -1.486008918434     0.618132101654     0.629446107312    12.000000000000
         C            0.730121081566     1.562430101654     0.127782107312    12.000000000000
         C            1.907789081566    -1.123217898346    -0.036240892688    12.000000000000
         C           -2.491967918434    -0.436065898346     0.240924107312    12.000000000000
         H           -0.084001918434    -1.796915898346     0.385063107312     1.007825032230
         H            0.657506081566    -0.818124898346     1.652359107312     1.007825032230
         H           -1.836183918434     1.594700101654     0.283998107312     1.007825032230
         H           -1.387867918434     0.636883101654     1.719399107312     1.007825032230
         H           -0.056083918434     0.892327101654    -1.870353892688     1.007825032230
         H            1.681877081566     2.567132101654     1.394100107312     1.007825032230
         H            3.185365081566    -2.449267898346    -0.388872892688     1.007825032230
         H           -4.056397918434    -0.683579898346    -0.760029892688     1.007825032230

  Basis Set: AUG-CC-PVTZ
    Blend: AUG-CC-PVTZ
  Basis Set: (AUG-CC-PVTZ AUX)
    Blend: AUG-CC-PVTZ-JKFIT
	 Reference Energy          =    -756.2546326935768093 [Eh]
	 Singles Energy            =      -0.0000000000000000 [Eh]
	 Same-Spin Energy          =      -0.7289583218248405 [Eh]
	 Opposite-Spin Energy      =      -2.1582251254175682 [Eh]
	 Correlation Energy        =      -2.8871834472424087 [Eh]
	 Total Energy              =    -759.1418161408191736 [Eh]

	 ================> DF-SCS-MP2 Energies <==================
	-----------------------------------------------------------
	 SCS Same-Spin Scale       =       0.3333333333333333 [-]
	 SCS Opposite-Spin Scale   =       1.2000000000000000 [-]
	 SCS Same-Spin Energy      =      -0.2429861072749468 [Eh]
	 SCS Opposite-Spin Energy  =      -2.5898701505010817 [Eh]
	 SCS Correlation Energy    =      -2.8328562577760286 [Eh]
	 SCS Total Energy          =    -759.0874889513528387 [Eh]
	-----------------------------------------------------------

  Dipole Moment: [D]
     X:    -0.3607      Y:     0.8047      Z:     1.9238     Total:     2.1162

*** Psi4 exiting successfully. Buy a developer a beer!
