                               Psi4 1.3.2 release

  ==> Input File <==

--------------------------------------------------------------------------
#psi4
#
memory 32 gb

molecule  {
0 1
  O       -0.2992330     0.0680890    -1.4276520
  O        1.1877390     1.7321380     1.3773370
  O        0.9070540     2.3739560    -0.7854760
  O        2.3204459    -2.4157839    -0.0297173
  O       -3.4576290     0.0760600    -0.5562400
  O        2.6367540    -0.2338110    -0.4932570
  O       -2.4353810    -1.6060190     0.5619510
  C       -0.1069590     0.3116290    -0.0442930
  C        0.5596730    -0.9208470     0.5522810
  C       -1.4701600     0.6204770     0.6141540
  C        0.7459700     1.5647750     0.1124900
  C        1.9236380    -1.1208730    -0.0515330
  C       -2.4761190    -0.4337210     0.2256320
  H       -0.0681530    -1.7945710     0.3697710
  H        0.6733550    -0.8157800     1.6370670
  H       -1.8203350     1.5970450     0.2687060
  H       -1.3720190     0.6392280     1.7041070
  H       -0.0402350     0.8946720    -1.8856460
  H        1.6977260     2.5694770     1.3788080
  H        3.2012140    -2.4469230    -0.4041650
  H       -4.0405490    -0.6812350    -0.7753220
units angstrom
no_reorient  #important for SAPT in psi4, default
symmetry c1  #important for SAPT in psi4, default
}

set PROPERTIES_ORIGIN ["COM"]
properties('MP2/aug-cc-pvtz', properties = ['dipole'])
--------------------------------------------------------------------------

    Molecular point group: c1
  Charge       = 0
  Multiplicity = 1
  Basis Set: AUG-CC-PVTZ
    Blend: AUG-CC-PVTZ
  Basis Set: (AUG-CC-PVTZ AUX)
    Blend: AUG-CC-PVTZ-JKFIT

    Orbital Energies [Eh]
    ---------------------

    Doubly Occupied:

       1A    -20.638350     2A    -20.627181     3A    -20.621865
       4A    -20.578614     5A    -20.571496     6A    -20.562975
       7A    -20.559980     8A    -11.411712     9A    -11.406646
      10A    -11.402473    11A    -11.341384    12A    -11.273777
      13A    -11.263254    14A     -1.485882    15A     -1.472748
      16A     -1.472369    17A     -1.399387    18A     -1.372572
      19A     -1.369040    20A     -1.366539    21A     -1.117645
      22A     -1.039870    23A     -0.953626    24A     -0.855703
      25A     -0.832521    26A     -0.797006    27A     -0.760612
      28A     -0.728245    29A     -0.718817    30A     -0.716848
      31A     -0.705229    32A     -0.691537    33A     -0.669650
      34A     -0.653966    35A     -0.644837    36A     -0.638126
      37A     -0.623334    38A     -0.604426    39A     -0.595666
      40A     -0.580315    41A     -0.562934    42A     -0.560095
      43A     -0.546405    44A     -0.505960    45A     -0.495381
      46A     -0.489821    47A     -0.486090    48A     -0.472217
      49A     -0.465665    50A     -0.452915

  @DF-RHF Final Energy:  -756.25931939898169

   => Energetics <=

    Nuclear Repulsion Energy =            874.6224937438203142
    One-Electron Energy =               -2777.4362097442622144
    Two-Electron Energy =                1146.5543966014602120
    Total Energy =                       -756.2593193989816882
  Basis Set: (AUG-CC-PVTZ AUX)
    Blend: AUG-CC-PVTZ-RI
    Molecular point group: c1

    Geometry (in Angstrom), charge = 0, multiplicity = 1:

       Center              X                  Y                   Z               Mass
    ------------   -----------------  -----------------  -----------------  -----------------
         O           -0.310071599602     0.067396452185    -1.415018648328    15.994914619570
         O            1.176900400398     1.731445452185     1.389970351672    15.994914619570
         O            0.896215400398     2.373263452185    -0.772842648328    15.994914619570
         O            2.309607300398    -2.416476447815    -0.017083948328    15.994914619570
         O           -3.468467599602     0.075367452185    -0.543606648328    15.994914619570
         O            2.625915400398    -0.234503547815    -0.480623648328    15.994914619570
         O           -2.446219599602    -1.606711547815     0.574584351672    15.994914619570
         C           -0.117797599602     0.310936452185    -0.031659648328    12.000000000000
         C            0.548834400398    -0.921539547815     0.564914351672    12.000000000000
         C           -1.480998599602     0.619784452185     0.626787351672    12.000000000000
         C            0.735131400398     1.564082452185     0.125123351672    12.000000000000
         C            1.912799400398    -1.121565547815    -0.038899648328    12.000000000000
         C           -2.486957599602    -0.434413547815     0.238265351672    12.000000000000
         H           -0.078991599602    -1.795263547815     0.382404351672     1.007825032230
         H            0.662516400398    -0.816472547815     1.649700351672     1.007825032230
         H           -1.831173599602     1.596352452185     0.281339351672     1.007825032230
         H           -1.382857599602     0.638535452185     1.716740351672     1.007825032230
         H           -0.051073599602     0.893979452185    -1.873012648328     1.007825032230
         H            1.686887400398     2.568784452185     1.391441351672     1.007825032230
         H            3.190375400398    -2.447615547815    -0.391531648328     1.007825032230
         H           -4.051387599602    -0.681927547815    -0.762688648328     1.007825032230

  Basis Set: AUG-CC-PVTZ
    Blend: AUG-CC-PVTZ
  Basis Set: (AUG-CC-PVTZ AUX)
    Blend: AUG-CC-PVTZ-JKFIT
	 Reference Energy          =    -756.2593193989816882 [Eh]
	 Singles Energy            =      -0.0000000000000000 [Eh]
	 Same-Spin Energy          =      -0.7301209778350324 [Eh]
	 Opposite-Spin Energy      =      -2.1606776634193703 [Eh]
	 Correlation Energy        =      -2.8907986412544027 [Eh]
	 Total Energy              =    -759.1501180402360660 [Eh]

	 ================> DF-SCS-MP2 Energies <==================
	-----------------------------------------------------------
	 SCS Same-Spin Scale       =       0.3333333333333333 [-]
	 SCS Opposite-Spin Scale   =       1.2000000000000000 [-]
	 SCS Same-Spin Energy      =      -0.2433736592783441 [Eh]
	 SCS Opposite-Spin Energy  =      -2.5928131961032443 [Eh]
	 SCS Correlation Energy    =      -2.8361868553815883 [Eh]
	 SCS Total Energy          =    -759.0955062543632721 [Eh]
	-----------------------------------------------------------

  Dipole Moment: [D]
     X:    -0.2146      Y:     0.7541      Z:     1.8748     Total:     2.0322

*** Psi4 exiting successfully. Buy a developer a beer!
