                               Psi4 1.4a3.dev225

  ==> Input File <==

--------------------------------------------------------------------------
#psi4
#
memory 32 gb

molecule  {
0 1
  O       -0.2992690     0.0680640    -1.4275900
  O        1.1877140     1.7322170     1.3773330
  O        0.9070830     2.3739170    -0.7855270
  O        2.2997080    -2.4217750    -0.0198700
  O       -3.4574230     0.0760400    -0.5564670
  O        2.6367000    -0.2338780    -0.4933410
  O       -2.4354340    -1.6059620     0.5620860
  C       -0.1096759     0.3082088    -0.0637639
  C        0.5596710    -0.9208170     0.5523550
  C       -1.4701590     0.6204980     0.6142450
  C        0.7459620     1.5647900     0.1124790
  C        1.9235890    -1.1209070    -0.0515450
  C       -2.4760910    -0.4336940     0.2256510
  H       -0.0681940    -1.7945300     0.3699280
  H        0.6734230    -0.8156830     1.6371260
  H       -1.8203340     1.5970830     0.2688470
  H       -1.3719830     0.6391850     1.7041930
  H       -0.0401320     0.8945830    -1.8856220
  H        1.6977060     2.5695530     1.3787680
  H        3.2011100    -2.4470060    -0.4042100
  H       -4.0402960    -0.6812640    -0.7756360
units angstrom
no_reorient  #important for SAPT in psi4, default
symmetry c1  #important for SAPT in psi4, default
}

set PROPERTIES_ORIGIN ["COM"]
properties('MP2/aug-cc-pvtz', properties = ['dipole'])
--------------------------------------------------------------------------

    Molecular point group: c1
  Charge       = 0
  Multiplicity = 1
  Basis Set: AUG-CC-PVTZ
    Blend: AUG-CC-PVTZ
  Basis Set: (AUG-CC-PVTZ AUX)
    Blend: AUG-CC-PVTZ-JKFIT

    Orbital Energies [Eh]
    ---------------------

    Doubly Occupied:

       1A    -20.638209     2A    -20.626744     3A    -20.624796
       4A    -20.580635     5A    -20.570797     6A    -20.562411
       7A    -20.560913     8A    -11.410908     9A    -11.405840
      10A    -11.402010    11A    -11.341112    12A    -11.272636
      13A    -11.261537    14A     -1.485410    15A     -1.472283
      16A     -1.470011    17A     -1.405185    18A     -1.373694
      19A     -1.368628    20A     -1.366867    21A     -1.114757
      22A     -1.037980    23A     -0.950862    24A     -0.852857
      25A     -0.829616    26A     -0.797158    27A     -0.762333
      28A     -0.727595    29A     -0.718378    30A     -0.716013
      31A     -0.705182    32A     -0.690950    33A     -0.669891
      34A     -0.653439    35A     -0.645670    36A     -0.637514
      37A     -0.623348    38A     -0.605074    39A     -0.595606
      40A     -0.580867    41A     -0.565894    42A     -0.559146
      43A     -0.545027    44A     -0.505716    45A     -0.495207
      46A     -0.490225    47A     -0.484960    48A     -0.471232
      49A     -0.464745    50A     -0.451420

  @DF-RHF Final Energy:  -756.25836307395286

   => Energetics <=

    Nuclear Repulsion Energy =            874.7061165976946313
    One-Electron Energy =               -2777.6303804869075975
    Two-Electron Energy =                1146.6659008152601018
    Total Energy =                       -756.2583630739527507
  Basis Set: (AUG-CC-PVTZ AUX)
    Blend: AUG-CC-PVTZ-RI
    Molecular point group: c1

    Geometry (in Angstrom), charge = 0, multiplicity = 1:

       Center              X                  Y                   Z               Mass
    ------------   -----------------  -----------------  -----------------  -----------------
         O           -0.308215710652     0.068081734553    -1.414556461455    15.994914619570
         O            1.178767289348     1.732234734553     1.390366538545    15.994914619570
         O            0.898136289348     2.373934734553    -0.772493461455    15.994914619570
         O            2.290761289348    -2.421757265447    -0.006836461455    15.994914619570
         O           -3.466369710652     0.076057734553    -0.543433461455    15.994914619570
         O            2.627753289348    -0.233860265447    -0.480307461455    15.994914619570
         O           -2.444380710652    -1.605944265447     0.575119538545    15.994914619570
         C           -0.118622610652     0.308226534553    -0.050730361455    12.000000000000
         C            0.550724289348    -0.920799265447     0.565388538545    12.000000000000
         C           -1.479105710652     0.620515734553     0.627278538545    12.000000000000
         C            0.737015289348     1.564807734553     0.125512538545    12.000000000000
         C            1.914642289348    -1.120889265447    -0.038511461455    12.000000000000
         C           -2.485037710652    -0.433676265447     0.238684538545    12.000000000000
         H           -0.077140710652    -1.794512265447     0.382961538545     1.007825032230
         H            0.664476289348    -0.815665265447     1.650159538545     1.007825032230
         H           -1.829280710652     1.597100734553     0.281880538545     1.007825032230
         H           -1.380929710652     0.639202734553     1.717226538545     1.007825032230
         H           -0.049078710652     0.894600734553    -1.872588461455     1.007825032230
         H            1.688759289348     2.569570734553     1.391801538545     1.007825032230
         H            3.192163289348    -2.446988265447    -0.391176461455     1.007825032230
         H           -4.049242710652    -0.681246265447    -0.762602461455     1.007825032230

  Basis Set: AUG-CC-PVTZ
    Blend: AUG-CC-PVTZ
  Basis Set: (AUG-CC-PVTZ AUX)
    Blend: AUG-CC-PVTZ-JKFIT
	 Reference Energy          =    -756.2583630739528644 [Eh]
	 Singles Energy            =      -0.0000000000000000 [Eh]
	 Same-Spin Energy          =      -0.7304694451402174 [Eh]
	 Opposite-Spin Energy      =      -2.1611587399225747 [Eh]
	 Correlation Energy        =      -2.8916281850627921 [Eh]
	 Total Energy              =    -759.1499912590156782 [Eh]

	 ================> DF-SCS-MP2 Energies <==================
	-----------------------------------------------------------
	 SCS Same-Spin Scale       =       0.3333333333333333 [-]
	 SCS Opposite-Spin Scale   =       1.2000000000000000 [-]
	 SCS Same-Spin Energy      =      -0.2434898150467391 [Eh]
	 SCS Opposite-Spin Energy  =      -2.5933904879070897 [Eh]
	 SCS Correlation Energy    =      -2.8368803029538290 [Eh]
	 SCS Total Energy          =    -759.0952433769066374 [Eh]
	-----------------------------------------------------------

  Dipole Moment: [D]
     X:    -0.1658      Y:     0.7368      Z:     1.8063     Total:     1.9578

*** Psi4 exiting successfully. Buy a developer a beer!
