                               Psi4 1.3.2 release

  ==> Input File <==

--------------------------------------------------------------------------
#psi4
#
memory 32 gb

molecule  {
0 1
  O       -0.2992330     0.0680890    -1.4276520
  O        1.1877390     1.7321380     1.3773370
  O        0.9070540     2.3739560    -0.7854760
  O        2.2997900    -2.4217320    -0.0198770
  O       -3.4576290     0.0760600    -0.5562400
  O        2.6367540    -0.2338110    -0.4932570
  O       -2.4353810    -1.6060190     0.5619510
  C       -0.1069590     0.3116290    -0.0442930
  C        0.5596730    -0.9208470     0.5522810
  C       -1.4701600     0.6204770     0.6141540
  C        0.7459700     1.5647750     0.1124900
  C        1.8416742    -1.1470556    -0.0123538
  C       -2.4761190    -0.4337210     0.2256320
  H       -0.0681530    -1.7945710     0.3697710
  H        0.6733550    -0.8157800     1.6370670
  H       -1.8203350     1.5970450     0.2687060
  H       -1.3720190     0.6392280     1.7041070
  H       -0.0402350     0.8946720    -1.8856460
  H        1.6977260     2.5694770     1.3788080
  H        3.2012140    -2.4469230    -0.4041650
  H       -4.0405490    -0.6812350    -0.7753220
units angstrom
no_reorient  #important for SAPT in psi4, default
symmetry c1  #important for SAPT in psi4, default
}

set PROPERTIES_ORIGIN ["COM"]
properties('MP2/aug-cc-pvtz', properties = ['dipole'])
--------------------------------------------------------------------------

    Molecular point group: c1
  Charge       = 0
  Multiplicity = 1
  Basis Set: AUG-CC-PVTZ
    Blend: AUG-CC-PVTZ
  Basis Set: (AUG-CC-PVTZ AUX)
    Blend: AUG-CC-PVTZ-JKFIT

    Orbital Energies [Eh]
    ---------------------

    Doubly Occupied:

       1A    -20.637903     2A    -20.629071     3A    -20.627130
       4A    -20.580493     5A    -20.570900     6A    -20.565370
       7A    -20.549124     8A    -11.412261     9A    -11.410715
      10A    -11.408964    11A    -11.346016    12A    -11.276335
      13A    -11.265814    14A     -1.485189    15A     -1.474786
      16A     -1.458767    17A     -1.400623    18A     -1.372805
      19A     -1.370554    20A     -1.321241    21A     -1.127866
      22A     -1.057168    23A     -0.960909    24A     -0.858580
      25A     -0.834243    26A     -0.798975    27A     -0.762881
      28A     -0.729116    29A     -0.720880    30A     -0.715004
      31A     -0.700162    32A     -0.693018    33A     -0.672100
      34A     -0.654920    35A     -0.645320    36A     -0.638338
      37A     -0.624108    38A     -0.599936    39A     -0.595750
      40A     -0.570333    41A     -0.566097    42A     -0.563915
      43A     -0.548152    44A     -0.504891    45A     -0.497246
      46A     -0.487395    47A     -0.475703    48A     -0.462289
      49A     -0.460741    50A     -0.454513

  @DF-RHF Final Energy:  -756.23594712154136

   => Energetics <=

    Nuclear Repulsion Energy =            874.8442688799838152
    One-Electron Energy =               -2777.8712164291619047
    Two-Electron Energy =                1146.7910004276368454
    Total Energy =                       -756.2359471215413578
  Basis Set: (AUG-CC-PVTZ AUX)
    Blend: AUG-CC-PVTZ-RI
    Molecular point group: c1

    Geometry (in Angstrom), charge = 0, multiplicity = 1:

       Center              X                  Y                   Z               Mass
    ------------   -----------------  -----------------  -----------------  -----------------
         O           -0.303229046528     0.069528082352    -1.418286653087    15.994914619570
         O            1.183742953472     1.733577082352     1.386702346913    15.994914619570
         O            0.903057953472     2.375395082352    -0.776110653087    15.994914619570
         O            2.295793953472    -2.420292917648    -0.010511653087    15.994914619570
         O           -3.461625046528     0.077499082352    -0.546874653087    15.994914619570
         O            2.632757953472    -0.232371917648    -0.483891653087    15.994914619570
         O           -2.439377046528    -1.604579917648     0.571316346913    15.994914619570
         C           -0.110955046528     0.313068082352    -0.034927653087    12.000000000000
         C            0.555676953472    -0.919407917648     0.561646346913    12.000000000000
         C           -1.474156046528     0.621916082352     0.623519346913    12.000000000000
         C            0.741973953472     1.566214082352     0.121855346913    12.000000000000
         C            1.837678153472    -1.145616517648    -0.002988453087    12.000000000000
         C           -2.480115046528    -0.432281917648     0.234997346913    12.000000000000
         H           -0.072149046528    -1.793131917648     0.379136346913     1.007825032230
         H            0.669358953472    -0.814340917648     1.646432346913     1.007825032230
         H           -1.824331046528     1.598484082352     0.278071346913     1.007825032230
         H           -1.376015046528     0.640667082352     1.713472346913     1.007825032230
         H           -0.044231046528     0.896111082352    -1.876280653087     1.007825032230
         H            1.693729953472     2.570916082352     1.388173346913     1.007825032230
         H            3.197217953472    -2.445483917648    -0.394799653087     1.007825032230
         H           -4.044545046528    -0.679795917648    -0.765956653087     1.007825032230

  Basis Set: AUG-CC-PVTZ
    Blend: AUG-CC-PVTZ
  Basis Set: (AUG-CC-PVTZ AUX)
    Blend: AUG-CC-PVTZ-JKFIT
	 Reference Energy          =    -756.2359471215413578 [Eh]
	 Singles Energy            =      -0.0000000000000000 [Eh]
	 Same-Spin Energy          =      -0.7330163772750198 [Eh]
	 Opposite-Spin Energy      =      -2.1661419798324166 [Eh]
	 Correlation Energy        =      -2.8991583571074364 [Eh]
	 Total Energy              =    -759.1351054786488248 [Eh]

	 ================> DF-SCS-MP2 Energies <==================
	-----------------------------------------------------------
	 SCS Same-Spin Scale       =       0.3333333333333333 [-]
	 SCS Opposite-Spin Scale   =       1.2000000000000000 [-]
	 SCS Same-Spin Energy      =      -0.2443387924250066 [Eh]
	 SCS Opposite-Spin Energy  =      -2.5993703757989000 [Eh]
	 SCS Correlation Energy    =      -2.8437091682239064 [Eh]
	 SCS Total Energy          =    -759.0796562897652393 [Eh]
	-----------------------------------------------------------

  Dipole Moment: [D]
     X:    -0.5845      Y:     0.6065      Z:     2.0325     Total:     2.2001

*** Psi4 exiting successfully. Buy a developer a beer!
