                               Psi4 1.3.2 release

  ==> Input File <==

--------------------------------------------------------------------------
#psi4
#
memory 32 gb

molecule  {
0 1
  O       -0.2992690     0.0680640    -1.4275900
  O        1.1877140     1.7322170     1.3773330
  O        0.9070830     2.3739170    -0.7855270
  O        2.2997080    -2.4217750    -0.0198700
  O       -3.4574230     0.0760400    -0.5564670
  O        2.6367000    -0.2338780    -0.4933410
  O       -2.4354340    -1.6059620     0.5620860
  C       -0.1069630     0.3116450    -0.0442490
  C        0.5596710    -0.9208170     0.5523550
  C       -1.4701590     0.6204980     0.6142450
  C        0.7459620     1.5647900     0.1124790
  C        1.9235890    -1.1209070    -0.0515450
  C       -2.4760910    -0.4336940     0.2256510
  H       -0.0681940    -1.7945300     0.3699280
  H        0.6734230    -0.8156830     1.6371260
  H       -1.8203340     1.5970830     0.2688470
  H       -1.3719830     0.6391850     1.7041930
  H       -0.0269085     0.9367594    -1.9089949
  H        1.6977060     2.5695530     1.3787680
  H        3.2011100    -2.4470060    -0.4042100
  H       -4.0402960    -0.6812640    -0.7756360
units angstrom
no_reorient  #important for SAPT in psi4, default
symmetry c1  #important for SAPT in psi4, default
}

set PROPERTIES_ORIGIN ["COM"]
properties('MP2/aug-cc-pvtz', properties = ['dipole'])
--------------------------------------------------------------------------

    Molecular point group: c1
  Charge       = 0
  Multiplicity = 1
  Basis Set: AUG-CC-PVTZ
    Blend: AUG-CC-PVTZ
  Basis Set: (AUG-CC-PVTZ AUX)
    Blend: AUG-CC-PVTZ-JKFIT

    Orbital Energies [Eh]
    ---------------------

    Doubly Occupied:

       1A    -20.638472     2A    -20.626557     3A    -20.624803
       4A    -20.580254     5A    -20.572137     6A    -20.562276
       7A    -20.560771     8A    -11.411722     9A    -11.405960
      10A    -11.402147    11A    -11.339933    12A    -11.272913
      13A    -11.261709    14A     -1.485821    15A     -1.472081
      16A     -1.469982    17A     -1.393581    18A     -1.370468
      19A     -1.368285    20A     -1.364293    21A     -1.114444
      22A     -1.038580    23A     -0.952258    24A     -0.852045
      25A     -0.829857    26A     -0.792541    27A     -0.756279
      28A     -0.728336    29A     -0.718027    30A     -0.715879
      31A     -0.704123    32A     -0.690277    33A     -0.668622
      34A     -0.653677    35A     -0.641588    36A     -0.637854
      37A     -0.622176    38A     -0.603803    39A     -0.594627
      40A     -0.579948    41A     -0.561093    42A     -0.558127
      43A     -0.541607    44A     -0.506327    45A     -0.494464
      46A     -0.490301    47A     -0.486125    48A     -0.470637
      49A     -0.465229    50A     -0.452419

  @DF-RHF Final Energy:  -756.25304309194053

   => Energetics <=

    Nuclear Repulsion Energy =            874.3485228361527106
    One-Electron Energy =               -2776.9922579562226019
    Two-Electron Energy =                1146.3906920281292514
    Total Energy =                       -756.2530430919405262
  Basis Set: (AUG-CC-PVTZ AUX)
    Blend: AUG-CC-PVTZ-RI
    Molecular point group: c1

    Geometry (in Angstrom), charge = 0, multiplicity = 1:

       Center              X                  Y                   Z               Mass
    ------------   -----------------  -----------------  -----------------  -----------------
         O           -0.308454644623     0.067645645719    -1.415653302021    15.994914619570
         O            1.178528355377     1.731798645719     1.389269697979    15.994914619570
         O            0.897897355377     2.373498645719    -0.773590302021    15.994914619570
         O            2.290522355377    -2.422193354281    -0.007933302021    15.994914619570
         O           -3.466608644623     0.075621645719    -0.544530302021    15.994914619570
         O            2.627514355377    -0.234296354281    -0.481404302021    15.994914619570
         O           -2.444619644623    -1.606380354281     0.574022697979    15.994914619570
         C           -0.116148644623     0.311226645719    -0.032312302021    12.000000000000
         C            0.550485355377    -0.921235354281     0.564291697979    12.000000000000
         C           -1.479344644623     0.620079645719     0.626181697979    12.000000000000
         C            0.736776355377     1.564371645719     0.124415697979    12.000000000000
         C            1.914403355377    -1.121325354281    -0.039608302021    12.000000000000
         C           -2.485276644623    -0.434112354281     0.237587697979    12.000000000000
         H           -0.077379644623    -1.794948354281     0.381864697979     1.007825032230
         H            0.664237355377    -0.816101354281     1.649062697979     1.007825032230
         H           -1.829519644623     1.596664645719     0.280783697979     1.007825032230
         H           -1.381168644623     0.638766645719     1.716129697979     1.007825032230
         H           -0.036094144623     0.936341045719    -1.897058202021     1.007825032230
         H            1.688520355377     2.569134645719     1.390704697979     1.007825032230
         H            3.191924355377    -2.447424354281    -0.392273302021     1.007825032230
         H           -4.049481644623    -0.681682354281    -0.763699302021     1.007825032230

  Basis Set: AUG-CC-PVTZ
    Blend: AUG-CC-PVTZ
  Basis Set: (AUG-CC-PVTZ AUX)
    Blend: AUG-CC-PVTZ-JKFIT
	 Reference Energy          =    -756.2530430919405262 [Eh]
	 Singles Energy            =      -0.0000000000000000 [Eh]
	 Same-Spin Energy          =      -0.7312864419967673 [Eh]
	 Opposite-Spin Energy      =      -2.1631820623085130 [Eh]
	 Correlation Energy        =      -2.8944685043052800 [Eh]
	 Total Energy              =    -759.1475115962457494 [Eh]

	 ================> DF-SCS-MP2 Energies <==================
	-----------------------------------------------------------
	 SCS Same-Spin Scale       =       0.3333333333333333 [-]
	 SCS Opposite-Spin Scale   =       1.2000000000000000 [-]
	 SCS Same-Spin Energy      =      -0.2437621473322558 [Eh]
	 SCS Opposite-Spin Energy  =      -2.5958184747702155 [Eh]
	 SCS Correlation Energy    =      -2.8395806221024715 [Eh]
	 SCS Total Energy          =    -759.0926237140430430 [Eh]
	-----------------------------------------------------------

  Dipole Moment: [D]
     X:    -0.1374      Y:     0.8023      Z:     1.8356     Total:     2.0080

*** Psi4 exiting successfully. Buy a developer a beer!
