                               Psi4 1.3.2 release

  ==> Input File <==

--------------------------------------------------------------------------
#psi4
#
memory 32 gb

molecule  {
0 1
  O       -0.2992330     0.0680890    -1.4276520
  O        1.1877390     1.7321380     1.3773370
  O        0.9802709     2.4396120    -0.7041055
  O        2.2997900    -2.4217320    -0.0198770
  O       -3.4576290     0.0760600    -0.5562400
  O        2.6367540    -0.2338110    -0.4932570
  O       -2.4353810    -1.6060190     0.5619510
  C       -0.1069590     0.3116290    -0.0442930
  C        0.5596730    -0.9208470     0.5522810
  C       -1.4701600     0.6204770     0.6141540
  C        0.7459700     1.5647750     0.1124900
  C        1.9236380    -1.1208730    -0.0515330
  C       -2.4761190    -0.4337210     0.2256320
  H       -0.0681530    -1.7945710     0.3697710
  H        0.6733550    -0.8157800     1.6370670
  H       -1.8203350     1.5970450     0.2687060
  H       -1.3720190     0.6392280     1.7041070
  H       -0.0402350     0.8946720    -1.8856460
  H        1.6977260     2.5694770     1.3788080
  H        3.2012140    -2.4469230    -0.4041650
  H       -4.0405490    -0.6812350    -0.7753220
units angstrom
no_reorient  #important for SAPT in psi4, default
symmetry c1  #important for SAPT in psi4, default
}

set PROPERTIES_ORIGIN ["COM"]
properties('MP2/aug-cc-pvtz', properties = ['dipole'])
--------------------------------------------------------------------------

    Molecular point group: c1
  Charge       = 0
  Multiplicity = 1
  Basis Set: AUG-CC-PVTZ
    Blend: AUG-CC-PVTZ
  Basis Set: (AUG-CC-PVTZ AUX)
    Blend: AUG-CC-PVTZ-JKFIT

    Orbital Energies [Eh]
    ---------------------

    Doubly Occupied:

       1A    -20.628829     2A    -20.627030     3A    -20.626009
       4A    -20.584457     5A    -20.567955     6A    -20.564784
       7A    -20.561950     8A    -11.409402     9A    -11.408504
      10A    -11.403574    11A    -11.347081    12A    -11.276029
      13A    -11.264833    14A     -1.484495    15A     -1.474426
      16A     -1.471123    17A     -1.399291    18A     -1.371035
      19A     -1.368608    20A     -1.365219    21A     -1.120350
      22A     -1.041421    23A     -0.954879    24A     -0.853560
      25A     -0.832035    26A     -0.796388    27A     -0.758719
      28A     -0.725647    29A     -0.718691    30A     -0.717155
      31A     -0.705739    32A     -0.692515    33A     -0.671404
      34A     -0.653589    35A     -0.644052    36A     -0.637009
      37A     -0.623085    38A     -0.606393    39A     -0.596554
      40A     -0.581887    41A     -0.565000    42A     -0.562158
      43A     -0.548730    44A     -0.500867    45A     -0.497023
      46A     -0.490685    47A     -0.485309    48A     -0.474964
      49A     -0.466719    50A     -0.454550

  @DF-RHF Final Energy:  -756.25559447883199

   => Energetics <=

    Nuclear Repulsion Energy =            873.5901582186422729
    One-Electron Energy =               -2775.3280877563183822
    Two-Electron Energy =                1145.4823350588442281
    Total Energy =                       -756.2555944788318811
  Basis Set: (AUG-CC-PVTZ AUX)
    Blend: AUG-CC-PVTZ-RI
    Molecular point group: c1

    Geometry (in Angstrom), charge = 0, multiplicity = 1:

       Center              X                  Y                   Z               Mass
    ------------   -----------------  -----------------  -----------------  -----------------
         O           -0.314449675060     0.062423074745    -1.422616063997    15.994914619570
         O            1.172522324940     1.726472074745     1.382372936003    15.994914619570
         O            0.965054224940     2.433946074745    -0.699069563997    15.994914619570
         O            2.284573324940    -2.427397925255    -0.014841063997    15.994914619570
         O           -3.472845675060     0.070394074745    -0.551204063997    15.994914619570
         O            2.621537324940    -0.239476925255    -0.488221063997    15.994914619570
         O           -2.450597675060    -1.611684925255     0.566986936003    15.994914619570
         C           -0.122175675060     0.305963074745    -0.039257063997    12.000000000000
         C            0.544456324940    -0.926512925255     0.557316936003    12.000000000000
         C           -1.485376675060     0.614811074745     0.619189936003    12.000000000000
         C            0.730753324940     1.559109074745     0.117525936003    12.000000000000
         C            1.908421324940    -1.126538925255    -0.046497063997    12.000000000000
         C           -2.491335675060    -0.439386925255     0.230667936003    12.000000000000
         H           -0.083369675060    -1.800236925255     0.374806936003     1.007825032230
         H            0.658138324940    -0.821445925255     1.642102936003     1.007825032230
         H           -1.835551675060     1.591379074745     0.273741936003     1.007825032230
         H           -1.387235675060     0.633562074745     1.709142936003     1.007825032230
         H           -0.055451675060     0.889006074745    -1.880610063997     1.007825032230
         H            1.682509324940     2.563811074745     1.383843936003     1.007825032230
         H            3.185997324940    -2.452588925255    -0.399129063997     1.007825032230
         H           -4.055765675060    -0.686900925255    -0.770286063997     1.007825032230

  Basis Set: AUG-CC-PVTZ
    Blend: AUG-CC-PVTZ
  Basis Set: (AUG-CC-PVTZ AUX)
    Blend: AUG-CC-PVTZ-JKFIT
	 Reference Energy          =    -756.2555944788319948 [Eh]
	 Singles Energy            =      -0.0000000000000000 [Eh]
	 Same-Spin Energy          =      -0.7302451184197918 [Eh]
	 Opposite-Spin Energy      =      -2.1613000749632167 [Eh]
	 Correlation Energy        =      -2.8915451933830085 [Eh]
	 Total Energy              =    -759.1471396722149620 [Eh]

	 ================> DF-SCS-MP2 Energies <==================
	-----------------------------------------------------------
	 SCS Same-Spin Scale       =       0.3333333333333333 [-]
	 SCS Opposite-Spin Scale   =       1.2000000000000000 [-]
	 SCS Same-Spin Energy      =      -0.2434150394732639 [Eh]
	 SCS Opposite-Spin Energy  =      -2.5935600899558602 [Eh]
	 SCS Correlation Energy    =      -2.8369751294291241 [Eh]
	 SCS Total Energy          =    -759.0925696082611012 [Eh]
	-----------------------------------------------------------

  Dipole Moment: [D]
     X:    -0.4025      Y:     0.4565      Z:     1.6641     Total:     1.7719

*** Psi4 exiting successfully. Buy a developer a beer!
