                               Psi4 1.4a3.dev225

  ==> Input File <==

--------------------------------------------------------------------------
#psi4
#
memory 32 gb

molecule  {
0 1
  O       -0.2992690     0.0680640    -1.4275900
  O        1.1877140     1.7322170     1.3773330
  O        0.9070830     2.3739170    -0.7855270
  O        2.2997080    -2.4217750    -0.0198700
  O       -3.4574230     0.0760400    -0.5564670
  O        2.6367000    -0.2338780    -0.4933410
  O       -2.4354340    -1.6059620     0.5620860
  C       -0.1042501     0.3150812    -0.0247341
  C        0.5596710    -0.9208170     0.5523550
  C       -1.4701590     0.6204980     0.6142450
  C        0.7459620     1.5647900     0.1124790
  C        1.9235890    -1.1209070    -0.0515450
  C       -2.4760910    -0.4336940     0.2256510
  H       -0.0681940    -1.7945300     0.3699280
  H        0.6734230    -0.8156830     1.6371260
  H       -1.8203340     1.5970830     0.2688470
  H       -1.3719830     0.6391850     1.7041930
  H       -0.0401320     0.8945830    -1.8856220
  H        1.6977060     2.5695530     1.3787680
  H        3.2011100    -2.4470060    -0.4042100
  H       -4.0402960    -0.6812640    -0.7756360
units angstrom
no_reorient  #important for SAPT in psi4, default
symmetry c1  #important for SAPT in psi4, default
}

set PROPERTIES_ORIGIN ["COM"]
properties('MP2/aug-cc-pvtz', properties = ['dipole'])
--------------------------------------------------------------------------

    Molecular point group: c1
  Charge       = 0
  Multiplicity = 1
  Basis Set: AUG-CC-PVTZ
    Blend: AUG-CC-PVTZ
  Basis Set: (AUG-CC-PVTZ AUX)
    Blend: AUG-CC-PVTZ-JKFIT

    Orbital Energies [Eh]
    ---------------------

    Doubly Occupied:

       1A    -20.638234     2A    -20.627149     3A    -20.625303
       4A    -20.576052     5A    -20.571941     6A    -20.562974
       7A    -20.561195     8A    -11.412105     9A    -11.406883
      10A    -11.402841    11A    -11.340662    12A    -11.274159
      13A    -11.262720    14A     -1.486013    15A     -1.472695
      16A     -1.470443    17A     -1.394388    18A     -1.370999
      19A     -1.368876    20A     -1.365201    21A     -1.119416
      22A     -1.040141    23A     -0.954764    24A     -0.853945
      25A     -0.831156    26A     -0.794131    27A     -0.757900
      28A     -0.728564    29A     -0.718626    30A     -0.716383
      31A     -0.705127    32A     -0.691342    33A     -0.668749
      34A     -0.654313    35A     -0.643375    36A     -0.638421
      37A     -0.622514    38A     -0.604178    39A     -0.595239
      40A     -0.580200    41A     -0.561498    42A     -0.556702
      43A     -0.546546    44A     -0.506112    45A     -0.495031
      46A     -0.490924    47A     -0.486764    48A     -0.472710
      49A     -0.466292    50A     -0.453734

  @DF-RHF Final Energy:  -756.25700959816834

   => Energetics <=

    Nuclear Repulsion Energy =            874.5997862382039330
    One-Electron Energy =               -2777.4223318035733428
    Two-Electron Energy =                1146.5655359672011855
    Total Energy =                       -756.2570095981682243
  Basis Set: (AUG-CC-PVTZ AUX)
    Blend: AUG-CC-PVTZ-RI
    Molecular point group: c1

    Geometry (in Angstrom), charge = 0, multiplicity = 1:

       Center              X                  Y                   Z               Mass
    ------------   -----------------  -----------------  -----------------  -----------------
         O           -0.308554775466     0.067652269952    -1.416995480935    15.994914619570
         O            1.178428224534     1.731805269952     1.387927519065    15.994914619570
         O            0.897797224534     2.373505269952    -0.774932480935    15.994914619570
         O            2.290422224534    -2.422186730048    -0.009275480935    15.994914619570
         O           -3.466708775466     0.075628269952    -0.545872480935    15.994914619570
         O            2.627414224534    -0.234289730048    -0.482746480935    15.994914619570
         O           -2.444719775466    -1.606373730048     0.572680519065    15.994914619570
         C           -0.113535875466     0.314669469952    -0.014139580935    12.000000000000
         C            0.550385224534    -0.921228730048     0.562949519065    12.000000000000
         C           -1.479444775466     0.620086269952     0.624839519065    12.000000000000
         C            0.736676224534     1.564378269952     0.123073519065    12.000000000000
         C            1.914303224534    -1.121318730048    -0.040950480935    12.000000000000
         C           -2.485376775466    -0.434105730048     0.236245519065    12.000000000000
         H           -0.077479775466    -1.794941730048     0.380522519065     1.007825032230
         H            0.664137224534    -0.816094730048     1.647720519065     1.007825032230
         H           -1.829619775466     1.596671269952     0.279441519065     1.007825032230
         H           -1.381268775466     0.638773269952     1.714787519065     1.007825032230
         H           -0.049417775466     0.894171269952    -1.875027480935     1.007825032230
         H            1.688420224534     2.569141269952     1.389362519065     1.007825032230
         H            3.191824224534    -2.447417730048    -0.393615480935     1.007825032230
         H           -4.049581775466    -0.681675730048    -0.765041480935     1.007825032230

  Basis Set: AUG-CC-PVTZ
    Blend: AUG-CC-PVTZ
  Basis Set: (AUG-CC-PVTZ AUX)
    Blend: AUG-CC-PVTZ-JKFIT
	 Reference Energy          =    -756.2570095981683380 [Eh]
	 Singles Energy            =      -0.0000000000000000 [Eh]
	 Same-Spin Energy          =      -0.7306687404748784 [Eh]
	 Opposite-Spin Energy      =      -2.1621096429146469 [Eh]
	 Correlation Energy        =      -2.8927783833895253 [Eh]
	 Total Energy              =    -759.1497879815578926 [Eh]

	 ================> DF-SCS-MP2 Energies <==================
	-----------------------------------------------------------
	 SCS Same-Spin Scale       =       0.3333333333333333 [-]
	 SCS Opposite-Spin Scale   =       1.2000000000000000 [-]
	 SCS Same-Spin Energy      =      -0.2435562468249595 [Eh]
	 SCS Opposite-Spin Energy  =      -2.5945315714975763 [Eh]
	 SCS Correlation Energy    =      -2.8380878183225358 [Eh]
	 SCS Total Energy          =    -759.0950974164908303 [Eh]
	-----------------------------------------------------------

  Dipole Moment: [D]
     X:    -0.1692      Y:     0.7406      Z:     1.9123     Total:     2.0577

*** Psi4 exiting successfully. Buy a developer a beer!
