                               Psi4 1.3.2 release

  ==> Input File <==

--------------------------------------------------------------------------
#psi4
#
memory 32 gb

molecule  {
0 1
  O       -0.2992330     0.0680890    -1.4276520
  O        1.1877390     1.7321380     1.3773370
  O        0.9070540     2.3739560    -0.7854760
  O        2.3201792    -2.4158754    -0.0303105
  O       -3.4576290     0.0760600    -0.5562400
  O        2.6367540    -0.2338110    -0.4932570
  O       -2.4353810    -1.6060190     0.5619510
  C       -0.1069590     0.3116290    -0.0442930
  C        0.5596730    -0.9208470     0.5522810
  C       -1.4701600     0.6204770     0.6141540
  C        0.7459700     1.5647750     0.1124900
  C        1.9236380    -1.1208730    -0.0515330
  C       -2.4761190    -0.4337210     0.2256320
  H       -0.0681530    -1.7945710     0.3697710
  H        0.6733550    -0.8157800     1.6370670
  H       -1.8203350     1.5970450     0.2687060
  H       -1.3720190     0.6392280     1.7041070
  H       -0.0402350     0.8946720    -1.8856460
  H        1.6977260     2.5694770     1.3788080
  H        3.2012140    -2.4469230    -0.4041650
  H       -4.0405490    -0.6812350    -0.7753220
units angstrom
no_reorient  #important for SAPT in psi4, default
symmetry c1  #important for SAPT in psi4, default
}

set PROPERTIES_ORIGIN ["COM"]
properties('MP2/aug-cc-pvtz', properties = ['dipole'])
--------------------------------------------------------------------------

    Molecular point group: c1
  Charge       = 0
  Multiplicity = 1
  Basis Set: AUG-CC-PVTZ
    Blend: AUG-CC-PVTZ
  Basis Set: (AUG-CC-PVTZ AUX)
    Blend: AUG-CC-PVTZ-JKFIT

    Orbital Energies [Eh]
    ---------------------

    Doubly Occupied:

       1A    -20.638350     2A    -20.627180     3A    -20.621867
       4A    -20.578613     5A    -20.571496     6A    -20.562974
       7A    -20.559980     8A    -11.411712     9A    -11.406646
      10A    -11.402473    11A    -11.341385    12A    -11.273777
      13A    -11.263253    14A     -1.485882    15A     -1.472747
      16A     -1.472368    17A     -1.399386    18A     -1.372572
      19A     -1.369039    20A     -1.366538    21A     -1.117644
      22A     -1.039869    23A     -0.953625    24A     -0.855700
      25A     -0.832520    26A     -0.797008    27A     -0.760613
      28A     -0.728245    29A     -0.718816    30A     -0.716846
      31A     -0.705231    32A     -0.691536    33A     -0.669656
      34A     -0.653952    35A     -0.644842    36A     -0.638120
      37A     -0.623331    38A     -0.604432    39A     -0.595669
      40A     -0.580302    41A     -0.562942    42A     -0.560094
      43A     -0.546403    44A     -0.505960    45A     -0.495380
      46A     -0.489821    47A     -0.486089    48A     -0.472216
      49A     -0.465665    50A     -0.452915

  @DF-RHF Final Energy:  -756.25931868852706

   => Energetics <=

    Nuclear Repulsion Energy =            874.6238674751787130
    One-Electron Energy =               -2777.4390096135862223
    Two-Electron Energy =                1146.5558234498803358
    Total Energy =                       -756.2593186885271734
  Basis Set: (AUG-CC-PVTZ AUX)
    Blend: AUG-CC-PVTZ-RI
    Molecular point group: c1

    Geometry (in Angstrom), charge = 0, multiplicity = 1:

       Center              X                  Y                   Z               Mass
    ------------   -----------------  -----------------  -----------------  -----------------
         O           -0.310049384791     0.067404073690    -1.414969237656    15.994914619570
         O            1.176922615209     1.731453073690     1.390019762344    15.994914619570
         O            0.896237615209     2.373271073690    -0.772793237656    15.994914619570
         O            2.309362815209    -2.416560326310    -0.017627737656    15.994914619570
         O           -3.468445384791     0.075375073690    -0.543557237656    15.994914619570
         O            2.625937615209    -0.234495926310    -0.480574237656    15.994914619570
         O           -2.446197384791    -1.606703926310     0.574633762344    15.994914619570
         C           -0.117775384791     0.310944073690    -0.031610237656    12.000000000000
         C            0.548856615209    -0.921531926310     0.564963762344    12.000000000000
         C           -1.480976384791     0.619792073690     0.626836762344    12.000000000000
         C            0.735153615209     1.564090073690     0.125172762344    12.000000000000
         C            1.912821615209    -1.121557926310    -0.038850237656    12.000000000000
         C           -2.486935384791    -0.434405926310     0.238314762344    12.000000000000
         H           -0.078969384791    -1.795255926310     0.382453762344     1.007825032230
         H            0.662538615209    -0.816464926310     1.649749762344     1.007825032230
         H           -1.831151384791     1.596360073690     0.281388762344     1.007825032230
         H           -1.382835384791     0.638543073690     1.716789762344     1.007825032230
         H           -0.051051384791     0.893987073690    -1.872963237656     1.007825032230
         H            1.686909615209     2.568792073690     1.391490762344     1.007825032230
         H            3.190397615209    -2.447607926310    -0.391482237656     1.007825032230
         H           -4.051365384791    -0.681919926310    -0.762639237656     1.007825032230

  Basis Set: AUG-CC-PVTZ
    Blend: AUG-CC-PVTZ
  Basis Set: (AUG-CC-PVTZ AUX)
    Blend: AUG-CC-PVTZ-JKFIT
	 Reference Energy          =    -756.2593186885270597 [Eh]
	 Singles Energy            =      -0.0000000000000000 [Eh]
	 Same-Spin Energy          =      -0.7301214079789753 [Eh]
	 Opposite-Spin Energy      =      -2.1606785617159550 [Eh]
	 Correlation Energy        =      -2.8907999696949300 [Eh]
	 Total Energy              =    -759.1501186582220271 [Eh]

	 ================> DF-SCS-MP2 Energies <==================
	-----------------------------------------------------------
	 SCS Same-Spin Scale       =       0.3333333333333333 [-]
	 SCS Opposite-Spin Scale   =       1.2000000000000000 [-]
	 SCS Same-Spin Energy      =      -0.2433738026596584 [Eh]
	 SCS Opposite-Spin Energy  =      -2.5928142740591458 [Eh]
	 SCS Correlation Energy    =      -2.8361880767188041 [Eh]
	 SCS Total Energy          =    -759.0955067652458865 [Eh]
	-----------------------------------------------------------

  Dipole Moment: [D]
     X:    -0.2142      Y:     0.7542      Z:     1.8758     Total:     2.0331

*** Psi4 exiting successfully. Buy a developer a beer!
