                               Psi4 1.3.2 release

  ==> Input File <==

--------------------------------------------------------------------------
#psi4
#
memory 32 gb

molecule  {
0 1
  O       -0.2992330     0.0680890    -1.4276520
  O        1.1877390     1.7321380     1.3773370
  O        0.9070540     2.3739560    -0.7854760
  O        2.2997900    -2.4217320    -0.0198770
  O       -3.4576290     0.0760600    -0.5562400
  O        2.6367540    -0.2338110    -0.4932570
  O       -2.4353810    -1.6060190     0.5619510
  C       -0.1545147     0.1729634    -0.0212306
  C        0.5596730    -0.9208470     0.5522810
  C       -1.4701600     0.6204770     0.6141540
  C        0.7459700     1.5647750     0.1124900
  C        1.9236380    -1.1208730    -0.0515330
  C       -2.4761190    -0.4337210     0.2256320
  H       -0.0681530    -1.7945710     0.3697710
  H        0.6733550    -0.8157800     1.6370670
  H       -1.8203350     1.5970450     0.2687060
  H       -1.3720190     0.6392280     1.7041070
  H       -0.0402350     0.8946720    -1.8856460
  H        1.6977260     2.5694770     1.3788080
  H        3.2012140    -2.4469230    -0.4041650
  H       -4.0405490    -0.6812350    -0.7753220
units angstrom
no_reorient  #important for SAPT in psi4, default
symmetry c1  #important for SAPT in psi4, default
}

set PROPERTIES_ORIGIN ["COM"]
properties('MP2/aug-cc-pvtz', properties = ['dipole'])
--------------------------------------------------------------------------

    Molecular point group: c1
  Charge       = 0
  Multiplicity = 1
  Basis Set: AUG-CC-PVTZ
    Blend: AUG-CC-PVTZ
  Basis Set: (AUG-CC-PVTZ AUX)
    Blend: AUG-CC-PVTZ-JKFIT

    Orbital Energies [Eh]
    ---------------------

    Doubly Occupied:

       1A    -20.633848     2A    -20.627314     3A    -20.626841
       4A    -20.573682     5A    -20.568481     6A    -20.563106
       7A    -20.562930     8A    -11.406956     9A    -11.405829
      10A    -11.405529    11A    -11.346510    12A    -11.274192
      13A    -11.260291    14A     -1.479260    15A     -1.472777
      16A     -1.471712    17A     -1.393423    18A     -1.370705
      19A     -1.369534    20A     -1.365981    21A     -1.128974
      22A     -1.048924    23A     -0.928640    24A     -0.857952
      25A     -0.832074    26A     -0.795943    27A     -0.753176
      28A     -0.726334    29A     -0.718497    30A     -0.717432
      31A     -0.707038    32A     -0.688792    33A     -0.677772
      34A     -0.653059    35A     -0.648275    36A     -0.635546
      37A     -0.622605    38A     -0.608276    39A     -0.594450
      40A     -0.584643    41A     -0.568179    42A     -0.564044
      43A     -0.529511    44A     -0.505523    45A     -0.496942
      46A     -0.492726    47A     -0.483241    48A     -0.475044
      49A     -0.466374    50A     -0.432287

  @DF-RHF Final Energy:  -756.23542338694074

   => Energetics <=

    Nuclear Repulsion Energy =            874.5418902374093477
    One-Electron Energy =               -2777.3122762907905781
    Two-Electron Energy =                1146.5349626664403786
    Total Energy =                       -756.2354233869407381
  Basis Set: (AUG-CC-PVTZ AUX)
    Blend: AUG-CC-PVTZ-RI
    Molecular point group: c1

    Geometry (in Angstrom), charge = 0, multiplicity = 1:

       Center              X                  Y                   Z               Mass
    ------------   -----------------  -----------------  -----------------  -----------------
         O           -0.305379250377     0.076557281276    -1.417279494732    15.994914619570
         O            1.181592749623     1.740606281276     1.387709505268    15.994914619570
         O            0.900907749623     2.382424281276    -0.775103494732    15.994914619570
         O            2.293643749623    -2.413263718724    -0.009504494732    15.994914619570
         O           -3.463775250377     0.084528281276    -0.545867494732    15.994914619570
         O            2.630607749623    -0.225342718724    -0.482884494732    15.994914619570
         O           -2.441527250377    -1.597550718724     0.572323505268    15.994914619570
         C           -0.160660950377     0.181431681276    -0.010858094732    12.000000000000
         C            0.553526749623    -0.912378718724     0.562653505268    12.000000000000
         C           -1.476306250377     0.628945281276     0.624526505268    12.000000000000
         C            0.739823749623     1.573243281276     0.122862505268    12.000000000000
         C            1.917491749623    -1.112404718724    -0.041160494732    12.000000000000
         C           -2.482265250377    -0.425252718724     0.236004505268    12.000000000000
         H           -0.074299250377    -1.786102718724     0.380143505268     1.007825032230
         H            0.667208749623    -0.807311718724     1.647439505268     1.007825032230
         H           -1.826481250377     1.605513281276     0.279078505268     1.007825032230
         H           -1.378165250377     0.647696281276     1.714479505268     1.007825032230
         H           -0.046381250377     0.903140281276    -1.875273494732     1.007825032230
         H            1.691579749623     2.577945281276     1.389180505268     1.007825032230
         H            3.195067749623    -2.438454718724    -0.393792494732     1.007825032230
         H           -4.046695250377    -0.672766718724    -0.764949494732     1.007825032230

  Basis Set: AUG-CC-PVTZ
    Blend: AUG-CC-PVTZ
  Basis Set: (AUG-CC-PVTZ AUX)
    Blend: AUG-CC-PVTZ-JKFIT
	 Reference Energy          =    -756.2354233869407381 [Eh]
	 Singles Energy            =      -0.0000000000000000 [Eh]
	 Same-Spin Energy          =      -0.7319064196507561 [Eh]
	 Opposite-Spin Energy      =      -2.1634759377651411 [Eh]
	 Correlation Energy        =      -2.8953823574158974 [Eh]
	 Total Energy              =    -759.1308057443566213 [Eh]

	 ================> DF-SCS-MP2 Energies <==================
	-----------------------------------------------------------
	 SCS Same-Spin Scale       =       0.3333333333333333 [-]
	 SCS Opposite-Spin Scale   =       1.2000000000000000 [-]
	 SCS Same-Spin Energy      =      -0.2439688065502520 [Eh]
	 SCS Opposite-Spin Energy  =      -2.5961711253181692 [Eh]
	 SCS Correlation Energy    =      -2.8401399318684213 [Eh]
	 SCS Total Energy          =    -759.0755633188091451 [Eh]
	-----------------------------------------------------------

  Dipole Moment: [D]
     X:    -0.1042      Y:     0.6446      Z:     1.9376     Total:     2.0447

*** Psi4 exiting successfully. Buy a developer a beer!
