                               Psi4 1.4a3.dev225

  ==> Input File <==

--------------------------------------------------------------------------
#psi4
#
memory 32 gb

molecule  {
0 1
  O       -0.2992690     0.0680640    -1.4275900
  O        1.1877140     1.7322170     1.3773330
  O        0.9070830     2.3739170    -0.7855270
  O        2.2997080    -2.4217750    -0.0198700
  O       -3.4574230     0.0760400    -0.5564670
  O        2.6367000    -0.2338780    -0.4933410
  O       -2.4354340    -1.6059620     0.5620860
  C       -0.1069630     0.3116450    -0.0442490
  C        0.5596710    -0.9208170     0.5523550
  C       -1.4701590     0.6204980     0.6142450
  C        0.7296032     1.5585899     0.0656394
  C        1.9235890    -1.1209070    -0.0515450
  C       -2.4760910    -0.4336940     0.2256510
  H       -0.0681940    -1.7945300     0.3699280
  H        0.6734230    -0.8156830     1.6371260
  H       -1.8203340     1.5970830     0.2688470
  H       -1.3719830     0.6391850     1.7041930
  H       -0.0401320     0.8945830    -1.8856220
  H        1.6977060     2.5695530     1.3787680
  H        3.2011100    -2.4470060    -0.4042100
  H       -4.0402960    -0.6812640    -0.7756360
units angstrom
no_reorient  #important for SAPT in psi4, default
symmetry c1  #important for SAPT in psi4, default
}

set PROPERTIES_ORIGIN ["COM"]
properties('MP2/aug-cc-pvtz', properties = ['dipole'])
--------------------------------------------------------------------------

    Molecular point group: c1
  Charge       = 0
  Multiplicity = 1
  Basis Set: AUG-CC-PVTZ
    Blend: AUG-CC-PVTZ
  Basis Set: (AUG-CC-PVTZ AUX)
    Blend: AUG-CC-PVTZ-JKFIT

    Orbital Energies [Eh]
    ---------------------

    Doubly Occupied:

       1A    -20.627825     2A    -20.625292     3A    -20.623664
       4A    -20.580038     5A    -20.579683     6A    -20.563596
       7A    -20.561274     8A    -11.410328     9A    -11.407337
      10A    -11.402764    11A    -11.341810    12A    -11.274662
      13A    -11.263182    14A     -1.480064    15A     -1.473220
      16A     -1.470023    17A     -1.396670    18A     -1.378058
      19A     -1.369759    20A     -1.367037    21A     -1.118623
      22A     -1.039931    23A     -0.954589    24A     -0.849253
      25A     -0.830754    26A     -0.791795    27A     -0.756441
      28A     -0.727084    29A     -0.718999    30A     -0.716503
      31A     -0.705377    32A     -0.692607    33A     -0.670356
      34A     -0.651658    35A     -0.643436    36A     -0.634974
      37A     -0.623645    38A     -0.604298    39A     -0.594923
      40A     -0.581123    41A     -0.562946    42A     -0.560396
      43A     -0.550623    44A     -0.511677    45A     -0.496384
      46A     -0.491067    47A     -0.488135    48A     -0.473426
      49A     -0.467029    50A     -0.454587

  @DF-RHF Final Energy:  -756.25579993856479

   => Energetics <=

    Nuclear Repulsion Energy =            874.8879798095952083
    One-Electron Energy =               -2777.9697128613715904
    Two-Electron Energy =                1146.8259331132117040
    Total Energy =                       -756.2557999385646781
  Basis Set: (AUG-CC-PVTZ AUX)
    Blend: AUG-CC-PVTZ-RI
    Molecular point group: c1

    Geometry (in Angstrom), charge = 0, multiplicity = 1:

       Center              X                  Y                   Z               Mass
    ------------   -----------------  -----------------  -----------------  -----------------
         O           -0.307362961831     0.068254454012    -1.412848907853    15.994914619570
         O            1.179620038169     1.732407454012     1.392074092147    15.994914619570
         O            0.898989038169     2.374107454012    -0.770785907853    15.994914619570
         O            2.291614038169    -2.421584545988    -0.005128907853    15.994914619570
         O           -3.465516961831     0.076230454012    -0.541725907853    15.994914619570
         O            2.628606038169    -0.233687545988    -0.478599907853    15.994914619570
         O           -2.443527961831    -1.605771545988     0.576827092147    15.994914619570
         C           -0.115056961831     0.311835454012    -0.029507907853    12.000000000000
         C            0.551577038169    -0.920626545988     0.567096092147    12.000000000000
         C           -1.478252961831     0.620688454012     0.628986092147    12.000000000000
         C            0.721509238169     1.558780354012     0.080380492147    12.000000000000
         C            1.915495038169    -1.120716545988    -0.036803907853    12.000000000000
         C           -2.484184961831    -0.433503545988     0.240392092147    12.000000000000
         H           -0.076287961831    -1.794339545988     0.384669092147     1.007825032230
         H            0.665329038169    -0.815492545988     1.651867092147     1.007825032230
         H           -1.828427961831     1.597273454012     0.283588092147     1.007825032230
         H           -1.380076961831     0.639375454012     1.718934092147     1.007825032230
         H           -0.048225961831     0.894773454012    -1.870880907853     1.007825032230
         H            1.689612038169     2.569743454012     1.393509092147     1.007825032230
         H            3.193016038169    -2.446815545988    -0.389468907853     1.007825032230
         H           -4.048389961831    -0.681073545988    -0.760894907853     1.007825032230

  Basis Set: AUG-CC-PVTZ
    Blend: AUG-CC-PVTZ
  Basis Set: (AUG-CC-PVTZ AUX)
    Blend: AUG-CC-PVTZ-JKFIT
	 Reference Energy          =    -756.2557999385647918 [Eh]
	 Singles Energy            =      -0.0000000000000000 [Eh]
	 Same-Spin Energy          =      -0.7303244845052305 [Eh]
	 Opposite-Spin Energy      =      -2.1616639457260431 [Eh]
	 Correlation Energy        =      -2.8919884302312737 [Eh]
	 Total Energy              =    -759.1477883687961139 [Eh]

	 ================> DF-SCS-MP2 Energies <==================
	-----------------------------------------------------------
	 SCS Same-Spin Scale       =       0.3333333333333333 [-]
	 SCS Opposite-Spin Scale   =       1.2000000000000000 [-]
	 SCS Same-Spin Energy      =      -0.2434414948350768 [Eh]
	 SCS Opposite-Spin Energy  =      -2.5939967348712516 [Eh]
	 SCS Correlation Energy    =      -2.8374382297063283 [Eh]
	 SCS Total Energy          =    -759.0932381682711139 [Eh]
	-----------------------------------------------------------

  Dipole Moment: [D]
     X:    -0.3056      Y:     0.6870      Z:     1.5112     Total:     1.6879

*** Psi4 exiting successfully. Buy a developer a beer!
