                               Psi4 1.4a3.dev225

  ==> Input File <==

--------------------------------------------------------------------------
#psi4
#
memory 32 gb

molecule  {
0 1
  O       -0.2992690     0.0680640    -1.4275900
  O        1.1877140     1.7322170     1.3773330
  O        0.9070830     2.3739170    -0.7855270
  O        2.2997080    -2.4217750    -0.0198700
  O       -3.4574230     0.0760400    -0.5564670
  O        2.6367000    -0.2338780    -0.4933410
  O       -2.4354340    -1.6059620     0.5620860
  C       -0.1069630     0.3116450    -0.0442490
  C        0.5596710    -0.9208170     0.5523550
  C       -1.4701590     0.6204980     0.6142450
  C        0.7571556     1.5812360     0.1145359
  C        1.9235890    -1.1209070    -0.0515450
  C       -2.4760910    -0.4336940     0.2256510
  H       -0.0681940    -1.7945300     0.3699280
  H        0.6734230    -0.8156830     1.6371260
  H       -1.8203340     1.5970830     0.2688470
  H       -1.3719830     0.6391850     1.7041930
  H       -0.0401320     0.8945830    -1.8856220
  H        1.6977060     2.5695530     1.3787680
  H        3.2011100    -2.4470060    -0.4042100
  H       -4.0402960    -0.6812640    -0.7756360
units angstrom
no_reorient  #important for SAPT in psi4, default
symmetry c1  #important for SAPT in psi4, default
}

set PROPERTIES_ORIGIN ["COM"]
properties('MP2/aug-cc-pvtz', properties = ['dipole'])
--------------------------------------------------------------------------

    Molecular point group: c1
  Charge       = 0
  Multiplicity = 1
  Basis Set: AUG-CC-PVTZ
    Blend: AUG-CC-PVTZ
  Basis Set: (AUG-CC-PVTZ AUX)
    Blend: AUG-CC-PVTZ-JKFIT

    Orbital Energies [Eh]
    ---------------------

    Doubly Occupied:

       1A    -20.640182     2A    -20.626270     3A    -20.624607
       4A    -20.577316     5A    -20.572289     6A    -20.561892
       7A    -20.560574     8A    -11.410127     9A    -11.405485
      10A    -11.401851    11A    -11.339791    12A    -11.272067
      13A    -11.260916    14A     -1.490631    15A     -1.471809
      16A     -1.469911    17A     -1.400694    18A     -1.376488
      19A     -1.368145    20A     -1.366269    21A     -1.114344
      22A     -1.037879    23A     -0.948541    24A     -0.853262
      25A     -0.829519    26A     -0.794438    27A     -0.760240
      28A     -0.729721    29A     -0.718153    30A     -0.715706
      31A     -0.704921    32A     -0.690603    33A     -0.668369
      34A     -0.655145    35A     -0.645902    36A     -0.639564
      37A     -0.623375    38A     -0.604076    39A     -0.595080
      40A     -0.579971    41A     -0.561479    42A     -0.558180
      43A     -0.545885    44A     -0.509149    45A     -0.494512
      46A     -0.490292    47A     -0.485496    48A     -0.470810
      49A     -0.464758    50A     -0.450814

  @DF-RHF Final Energy:  -756.25903659510459

   => Energetics <=

    Nuclear Repulsion Energy =            874.4730629179182415
    One-Electron Energy =               -2777.1892003801326609
    Two-Electron Energy =                1146.4571008671098298
    Total Energy =                       -756.2590365951045897
  Basis Set: (AUG-CC-PVTZ AUX)
    Blend: AUG-CC-PVTZ-RI
    Molecular point group: c1

    Geometry (in Angstrom), charge = 0, multiplicity = 1:

       Center              X                  Y                   Z               Mass
    ------------   -----------------  -----------------  -----------------  -----------------
         O           -0.309084744682     0.066839271791    -1.415904509367    15.994914619570
         O            1.177898255318     1.730992271791     1.389018490633    15.994914619570
         O            0.897267255318     2.372692271791    -0.773841509367    15.994914619570
         O            2.289892255318    -2.422999728209    -0.008184509367    15.994914619570
         O           -3.467238744682     0.074815271791    -0.544781509367    15.994914619570
         O            2.626884255318    -0.235102728209    -0.481655509367    15.994914619570
         O           -2.445249744682    -1.607186728209     0.573771490633    15.994914619570
         C           -0.116778744682     0.310420271791    -0.032563509367    12.000000000000
         C            0.549855255318    -0.922041728209     0.564040490633    12.000000000000
         C           -1.479974744682     0.619273271791     0.625930490633    12.000000000000
         C            0.747339855318     1.580011271791     0.126221390633    12.000000000000
         C            1.913773255318    -1.122131728209    -0.039859509367    12.000000000000
         C           -2.485906744682    -0.434918728209     0.237336490633    12.000000000000
         H           -0.078009744682    -1.795754728209     0.381613490633     1.007825032230
         H            0.663607255318    -0.816907728209     1.648811490633     1.007825032230
         H           -1.830149744682     1.595858271791     0.280532490633     1.007825032230
         H           -1.381798744682     0.637960271791     1.715878490633     1.007825032230
         H           -0.049947744682     0.893358271791    -1.873936509367     1.007825032230
         H            1.687890255318     2.568328271791     1.390453490633     1.007825032230
         H            3.191294255318    -2.448230728209    -0.392524509367     1.007825032230
         H           -4.050111744682    -0.682488728209    -0.763950509367     1.007825032230

  Basis Set: AUG-CC-PVTZ
    Blend: AUG-CC-PVTZ
  Basis Set: (AUG-CC-PVTZ AUX)
    Blend: AUG-CC-PVTZ-JKFIT
	 Reference Energy          =    -756.2590365951045897 [Eh]
	 Singles Energy            =      -0.0000000000000000 [Eh]
	 Same-Spin Energy          =      -0.7301963057366906 [Eh]
	 Opposite-Spin Energy      =      -2.1608518958368053 [Eh]
	 Correlation Energy        =      -2.8910482015734957 [Eh]
	 Total Energy              =    -759.1500847966781294 [Eh]

	 ================> DF-SCS-MP2 Energies <==================
	-----------------------------------------------------------
	 SCS Same-Spin Scale       =       0.3333333333333333 [-]
	 SCS Opposite-Spin Scale   =       1.2000000000000000 [-]
	 SCS Same-Spin Energy      =      -0.2433987685788969 [Eh]
	 SCS Opposite-Spin Energy  =      -2.5930222750041660 [Eh]
	 SCS Correlation Energy    =      -2.8364210435830630 [Eh]
	 SCS Total Energy          =    -759.0954576386876624 [Eh]
	-----------------------------------------------------------

  Dipole Moment: [D]
     X:    -0.1051      Y:     0.8327      Z:     1.8771     Total:     2.0562

*** Psi4 exiting successfully. Buy a developer a beer!
