                               Psi4 1.3.2 release

  ==> Input File <==

--------------------------------------------------------------------------
#psi4
#
memory 32 gb

molecule  {
0 1
  O       -0.2992330     0.0680890    -1.4276520
  O        1.1877390     1.7321380     1.3773370
  O        0.9070540     2.3739560    -0.7854760
  O        2.2997900    -2.4217320    -0.0198770
  O       -3.4576290     0.0760600    -0.5562400
  O        2.6367540    -0.2338110    -0.4932570
  O       -2.4353810    -1.6060190     0.5619510
  C       -0.1069590     0.3116290    -0.0442930
  C        0.5596730    -0.9208470     0.5522810
  C       -1.4701600     0.6204770     0.6141540
  C        0.7459700     1.5647750     0.1124900
  C        2.0498925    -1.0935136    -0.1099532
  C       -2.4761190    -0.4337210     0.2256320
  H       -0.0681530    -1.7945710     0.3697710
  H        0.6733550    -0.8157800     1.6370670
  H       -1.8203350     1.5970450     0.2687060
  H       -1.3720190     0.6392280     1.7041070
  H       -0.0402350     0.8946720    -1.8856460
  H        1.6977260     2.5694770     1.3788080
  H        3.2012140    -2.4469230    -0.4041650
  H       -4.0405490    -0.6812350    -0.7753220
units angstrom
no_reorient  #important for SAPT in psi4, default
symmetry c1  #important for SAPT in psi4, default
}

set PROPERTIES_ORIGIN ["COM"]
properties('MP2/aug-cc-pvtz', properties = ['dipole'])
--------------------------------------------------------------------------

    Molecular point group: c1
  Charge       = 0
  Multiplicity = 1
  Basis Set: AUG-CC-PVTZ
    Blend: AUG-CC-PVTZ
  Basis Set: (AUG-CC-PVTZ AUX)
    Blend: AUG-CC-PVTZ-JKFIT

    Orbital Energies [Eh]
    ---------------------

    Doubly Occupied:

       1A    -20.638152     2A    -20.625553     3A    -20.623308
       4A    -20.578406     5A    -20.574366     6A    -20.571565
       7A    -20.558124     8A    -11.409773     9A    -11.401919
      10A    -11.392640    11A    -11.332868    12A    -11.268406
      13A    -11.250420    14A     -1.518025    15A     -1.484533
      16A     -1.468532    17A     -1.417239    18A     -1.396036
      19A     -1.370018    20A     -1.364348    21A     -1.105443
      22A     -1.015189    23A     -0.938312    24A     -0.845098
      25A     -0.823495    26A     -0.791021    27A     -0.756977
      28A     -0.739856    29A     -0.725375    30A     -0.715200
      31A     -0.711286    32A     -0.690989    33A     -0.675805
      34A     -0.664466    35A     -0.643518    36A     -0.637453
      37A     -0.618859    38A     -0.610447    39A     -0.592489
      40A     -0.586922    41A     -0.555717    42A     -0.554971
      43A     -0.541313    44A     -0.527604    45A     -0.504116
      46A     -0.490953    47A     -0.483157    48A     -0.469087
      49A     -0.455789    50A     -0.436474

  @DF-RHF Final Energy:  -756.23490430523998

   => Energetics <=

    Nuclear Repulsion Energy =            874.4381498123041183
    One-Electron Energy =               -2777.0428875720090218
    Two-Electron Energy =                1146.3698334544649242
    Total Energy =                       -756.2349043052399793
  Basis Set: (AUG-CC-PVTZ AUX)
    Blend: AUG-CC-PVTZ-RI
    Molecular point group: c1

    Geometry (in Angstrom), charge = 0, multiplicity = 1:

       Center              X                  Y                   Z               Mass
    ------------   -----------------  -----------------  -----------------  -----------------
         O           -0.316240860316     0.066182177915    -1.412187548356    15.994914619570
         O            1.170731139684     1.730231177915     1.392801451644    15.994914619570
         O            0.890046139684     2.372049177915    -0.770011548356    15.994914619570
         O            2.282782139684    -2.423638822085    -0.004412548356    15.994914619570
         O           -3.474636860316     0.074153177915    -0.540775548356    15.994914619570
         O            2.619746139684    -0.235717822085    -0.477792548356    15.994914619570
         O           -2.452388860316    -1.607925822085     0.577415451644    15.994914619570
         C           -0.123966860316     0.309722177915    -0.028828548356    12.000000000000
         C            0.542665139684    -0.922753822085     0.567745451644    12.000000000000
         C           -1.487167860316     0.618570177915     0.629618451644    12.000000000000
         C            0.728962139684     1.562868177915     0.127954451644    12.000000000000
         C            2.032884639684    -1.095420422085    -0.094488748356    12.000000000000
         C           -2.493126860316    -0.435627822085     0.241096451644    12.000000000000
         H           -0.085160860316    -1.796477822085     0.385235451644     1.007825032230
         H            0.656347139684    -0.817686822085     1.652531451644     1.007825032230
         H           -1.837342860316     1.595138177915     0.284170451644     1.007825032230
         H           -1.389026860316     0.637321177915     1.719571451644     1.007825032230
         H           -0.057242860316     0.892765177915    -1.870181548356     1.007825032230
         H            1.680718139684     2.567570177915     1.394272451644     1.007825032230
         H            3.184206139684    -2.448829822085    -0.388700548356     1.007825032230
         H           -4.057556860316    -0.683141822085    -0.759857548356     1.007825032230

  Basis Set: AUG-CC-PVTZ
    Blend: AUG-CC-PVTZ
  Basis Set: (AUG-CC-PVTZ AUX)
    Blend: AUG-CC-PVTZ-JKFIT
	 Reference Energy          =    -756.2349043052399793 [Eh]
	 Singles Energy            =      -0.0000000000000000 [Eh]
	 Same-Spin Energy          =      -0.7285680590405962 [Eh]
	 Opposite-Spin Energy      =      -2.1578269401566899 [Eh]
	 Correlation Energy        =      -2.8863949991972859 [Eh]
	 Total Energy              =    -759.1212993044372297 [Eh]

	 ================> DF-SCS-MP2 Energies <==================
	-----------------------------------------------------------
	 SCS Same-Spin Scale       =       0.3333333333333333 [-]
	 SCS Opposite-Spin Scale   =       1.2000000000000000 [-]
	 SCS Same-Spin Energy      =      -0.2428560196801987 [Eh]
	 SCS Opposite-Spin Energy  =      -2.5893923281880276 [Eh]
	 SCS Correlation Energy    =      -2.8322483478682261 [Eh]
	 SCS Total Energy          =    -759.0671526531082236 [Eh]
	-----------------------------------------------------------

  Dipole Moment: [D]
     X:     0.5976      Y:     0.9080      Z:     1.5569     Total:     1.8988

*** Psi4 exiting successfully. Buy a developer a beer!
