                               Psi4 1.4a3.dev225

  ==> Input File <==

--------------------------------------------------------------------------
#psi4
#
memory 32 gb

molecule  {
0 1
  O       -0.2992690     0.0680640    -1.4275900
  O        1.1877140     1.7322170     1.3773330
  O        0.9070830     2.3739170    -0.7855270
  O        2.2997080    -2.4217750    -0.0198700
  O       -3.4574230     0.0760400    -0.5564670
  O        2.6367000    -0.2338780    -0.4933410
  O       -2.4354340    -1.6059620     0.5620860
  C       -0.1069630     0.3116450    -0.0442490
  C        0.5596710    -0.9208170     0.5523550
  C       -1.4701590     0.6204980     0.6142450
  C        0.7525683     1.5979659     0.0756589
  C        1.9235890    -1.1209070    -0.0515450
  C       -2.4760910    -0.4336940     0.2256510
  H       -0.0681940    -1.7945300     0.3699280
  H        0.6734230    -0.8156830     1.6371260
  H       -1.8203340     1.5970830     0.2688470
  H       -1.3719830     0.6391850     1.7041930
  H       -0.0401320     0.8945830    -1.8856220
  H        1.6977060     2.5695530     1.3787680
  H        3.2011100    -2.4470060    -0.4042100
  H       -4.0402960    -0.6812640    -0.7756360
units angstrom
no_reorient  #important for SAPT in psi4, default
symmetry c1  #important for SAPT in psi4, default
}

set PROPERTIES_ORIGIN ["COM"]
properties('MP2/aug-cc-pvtz', properties = ['dipole'])
--------------------------------------------------------------------------

    Molecular point group: c1
  Charge       = 0
  Multiplicity = 1
  Basis Set: AUG-CC-PVTZ
    Blend: AUG-CC-PVTZ
  Basis Set: (AUG-CC-PVTZ AUX)
    Blend: AUG-CC-PVTZ-JKFIT

    Orbital Energies [Eh]
    ---------------------

    Doubly Occupied:

       1A    -20.629353     2A    -20.626195     3A    -20.624181
       4A    -20.580986     5A    -20.577582     6A    -20.561664
       7A    -20.560015     8A    -11.406899     9A    -11.405224
      10A    -11.401325    11A    -11.339332    12A    -11.271497
      13A    -11.260365    14A     -1.492331    15A     -1.471676
      16A     -1.469469    17A     -1.401875    18A     -1.385260
      19A     -1.367999    20A     -1.365941    21A     -1.112391
      22A     -1.037170    23A     -0.944080    24A     -0.848140
      25A     -0.828742    26A     -0.790286    27A     -0.758210
      28A     -0.730924    29A     -0.718237    30A     -0.715310
      31A     -0.704775    32A     -0.691395    33A     -0.668243
      34A     -0.653492    35A     -0.647270    36A     -0.639225
      37A     -0.624470    38A     -0.603224    39A     -0.594757
      40A     -0.580058    41A     -0.561074    42A     -0.557800
      43A     -0.550837    44A     -0.519003    45A     -0.494646
      46A     -0.490098    47A     -0.486685    48A     -0.470424
      49A     -0.464868    50A     -0.450144

  @DF-RHF Final Energy:  -756.25768171424761

   => Energetics <=

    Nuclear Repulsion Energy =            874.4670566868367132
    One-Electron Energy =               -2777.1791890598901773
    Two-Electron Energy =                1146.4544506588058539
    Total Energy =                       -756.2576817142476102
  Basis Set: (AUG-CC-PVTZ AUX)
    Blend: AUG-CC-PVTZ-RI
    Molecular point group: c1

    Geometry (in Angstrom), charge = 0, multiplicity = 1:

       Center              X                  Y                   Z               Mass
    ------------   -----------------  -----------------  -----------------  -----------------
         O           -0.308798078749     0.065793800075    -1.413475038545    15.994914619570
         O            1.178184921251     1.729946800075     1.391447961455    15.994914619570
         O            0.897553921251     2.371646800075    -0.771412038545    15.994914619570
         O            2.290178921251    -2.424045199925    -0.005755038545    15.994914619570
         O           -3.466952078749     0.073769800075    -0.542352038545    15.994914619570
         O            2.627170921251    -0.236148199925    -0.479226038545    15.994914619570
         O           -2.444963078749    -1.608232199925     0.576200961455    15.994914619570
         C           -0.116492078749     0.309374800075    -0.030134038545    12.000000000000
         C            0.550141921251    -0.923087199925     0.566469961455    12.000000000000
         C           -1.479688078749     0.618227800075     0.628359961455    12.000000000000
         C            0.743039221251     1.595695700075     0.089773861455    12.000000000000
         C            1.914059921251    -1.123177199925    -0.037430038545    12.000000000000
         C           -2.485620078749    -0.435964199925     0.239765961455    12.000000000000
         H           -0.077723078749    -1.796800199925     0.384042961455     1.007825032230
         H            0.663893921251    -0.817953199925     1.651240961455     1.007825032230
         H           -1.829863078749     1.594812800075     0.282961961455     1.007825032230
         H           -1.381512078749     0.636914800075     1.718307961455     1.007825032230
         H           -0.049661078749     0.892312800075    -1.871507038545     1.007825032230
         H            1.688176921251     2.567282800075     1.392882961455     1.007825032230
         H            3.191580921251    -2.449276199925    -0.390095038545     1.007825032230
         H           -4.049825078749    -0.683534199925    -0.761521038545     1.007825032230

  Basis Set: AUG-CC-PVTZ
    Blend: AUG-CC-PVTZ
  Basis Set: (AUG-CC-PVTZ AUX)
    Blend: AUG-CC-PVTZ-JKFIT
	 Reference Energy          =    -756.2576817142476102 [Eh]
	 Singles Energy            =      -0.0000000000000000 [Eh]
	 Same-Spin Energy          =      -0.7294940597470860 [Eh]
	 Opposite-Spin Energy      =      -2.1598511179608986 [Eh]
	 Correlation Energy        =      -2.8893451777079848 [Eh]
	 Total Energy              =    -759.1470268919556474 [Eh]

	 ================> DF-SCS-MP2 Energies <==================
	-----------------------------------------------------------
	 SCS Same-Spin Scale       =       0.3333333333333333 [-]
	 SCS Opposite-Spin Scale   =       1.2000000000000000 [-]
	 SCS Same-Spin Energy      =      -0.2431646865823620 [Eh]
	 SCS Opposite-Spin Energy  =      -2.5918213415530782 [Eh]
	 SCS Correlation Energy    =      -2.8349860281354400 [Eh]
	 SCS Total Energy          =    -759.0926677423830142 [Eh]
	-----------------------------------------------------------

  Dipole Moment: [D]
     X:    -0.1541      Y:     0.9159      Z:     1.5779     Total:     1.8309

*** Psi4 exiting successfully. Buy a developer a beer!
