                               Psi4 1.3.2 release

  ==> Input File <==

--------------------------------------------------------------------------
#psi4
#
memory 32 gb

molecule  {
0 1
  O       -0.2992330     0.0680890    -1.4276520
  O        1.1967129     1.7530500     1.3712162
  O        0.9070540     2.3739560    -0.7854760
  O        2.2997900    -2.4217320    -0.0198770
  O       -3.4576290     0.0760600    -0.5562400
  O        2.6367540    -0.2338110    -0.4932570
  O       -2.4353810    -1.6060190     0.5619510
  C       -0.1069590     0.3116290    -0.0442930
  C        0.5596730    -0.9208470     0.5522810
  C       -1.4701600     0.6204770     0.6141540
  C        0.7459700     1.5647750     0.1124900
  C        1.9236380    -1.1208730    -0.0515330
  C       -2.4761190    -0.4337210     0.2256320
  H       -0.0681530    -1.7945710     0.3697710
  H        0.6733550    -0.8157800     1.6370670
  H       -1.8203350     1.5970450     0.2687060
  H       -1.3720190     0.6392280     1.7041070
  H       -0.0402350     0.8946720    -1.8856460
  H        1.6977260     2.5694770     1.3788080
  H        3.2012140    -2.4469230    -0.4041650
  H       -4.0405490    -0.6812350    -0.7753220
units angstrom
no_reorient  #important for SAPT in psi4, default
symmetry c1  #important for SAPT in psi4, default
}

set PROPERTIES_ORIGIN ["COM"]
properties('MP2/aug-cc-pvtz', properties = ['dipole'])
--------------------------------------------------------------------------

    Molecular point group: c1
  Charge       = 0
  Multiplicity = 1
  Basis Set: AUG-CC-PVTZ
    Blend: AUG-CC-PVTZ
  Basis Set: (AUG-CC-PVTZ AUX)
    Blend: AUG-CC-PVTZ-JKFIT

    Orbital Energies [Eh]
    ---------------------

    Doubly Occupied:

       1A    -20.635096     2A    -20.627214     3A    -20.625251
       4A    -20.579008     5A    -20.570304     6A    -20.563007
       7A    -20.561277     8A    -11.411496     9A    -11.406694
      10A    -11.402673    11A    -11.341946    12A    -11.273847
      13A    -11.262623    14A     -1.487608    15A     -1.472791
      16A     -1.470515    17A     -1.399992    18A     -1.372218
      19A     -1.369050    20A     -1.366684    21A     -1.117873
      22A     -1.039463    23A     -0.954493    24A     -0.855881
      25A     -0.830781    26A     -0.798021    27A     -0.761756
      28A     -0.728072    29A     -0.718878    30A     -0.716410
      31A     -0.705425    32A     -0.691446    33A     -0.669691
      34A     -0.653950    35A     -0.644563    36A     -0.638016
      37A     -0.622571    38A     -0.605005    39A     -0.595571
      40A     -0.580751    41A     -0.562731    42A     -0.560024
      43A     -0.546353    44A     -0.505200    45A     -0.495429
      46A     -0.490733    47A     -0.485856    48A     -0.472517
      49A     -0.465816    50A     -0.453065

  @DF-RHF Final Energy:  -756.25932920414766

   => Energetics <=

    Nuclear Repulsion Energy =            874.4597297996382395
    One-Electron Energy =               -2777.1068540019819011
    Two-Electron Energy =                1146.3877949981958864
    Total Energy =                       -756.2593292041476616
  Basis Set: (AUG-CC-PVTZ AUX)
    Blend: AUG-CC-PVTZ-RI
    Molecular point group: c1

    Geometry (in Angstrom), charge = 0, multiplicity = 1:

       Center              X                  Y                   Z               Mass
    ------------   -----------------  -----------------  -----------------  -----------------
         O           -0.309098545865     0.066150032152    -1.415328464573    15.994914619570
         O            1.186847354135     1.751111032152     1.383539735427    15.994914619570
         O            0.897188454135     2.372017032152    -0.773152464573    15.994914619570
         O            2.289924454135    -2.423670967848    -0.007553464573    15.994914619570
         O           -3.467494545865     0.074121032152    -0.543916464573    15.994914619570
         O            2.626888454135    -0.235749967848    -0.480933464573    15.994914619570
         O           -2.445246545865    -1.607957967848     0.574274535427    15.994914619570
         C           -0.116824545865     0.309690032152    -0.031969464573    12.000000000000
         C            0.549807454135    -0.922785967848     0.564604535427    12.000000000000
         C           -1.480025545865     0.618538032152     0.626477535427    12.000000000000
         C            0.736104454135     1.562836032152     0.124813535427    12.000000000000
         C            1.913772454135    -1.122811967848    -0.039209464573    12.000000000000
         C           -2.485984545865    -0.435659967848     0.237955535427    12.000000000000
         H           -0.078018545865    -1.796509967848     0.382094535427     1.007825032230
         H            0.663489454135    -0.817718967848     1.649390535427     1.007825032230
         H           -1.830200545865     1.595106032152     0.281029535427     1.007825032230
         H           -1.381884545865     0.637289032152     1.716430535427     1.007825032230
         H           -0.050100545865     0.892733032152    -1.873322464573     1.007825032230
         H            1.687860454135     2.567538032152     1.391131535427     1.007825032230
         H            3.191348454135    -2.448861967848    -0.391841464573     1.007825032230
         H           -4.050414545865    -0.683173967848    -0.762998464573     1.007825032230

  Basis Set: AUG-CC-PVTZ
    Blend: AUG-CC-PVTZ
  Basis Set: (AUG-CC-PVTZ AUX)
    Blend: AUG-CC-PVTZ-JKFIT
	 Reference Energy          =    -756.2593292041476616 [Eh]
	 Singles Energy            =      -0.0000000000000000 [Eh]
	 Same-Spin Energy          =      -0.7301024533791495 [Eh]
	 Opposite-Spin Energy      =      -2.1606613761491182 [Eh]
	 Correlation Energy        =      -2.8907638295282676 [Eh]
	 Total Energy              =    -759.1500930336759438 [Eh]

	 ================> DF-SCS-MP2 Energies <==================
	-----------------------------------------------------------
	 SCS Same-Spin Scale       =       0.3333333333333333 [-]
	 SCS Opposite-Spin Scale   =       1.2000000000000000 [-]
	 SCS Same-Spin Energy      =      -0.2433674844597165 [Eh]
	 SCS Opposite-Spin Energy  =      -2.5927936513789418 [Eh]
	 SCS Correlation Energy    =      -2.8361611358386583 [Eh]
	 SCS Total Energy          =    -759.0954903399863269 [Eh]
	-----------------------------------------------------------

  Dipole Moment: [D]
     X:    -0.1945      Y:     0.6940      Z:     1.8498     Total:     1.9853

*** Psi4 exiting successfully. Buy a developer a beer!
