                               Psi4 1.4a3.dev225

  ==> Input File <==

--------------------------------------------------------------------------
#psi4
#
memory 32 gb

molecule  {
0 1
  O       -0.2992690     0.0680640    -1.4275900
  O        1.1877140     1.7322170     1.3773330
  O        0.9070830     2.3739170    -0.7855270
  O        2.2997080    -2.4217750    -0.0198700
  O       -3.4574230     0.0760400    -0.5564670
  O        2.6367000    -0.2338780    -0.4933410
  O       -2.4354340    -1.6059620     0.5620860
  C       -0.1069630     0.3116450    -0.0442490
  C        0.5596710    -0.9208170     0.5523550
  C       -1.4701590     0.6204980     0.6142450
  C        0.7393557     1.5316141     0.1492991
  C        1.9235890    -1.1209070    -0.0515450
  C       -2.4760910    -0.4336940     0.2256510
  H       -0.0681940    -1.7945300     0.3699280
  H        0.6734230    -0.8156830     1.6371260
  H       -1.8203340     1.5970830     0.2688470
  H       -1.3719830     0.6391850     1.7041930
  H       -0.0401320     0.8945830    -1.8856220
  H        1.6977060     2.5695530     1.3787680
  H        3.2011100    -2.4470060    -0.4042100
  H       -4.0402960    -0.6812640    -0.7756360
units angstrom
no_reorient  #important for SAPT in psi4, default
symmetry c1  #important for SAPT in psi4, default
}

set PROPERTIES_ORIGIN ["COM"]
properties('MP2/aug-cc-pvtz', properties = ['dipole'])
--------------------------------------------------------------------------

    Molecular point group: c1
  Charge       = 0
  Multiplicity = 1
  Basis Set: AUG-CC-PVTZ
    Blend: AUG-CC-PVTZ
  Basis Set: (AUG-CC-PVTZ AUX)
    Blend: AUG-CC-PVTZ-JKFIT

    Orbital Energies [Eh]
    ---------------------

    Doubly Occupied:

       1A    -20.646664     2A    -20.627691     3A    -20.625899
       4A    -20.579156     5A    -20.563716     6A    -20.562067
       7A    -20.561495     8A    -11.415601     9A    -11.407485
      10A    -11.403501    11A    -11.342107    12A    -11.275344
      13A    -11.263876    14A     -1.491727    15A     -1.473381
      16A     -1.471326    17A     -1.397715    18A     -1.369899
      19A     -1.368132    20A     -1.346285    21A     -1.122175
      22A     -1.040966    23A     -0.961428    24A     -0.859093
      25A     -0.831987    26A     -0.801635    27A     -0.763660
      28A     -0.727555    29A     -0.719079    30A     -0.717160
      31A     -0.706111    32A     -0.691493    33A     -0.670472
      34A     -0.655739    35A     -0.643238    36A     -0.637392
      37A     -0.618485    38A     -0.605780    39A     -0.596089
      40A     -0.581075    41A     -0.563506    42A     -0.561434
      43A     -0.541659    44A     -0.497359    45A     -0.493662
      46A     -0.487991    47A     -0.482271    48A     -0.473123
      49A     -0.464919    50A     -0.453087

  @DF-RHF Final Energy:  -756.24997353199944

   => Energetics <=

    Nuclear Repulsion Energy =            874.8979699539279409
    One-Electron Energy =               -2777.9705018416261737
    Two-Electron Energy =                1146.8225583556986749
    Total Energy =                       -756.2499735319995580
  Basis Set: (AUG-CC-PVTZ AUX)
    Blend: AUG-CC-PVTZ-RI
    Molecular point group: c1

    Geometry (in Angstrom), charge = 0, multiplicity = 1:

       Center              X                  Y                   Z               Mass
    ------------   -----------------  -----------------  -----------------  -----------------
         O           -0.307972407370     0.069940204430    -1.418076903845    15.994914619570
         O            1.179010592630     1.734093204430     1.386846096155    15.994914619570
         O            0.898379592630     2.375793204430    -0.776013903845    15.994914619570
         O            2.291004592630    -2.419898795570    -0.010356903845    15.994914619570
         O           -3.466126407370     0.077916204430    -0.546953903845    15.994914619570
         O            2.627996592630    -0.232001795570    -0.483827903845    15.994914619570
         O           -2.444137407370    -1.604085795570     0.571599096155    15.994914619570
         C           -0.115666407370     0.313521204430    -0.034735903845    12.000000000000
         C            0.550967592630    -0.918940795570     0.561868096155    12.000000000000
         C           -1.478862407370     0.622374204430     0.623758096155    12.000000000000
         C            0.730652292630     1.533490304430     0.158812196155    12.000000000000
         C            1.914885592630    -1.119030795570    -0.042031903845    12.000000000000
         C           -2.484794407370    -0.431817795570     0.235164096155    12.000000000000
         H           -0.076897407370    -1.792653795570     0.379441096155     1.007825032230
         H            0.664719592630    -0.813806795570     1.646639096155     1.007825032230
         H           -1.829037407370     1.598959204430     0.278360096155     1.007825032230
         H           -1.380686407370     0.641061204430     1.713706096155     1.007825032230
         H           -0.048835407370     0.896459204430    -1.876108903845     1.007825032230
         H            1.689002592630     2.571429204430     1.388281096155     1.007825032230
         H            3.192406592630    -2.445129795570    -0.394696903845     1.007825032230
         H           -4.048999407370    -0.679387795570    -0.766122903845     1.007825032230

  Basis Set: AUG-CC-PVTZ
    Blend: AUG-CC-PVTZ
  Basis Set: (AUG-CC-PVTZ AUX)
    Blend: AUG-CC-PVTZ-JKFIT
	 Reference Energy          =    -756.2499735319994443 [Eh]
	 Singles Energy            =      -0.0000000000000000 [Eh]
	 Same-Spin Energy          =      -0.7317207867824824 [Eh]
	 Opposite-Spin Energy      =      -2.1635347468791171 [Eh]
	 Correlation Energy        =      -2.8952555336615995 [Eh]
	 Total Energy              =    -759.1452290656610558 [Eh]

	 ================> DF-SCS-MP2 Energies <==================
	-----------------------------------------------------------
	 SCS Same-Spin Scale       =       0.3333333333333333 [-]
	 SCS Opposite-Spin Scale   =       1.2000000000000000 [-]
	 SCS Same-Spin Energy      =      -0.2439069289274941 [Eh]
	 SCS Opposite-Spin Energy  =      -2.5962416962549404 [Eh]
	 SCS Correlation Energy    =      -2.8401486251824344 [Eh]
	 SCS Total Energy          =    -759.0901221571818951 [Eh]
	-----------------------------------------------------------

  Dipole Moment: [D]
     X:    -0.1801      Y:     0.5727      Z:     2.1247     Total:     2.2079

*** Psi4 exiting successfully. Buy a developer a beer!
