                               Psi4 1.4a3.dev225

  ==> Input File <==

--------------------------------------------------------------------------
#psi4
#
memory 32 gb

molecule  {
0 1
  O       -0.2992690     0.0680640    -1.4275900
  O        1.1877140     1.7322170     1.3773330
  O        0.9070830     2.3739170    -0.7855270
  O        2.2997080    -2.4217750    -0.0198700
  O       -3.4574230     0.0760400    -0.5564670
  O        2.6367000    -0.2338780    -0.4933410
  O       -2.4354340    -1.6059620     0.5620860
  C       -0.1069630     0.3116450    -0.0442490
  C        0.5596710    -0.9208170     0.5523550
  C       -1.4701590     0.6204980     0.6142450
  C        0.7459620     1.5647900     0.1124790
  C        1.9235890    -1.1209070    -0.0515450
  C       -2.4760910    -0.4336940     0.2256510
  H       -0.0681940    -1.7945300     0.3699280
  H        0.6734230    -0.8156830     1.6371260
  H       -1.8203340     1.5970830     0.2688470
  H       -1.3719830     0.6391850     1.7041930
  H       -0.0401320     0.8945830    -1.8856220
  H        1.7081095     2.5866342     1.3787973
  H        3.2011100    -2.4470060    -0.4042100
  H       -4.0402960    -0.6812640    -0.7756360
units angstrom
no_reorient  #important for SAPT in psi4, default
symmetry c1  #important for SAPT in psi4, default
}

set PROPERTIES_ORIGIN ["COM"]
properties('MP2/aug-cc-pvtz', properties = ['dipole'])
--------------------------------------------------------------------------

    Molecular point group: c1
  Charge       = 0
  Multiplicity = 1
  Basis Set: AUG-CC-PVTZ
    Blend: AUG-CC-PVTZ
  Basis Set: (AUG-CC-PVTZ AUX)
    Blend: AUG-CC-PVTZ-JKFIT

    Orbital Energies [Eh]
    ---------------------

    Doubly Occupied:

       1A    -20.639314     2A    -20.626860     3A    -20.624947
       4A    -20.578208     5A    -20.570961     6A    -20.562601
       7A    -20.560920     8A    -11.411086     9A    -11.406260
      10A    -11.402299    11A    -11.340705    12A    -11.273269
      13A    -11.261991    14A     -1.483105    15A     -1.472367
      16A     -1.469991    17A     -1.398041    18A     -1.371494
      19A     -1.368666    20A     -1.366209    21A     -1.116738
      22A     -1.038928    23A     -0.951499    24A     -0.851752
      25A     -0.830173    26A     -0.794202    27A     -0.759305
      28A     -0.726691    29A     -0.718054    30A     -0.716051
      31A     -0.704718    32A     -0.690999    33A     -0.669125
      34A     -0.653396    35A     -0.643716    36A     -0.637361
      37A     -0.622524    38A     -0.604398    39A     -0.595165
      40A     -0.580327    41A     -0.562107    42A     -0.559172
      43A     -0.545352    44A     -0.505367    45A     -0.495043
      46A     -0.490384    47A     -0.485676    48A     -0.471914
      49A     -0.465432    50A     -0.452469

  @DF-RHF Final Energy:  -756.25649000171381

   => Energetics <=

    Nuclear Repulsion Energy =            874.5137736037833065
    One-Electron Energy =               -2777.2858563619865890
    Two-Electron Energy =                1146.5155927564896956
    Total Energy =                       -756.2564900017137006
  Basis Set: (AUG-CC-PVTZ AUX)
    Blend: AUG-CC-PVTZ-RI
    Molecular point group: c1

    Geometry (in Angstrom), charge = 0, multiplicity = 1:

       Center              X                  Y                   Z               Mass
    ------------   -----------------  -----------------  -----------------  -----------------
         O           -0.308439844274     0.067777354126    -1.415776124972    15.994914619570
         O            1.178543155726     1.731930354126     1.389146875028    15.994914619570
         O            0.897912155726     2.373630354126    -0.773713124972    15.994914619570
         O            2.290537155726    -2.422061645874    -0.008056124972    15.994914619570
         O           -3.466593844274     0.075753354126    -0.544653124972    15.994914619570
         O            2.627529155726    -0.234164645874    -0.481527124972    15.994914619570
         O           -2.444604844274    -1.606248645874     0.573899875028    15.994914619570
         C           -0.116133844274     0.311358354126    -0.032435124972    12.000000000000
         C            0.550500155726    -0.921103645874     0.564168875028    12.000000000000
         C           -1.479329844274     0.620211354126     0.626058875028    12.000000000000
         C            0.736791155726     1.564503354126     0.124292875028    12.000000000000
         C            1.914418155726    -1.121193645874    -0.039731124972    12.000000000000
         C           -2.485261844274    -0.433980645874     0.237464875028    12.000000000000
         H           -0.077364844274    -1.794816645874     0.381741875028     1.007825032230
         H            0.664252155726    -0.815969645874     1.648939875028     1.007825032230
         H           -1.829504844274     1.596796354126     0.280660875028     1.007825032230
         H           -1.381153844274     0.638898354126     1.716006875028     1.007825032230
         H           -0.049302844274     0.894296354126    -1.873808124972     1.007825032230
         H            1.698938655726     2.586347554126     1.390611175028     1.007825032230
         H            3.191939155726    -2.447292645874    -0.392396124972     1.007825032230
         H           -4.049466844274    -0.681550645874    -0.763822124972     1.007825032230

  Basis Set: AUG-CC-PVTZ
    Blend: AUG-CC-PVTZ
  Basis Set: (AUG-CC-PVTZ AUX)
    Blend: AUG-CC-PVTZ-JKFIT
	 Reference Energy          =    -756.2564900017138143 [Eh]
	 Singles Energy            =      -0.0000000000000000 [Eh]
	 Same-Spin Energy          =      -0.7308094248066292 [Eh]
	 Opposite-Spin Energy      =      -2.1622081305617167 [Eh]
	 Correlation Energy        =      -2.8930175553683459 [Eh]
	 Total Energy              =    -759.1495075570821882 [Eh]

	 ================> DF-SCS-MP2 Energies <==================
	-----------------------------------------------------------
	 SCS Same-Spin Scale       =       0.3333333333333333 [-]
	 SCS Opposite-Spin Scale   =       1.2000000000000000 [-]
	 SCS Same-Spin Energy      =      -0.2436031416022097 [Eh]
	 SCS Opposite-Spin Energy  =      -2.5946497566740598 [Eh]
	 SCS Correlation Energy    =      -2.8382528982762696 [Eh]
	 SCS Total Energy          =    -759.0947428999901376 [Eh]
	-----------------------------------------------------------

  Dipole Moment: [D]
     X:    -0.1516      Y:     0.7619      Z:     1.8678     Total:     2.0229

*** Psi4 exiting successfully. Buy a developer a beer!
