                               Psi4 1.3.2 release

  ==> Input File <==

--------------------------------------------------------------------------
#psi4
#
memory 32 gb

molecule  {
0 1
  O       -0.2992330     0.0680890    -1.4276520
  O        1.1877390     1.7321380     1.3773370
  O        0.9070540     2.3739560    -0.7854760
  O        2.2581409    -2.4324378    -0.0002284
  O       -3.4576290     0.0760600    -0.5562400
  O        2.6367540    -0.2338110    -0.4932570
  O       -2.4353810    -1.6060190     0.5619510
  C       -0.1069590     0.3116290    -0.0442930
  C        0.5596730    -0.9208470     0.5522810
  C       -1.4701600     0.6204770     0.6141540
  C        0.7459700     1.5647750     0.1124900
  C        1.9236380    -1.1208730    -0.0515330
  C       -2.4761190    -0.4337210     0.2256320
  H       -0.0681530    -1.7945710     0.3697710
  H        0.6733550    -0.8157800     1.6370670
  H       -1.8203350     1.5970450     0.2687060
  H       -1.3720190     0.6392280     1.7041070
  H       -0.0402350     0.8946720    -1.8856460
  H        1.6977260     2.5694770     1.3788080
  H        3.2012140    -2.4469230    -0.4041650
  H       -4.0405490    -0.6812350    -0.7753220
units angstrom
no_reorient  #important for SAPT in psi4, default
symmetry c1  #important for SAPT in psi4, default
}

set PROPERTIES_ORIGIN ["COM"]
properties('MP2/aug-cc-pvtz', properties = ['dipole'])
--------------------------------------------------------------------------

    Molecular point group: c1
  Charge       = 0
  Multiplicity = 1
  Basis Set: AUG-CC-PVTZ
    Blend: AUG-CC-PVTZ
  Basis Set: (AUG-CC-PVTZ AUX)
    Blend: AUG-CC-PVTZ-JKFIT

    Orbital Energies [Eh]
    ---------------------

    Doubly Occupied:

       1A    -20.637966     2A    -20.630985     3A    -20.626503
       4A    -20.577803     5A    -20.571104     6A    -20.563239
       7A    -20.562167     8A    -11.411089     9A    -11.405829
      10A    -11.402516    11A    -11.339692    12A    -11.272681
      13A    -11.259918    14A     -1.485343    15A     -1.472012
      16A     -1.466439    17A     -1.398586    18A     -1.371938
      19A     -1.368356    20A     -1.366520    21A     -1.116027
      22A     -1.037495    23A     -0.951340    24A     -0.850012
      25A     -0.826119    26A     -0.792586    27A     -0.759037
      28A     -0.727976    29A     -0.717988    30A     -0.714279
      31A     -0.704833    32A     -0.690395    33A     -0.668672
      34A     -0.653633    35A     -0.644009    36A     -0.637582
      37A     -0.621357    38A     -0.604942    39A     -0.594736
      40A     -0.580612    41A     -0.560974    42A     -0.557778
      43A     -0.545002    44A     -0.505812    45A     -0.494787
      46A     -0.492045    47A     -0.485539    48A     -0.471824
      49A     -0.465157    50A     -0.452086

  @DF-RHF Final Energy:  -756.25225313407793

   => Energetics <=

    Nuclear Repulsion Energy =            874.7390592600423815
    One-Electron Energy =               -2777.7519867267938025
    Two-Electron Energy =                1146.7606743326737160
    Total Energy =                       -756.2522531340778187
  Basis Set: (AUG-CC-PVTZ AUX)
    Blend: AUG-CC-PVTZ-RI
    Molecular point group: c1

    Geometry (in Angstrom), charge = 0, multiplicity = 1:

       Center              X                  Y                   Z               Mass
    ------------   -----------------  -----------------  -----------------  -----------------
         O           -0.304881896374     0.068783640992    -1.417474930160    15.994914619570
         O            1.182090103626     1.732832640992     1.387514069840    15.994914619570
         O            0.901405103626     2.374650640992    -0.775298930160    15.994914619570
         O            2.252492003626    -2.431743159008     0.009948669840    15.994914619570
         O           -3.463277896374     0.076754640992    -0.546062930160    15.994914619570
         O            2.631105103626    -0.233116359008    -0.483079930160    15.994914619570
         O           -2.441029896374    -1.605324359008     0.572128069840    15.994914619570
         C           -0.112607896374     0.312323640992    -0.034115930160    12.000000000000
         C            0.554024103626    -0.920152359008     0.562458069840    12.000000000000
         C           -1.475808896374     0.621171640992     0.624331069840    12.000000000000
         C            0.740321103626     1.565469640992     0.122667069840    12.000000000000
         C            1.917989103626    -1.120178359008    -0.041355930160    12.000000000000
         C           -2.481767896374    -0.433026359008     0.235809069840    12.000000000000
         H           -0.073801896374    -1.793876359008     0.379948069840     1.007825032230
         H            0.667706103626    -0.815085359008     1.647244069840     1.007825032230
         H           -1.825983896374     1.597739640992     0.278883069840     1.007825032230
         H           -1.377667896374     0.639922640992     1.714284069840     1.007825032230
         H           -0.045883896374     0.895366640992    -1.875468930160     1.007825032230
         H            1.692077103626     2.570171640992     1.388985069840     1.007825032230
         H            3.195565103626    -2.446228359008    -0.393987930160     1.007825032230
         H           -4.046197896374    -0.680540359008    -0.765144930160     1.007825032230

  Basis Set: AUG-CC-PVTZ
    Blend: AUG-CC-PVTZ
  Basis Set: (AUG-CC-PVTZ AUX)
    Blend: AUG-CC-PVTZ-JKFIT
	 Reference Energy          =    -756.2522531340779324 [Eh]
	 Singles Energy            =      -0.0000000000000000 [Eh]
	 Same-Spin Energy          =      -0.7314627534875645 [Eh]
	 Opposite-Spin Energy      =      -2.1636029199751396 [Eh]
	 Correlation Energy        =      -2.8950656734627040 [Eh]
	 Total Energy              =    -759.1473188075406142 [Eh]

	 ================> DF-SCS-MP2 Energies <==================
	-----------------------------------------------------------
	 SCS Same-Spin Scale       =       0.3333333333333333 [-]
	 SCS Opposite-Spin Scale   =       1.2000000000000000 [-]
	 SCS Same-Spin Energy      =      -0.2438209178291882 [Eh]
	 SCS Opposite-Spin Energy  =      -2.5963235039701673 [Eh]
	 SCS Correlation Energy    =      -2.8401444217993554 [Eh]
	 SCS Total Energy          =    -759.0923975558772554 [Eh]
	-----------------------------------------------------------

  Dipole Moment: [D]
     X:    -0.0794      Y:     0.7099      Z:     1.8340     Total:     1.9682

*** Psi4 exiting successfully. Buy a developer a beer!
