                               Psi4 1.3.2 release

  ==> Input File <==

--------------------------------------------------------------------------
#psi4
#
memory 32 gb

molecule  {
0 1
  O       -0.2992330     0.0680890    -1.4276520
  O        1.1877390     1.7321380     1.3773370
  O        0.9070540     2.3739560    -0.7854760
  O        2.2792862    -2.4271923    -0.0094532
  O       -3.4576290     0.0760600    -0.5562400
  O        2.6367540    -0.2338110    -0.4932570
  O       -2.4353810    -1.6060190     0.5619510
  C       -0.1069590     0.3116290    -0.0442930
  C        0.5596730    -0.9208470     0.5522810
  C       -1.4701600     0.6204770     0.6141540
  C        0.7459700     1.5647750     0.1124900
  C        1.9236380    -1.1208730    -0.0515330
  C       -2.4761190    -0.4337210     0.2256320
  H       -0.0681530    -1.7945710     0.3697710
  H        0.6733550    -0.8157800     1.6370670
  H       -1.8203350     1.5970450     0.2687060
  H       -1.3720190     0.6392280     1.7041070
  H       -0.0402350     0.8946720    -1.8856460
  H        1.6977260     2.5694770     1.3788080
  H        3.2012140    -2.4469230    -0.4041650
  H       -4.0405490    -0.6812350    -0.7753220
units angstrom
no_reorient  #important for SAPT in psi4, default
symmetry c1  #important for SAPT in psi4, default
}

set PROPERTIES_ORIGIN ["COM"]
properties('MP2/aug-cc-pvtz', properties = ['dipole'])
--------------------------------------------------------------------------

    Molecular point group: c1
  Charge       = 0
  Multiplicity = 1
  Basis Set: AUG-CC-PVTZ
    Blend: AUG-CC-PVTZ
  Basis Set: (AUG-CC-PVTZ AUX)
    Blend: AUG-CC-PVTZ-JKFIT

    Orbital Energies [Eh]
    ---------------------

    Doubly Occupied:

       1A    -20.638091     2A    -20.628088     3A    -20.626727
       4A    -20.578071     5A    -20.571232     6A    -20.562433
       7A    -20.562140     8A    -11.411294     9A    -11.406099
      10A    -11.402441    11A    -11.340253    12A    -11.273043
      13A    -11.261015    14A     -1.485508    15A     -1.472252
      16A     -1.468249    17A     -1.398849    18A     -1.372138
      19A     -1.368565    20A     -1.366469    21A     -1.116562
      22A     -1.038274    23A     -0.952061    24A     -0.851482
      25A     -0.828210    26A     -0.794074    27A     -0.759552
      28A     -0.727990    29A     -0.718238    30A     -0.715327
      31A     -0.704995    32A     -0.690780    33A     -0.668949
      34A     -0.653712    35A     -0.644287    36A     -0.637795
      37A     -0.622129    38A     -0.604792    39A     -0.595043
      40A     -0.580583    41A     -0.561595    42A     -0.558615
      43A     -0.545503    44A     -0.505851    45A     -0.494957
      46A     -0.491313    47A     -0.485736    48A     -0.471931
      49A     -0.465412    50A     -0.452370

  @DF-RHF Final Energy:  -756.25568600694976

   => Energetics <=

    Nuclear Repulsion Energy =            874.6871602123999310
    One-Electron Energy =               -2777.6235468152185604
    Two-Electron Energy =                1146.6807005958689842
    Total Energy =                       -756.2556860069496452
  Basis Set: (AUG-CC-PVTZ AUX)
    Blend: AUG-CC-PVTZ-RI
    Molecular point group: c1

    Geometry (in Angstrom), charge = 0, multiplicity = 1:

       Center              X                  Y                   Z               Mass
    ------------   -----------------  -----------------  -----------------  -----------------
         O           -0.306643196938     0.068346716374    -1.416706549222    15.994914619570
         O            1.180328803062     1.732395716374     1.388282450778    15.994914619570
         O            0.899643803062     2.374213716374    -0.774530549222    15.994914619570
         O            2.271876003062    -2.426934583626     0.001492250778    15.994914619570
         O           -3.465039196938     0.076317716374    -0.545294549222    15.994914619570
         O            2.629343803062    -0.233553283626    -0.482311549222    15.994914619570
         O           -2.442791196938    -1.605761283626     0.572896450778    15.994914619570
         C           -0.114369196938     0.311886716374    -0.033347549222    12.000000000000
         C            0.552262803062    -0.920589283626     0.563226450778    12.000000000000
         C           -1.477570196938     0.620734716374     0.625099450778    12.000000000000
         C            0.738559803062     1.565032716374     0.123435450778    12.000000000000
         C            1.916227803062    -1.120615283626    -0.040587549222    12.000000000000
         C           -2.483529196938    -0.433463283626     0.236577450778    12.000000000000
         H           -0.075563196938    -1.794313283626     0.380716450778     1.007825032230
         H            0.665944803062    -0.815522283626     1.648012450778     1.007825032230
         H           -1.827745196938     1.597302716374     0.279651450778     1.007825032230
         H           -1.379429196938     0.639485716374     1.715052450778     1.007825032230
         H           -0.047645196938     0.894929716374    -1.874700549222     1.007825032230
         H            1.690315803062     2.569734716374     1.389753450778     1.007825032230
         H            3.193803803062    -2.446665283626    -0.393219549222     1.007825032230
         H           -4.047959196938    -0.680977283626    -0.764376549222     1.007825032230

  Basis Set: AUG-CC-PVTZ
    Blend: AUG-CC-PVTZ
  Basis Set: (AUG-CC-PVTZ AUX)
    Blend: AUG-CC-PVTZ-JKFIT
	 Reference Energy          =    -756.2556860069497588 [Eh]
	 Singles Energy            =      -0.0000000000000000 [Eh]
	 Same-Spin Energy          =      -0.7309971996741991 [Eh]
	 Opposite-Spin Energy      =      -2.1625763186455123 [Eh]
	 Correlation Energy        =      -2.8935735183197115 [Eh]
	 Total Energy              =    -759.1492595252694855 [Eh]

	 ================> DF-SCS-MP2 Energies <==================
	-----------------------------------------------------------
	 SCS Same-Spin Scale       =       0.3333333333333333 [-]
	 SCS Opposite-Spin Scale   =       1.2000000000000000 [-]
	 SCS Same-Spin Energy      =      -0.2436657332247330 [Eh]
	 SCS Opposite-Spin Energy  =      -2.5950915823746148 [Eh]
	 SCS Correlation Energy    =      -2.8387573155993477 [Eh]
	 SCS Total Energy          =    -759.0944433225490684 [Eh]
	-----------------------------------------------------------

  Dipole Moment: [D]
     X:    -0.1234      Y:     0.7237      Z:     1.8462     Total:     1.9868

*** Psi4 exiting successfully. Buy a developer a beer!
