                               Psi4 1.4a3.dev225

  ==> Input File <==

--------------------------------------------------------------------------
#psi4
#
memory 32 gb

molecule  {
0 1
  O       -0.2992690     0.0680640    -1.4275900
  O        1.1877140     1.7322170     1.3773330
  O        0.9070830     2.3739170    -0.7855270
  O        2.2997080    -2.4217750    -0.0198700
  O       -3.4574230     0.0760400    -0.5564670
  O        2.6367000    -0.2338780    -0.4933410
  O       -2.4354340    -1.6059620     0.5620860
  C       -0.1069630     0.3116450    -0.0442490
  C        0.5596710    -0.9208170     0.5523550
  C       -1.4701590     0.6204980     0.6142450
  C        0.7394185     1.5623100     0.0937432
  C        1.9235890    -1.1209070    -0.0515450
  C       -2.4760910    -0.4336940     0.2256510
  H       -0.0681940    -1.7945300     0.3699280
  H        0.6734230    -0.8156830     1.6371260
  H       -1.8203340     1.5970830     0.2688470
  H       -1.3719830     0.6391850     1.7041930
  H       -0.0401320     0.8945830    -1.8856220
  H        1.6977060     2.5695530     1.3787680
  H        3.2011100    -2.4470060    -0.4042100
  H       -4.0402960    -0.6812640    -0.7756360
units angstrom
no_reorient  #important for SAPT in psi4, default
symmetry c1  #important for SAPT in psi4, default
}

set PROPERTIES_ORIGIN ["COM"]
properties('MP2/aug-cc-pvtz', properties = ['dipole'])
--------------------------------------------------------------------------

    Molecular point group: c1
  Charge       = 0
  Multiplicity = 1
  Basis Set: AUG-CC-PVTZ
    Blend: AUG-CC-PVTZ
  Basis Set: (AUG-CC-PVTZ AUX)
    Blend: AUG-CC-PVTZ-JKFIT

    Orbital Energies [Eh]
    ---------------------

    Doubly Occupied:

       1A    -20.632446     2A    -20.627294     3A    -20.625145
       4A    -20.578995     5A    -20.574718     6A    -20.563052
       7A    -20.561142     8A    -11.411010     9A    -11.406750
      10A    -11.402559    11A    -11.341164    12A    -11.273900
      13A    -11.262538    14A     -1.481601    15A     -1.472764
      16A     -1.470063    17A     -1.398753    18A     -1.375491
      19A     -1.369200    20A     -1.366811    21A     -1.117705
      22A     -1.039403    23A     -0.953376    24A     -0.851314
      25A     -0.830512    26A     -0.794066    27A     -0.758644
      28A     -0.727428    29A     -0.718657    30A     -0.716310
      31A     -0.705091    32A     -0.691740    33A     -0.669695
      34A     -0.652587    35A     -0.644320    36A     -0.636573
      37A     -0.623194    38A     -0.604508    39A     -0.595215
      40A     -0.580733    41A     -0.562497    42A     -0.559769
      43A     -0.548036    44A     -0.508558    45A     -0.495653
      46A     -0.490781    47A     -0.487039    48A     -0.472628
      49A     -0.466218    50A     -0.453535

  @DF-RHF Final Energy:  -756.25789630820952

   => Energetics <=

    Nuclear Repulsion Energy =            874.7431169634559183
    One-Electron Energy =               -2777.6996661067869354
    Two-Electron Energy =                1146.6986528351212655
    Total Energy =                       -756.2578963082096379
  Basis Set: (AUG-CC-PVTZ AUX)
    Blend: AUG-CC-PVTZ-RI
    Molecular point group: c1

    Geometry (in Angstrom), charge = 0, multiplicity = 1:

       Center              X                  Y                   Z               Mass
    ------------   -----------------  -----------------  -----------------  -----------------
         O           -0.307976331818     0.068021980457    -1.414605148358    15.994914619570
         O            1.179006668182     1.732174980457     1.390317851642    15.994914619570
         O            0.898375668182     2.373874980457    -0.772542148358    15.994914619570
         O            2.291000668182    -2.421817019543    -0.006885148358    15.994914619570
         O           -3.466130331818     0.075997980457    -0.543482148358    15.994914619570
         O            2.627992668182    -0.233920019543    -0.480356148358    15.994914619570
         O           -2.444141331818    -1.606004019543     0.575070851642    15.994914619570
         C           -0.115670331818     0.311602980457    -0.031264148358    12.000000000000
         C            0.550963668182    -0.920859019543     0.565339851642    12.000000000000
         C           -1.478866331818     0.620455980457     0.627229851642    12.000000000000
         C            0.730711168182     1.562267980457     0.106728051642    12.000000000000
         C            1.914881668182    -1.120949019543    -0.038560148358    12.000000000000
         C           -2.484798331818    -0.433736019543     0.238635851642    12.000000000000
         H           -0.076901331818    -1.794572019543     0.382912851642     1.007825032230
         H            0.664715668182    -0.815725019543     1.650110851642     1.007825032230
         H           -1.829041331818     1.597040980457     0.281831851642     1.007825032230
         H           -1.380690331818     0.639142980457     1.717177851642     1.007825032230
         H           -0.048839331818     0.894540980457    -1.872637148358     1.007825032230
         H            1.688998668182     2.569510980457     1.391752851642     1.007825032230
         H            3.192402668182    -2.447048019543    -0.391225148358     1.007825032230
         H           -4.049003331818    -0.681306019543    -0.762651148358     1.007825032230

  Basis Set: AUG-CC-PVTZ
    Blend: AUG-CC-PVTZ
  Basis Set: (AUG-CC-PVTZ AUX)
    Blend: AUG-CC-PVTZ-JKFIT
	 Reference Energy          =    -756.2578963082095242 [Eh]
	 Singles Energy            =      -0.0000000000000000 [Eh]
	 Same-Spin Energy          =      -0.7304445881053803 [Eh]
	 Opposite-Spin Energy      =      -2.1615978257562198 [Eh]
	 Correlation Energy        =      -2.8920424138616001 [Eh]
	 Total Energy              =    -759.1499387220711697 [Eh]

	 ================> DF-SCS-MP2 Energies <==================
	-----------------------------------------------------------
	 SCS Same-Spin Scale       =       0.3333333333333333 [-]
	 SCS Opposite-Spin Scale   =       1.2000000000000000 [-]
	 SCS Same-Spin Energy      =      -0.2434815293684601 [Eh]
	 SCS Opposite-Spin Energy  =      -2.5939173909074635 [Eh]
	 SCS Correlation Energy    =      -2.8373989202759238 [Eh]
	 SCS Total Energy          =    -759.0952952284854973 [Eh]
	-----------------------------------------------------------

  Dipole Moment: [D]
     X:    -0.2220      Y:     0.7192      Z:     1.7219     Total:     1.8792

*** Psi4 exiting successfully. Buy a developer a beer!
