                               Psi4 1.4a3.dev225

  ==> Input File <==

--------------------------------------------------------------------------
#psi4
#
memory 32 gb

molecule  {
0 1
  O       -0.2992690     0.0680640    -1.4275900
  O        1.1877140     1.7322170     1.3773330
  O        0.9070830     2.3739170    -0.7855270
  O        2.2997080    -2.4217750    -0.0198700
  O       -3.4574230     0.0760400    -0.5564670
  O        2.6367000    -0.2338780    -0.4933410
  O       -2.4354340    -1.6059620     0.5620860
  C       -0.1137452     0.3030544    -0.0930363
  C        0.5596710    -0.9208170     0.5523550
  C       -1.4701590     0.6204980     0.6142450
  C        0.7459620     1.5647900     0.1124790
  C        1.9235890    -1.1209070    -0.0515450
  C       -2.4760910    -0.4336940     0.2256510
  H       -0.0681940    -1.7945300     0.3699280
  H        0.6734230    -0.8156830     1.6371260
  H       -1.8203340     1.5970830     0.2688470
  H       -1.3719830     0.6391850     1.7041930
  H       -0.0401320     0.8945830    -1.8856220
  H        1.6977060     2.5695530     1.3787680
  H        3.2011100    -2.4470060    -0.4042100
  H       -4.0402960    -0.6812640    -0.7756360
units angstrom
no_reorient  #important for SAPT in psi4, default
symmetry c1  #important for SAPT in psi4, default
}

set PROPERTIES_ORIGIN ["COM"]
properties('MP2/aug-cc-pvtz', properties = ['dipole'])
--------------------------------------------------------------------------

    Molecular point group: c1
  Charge       = 0
  Multiplicity = 1
  Basis Set: AUG-CC-PVTZ
    Blend: AUG-CC-PVTZ
  Basis Set: (AUG-CC-PVTZ AUX)
    Blend: AUG-CC-PVTZ-JKFIT

    Orbital Energies [Eh]
    ---------------------

    Doubly Occupied:

       1A    -20.638192     2A    -20.626422     3A    -20.624410
       4A    -20.584131     5A    -20.569960     6A    -20.561943
       7A    -20.560698     8A    -11.410019     9A    -11.405023
      10A    -11.401381    11A    -11.341804    12A    -11.271427
      13A    -11.260651    14A     -1.485140    15A     -1.471959
      16A     -1.469683    17A     -1.416280    18A     -1.375025
      19A     -1.368293    20A     -1.366939    21A     -1.111191
      22A     -1.036343    23A     -0.947891    24A     -0.852435
      25A     -0.828533    26A     -0.799897    27A     -0.765762
      28A     -0.726897    29A     -0.718154    30A     -0.715760
      31A     -0.705360    32A     -0.690580    33A     -0.670974
      34A     -0.653326    35A     -0.646935    36A     -0.636879
      37A     -0.624839    38A     -0.605799    39A     -0.596307
      40A     -0.581779    41A     -0.570842    42A     -0.558345
      43A     -0.543418    44A     -0.505474    45A     -0.495144
      46A     -0.489766    47A     -0.483326    48A     -0.469742
      49A     -0.463153    50A     -0.449271

  @DF-RHF Final Energy:  -756.25718800228378

   => Energetics <=

    Nuclear Repulsion Energy =            874.7881186124028545
    One-Electron Energy =               -2777.7836049187435492
    Two-Electron Energy =                1146.7382983040570252
    Total Energy =                       -756.2571880022837831
  Basis Set: (AUG-CC-PVTZ AUX)
    Blend: AUG-CC-PVTZ-RI
    Molecular point group: c1

    Geometry (in Angstrom), charge = 0, multiplicity = 1:

       Center              X                  Y                   Z               Mass
    ------------   -----------------  -----------------  -----------------  -----------------
         O           -0.307961415166     0.068403839253    -1.412727193720    15.994914619570
         O            1.179021584834     1.732556839253     1.392195806280    15.994914619570
         O            0.898390584834     2.374256839253    -0.770664193720    15.994914619570
         O            2.291015584834    -2.421435160747    -0.005007193720    15.994914619570
         O           -3.466115415166     0.076379839253    -0.541604193720    15.994914619570
         O            2.628007584834    -0.233538160747    -0.478478193720    15.994914619570
         O           -2.444126415166    -1.605622160747     0.576948806280    15.994914619570
         C           -0.122437615166     0.303394239253    -0.078173493720    12.000000000000
         C            0.550978584834    -0.920477160747     0.567217806280    12.000000000000
         C           -1.478851415166     0.620837839253     0.629107806280    12.000000000000
         C            0.737269584834     1.565129839253     0.127341806280    12.000000000000
         C            1.914896584834    -1.120567160747    -0.036682193720    12.000000000000
         C           -2.484783415166    -0.433354160747     0.240513806280    12.000000000000
         H           -0.076886415166    -1.794190160747     0.384790806280     1.007825032230
         H            0.664730584834    -0.815343160747     1.651988806280     1.007825032230
         H           -1.829026415166     1.597422839253     0.283709806280     1.007825032230
         H           -1.380675415166     0.639524839253     1.719055806280     1.007825032230
         H           -0.048824415166     0.894922839253    -1.870759193720     1.007825032230
         H            1.689013584834     2.569892839253     1.393630806280     1.007825032230
         H            3.192417584834    -2.446666160747    -0.389347193720     1.007825032230
         H           -4.048988415166    -0.680924160747    -0.760773193720     1.007825032230

  Basis Set: AUG-CC-PVTZ
    Blend: AUG-CC-PVTZ
  Basis Set: (AUG-CC-PVTZ AUX)
    Blend: AUG-CC-PVTZ-JKFIT
	 Reference Energy          =    -756.2571880022837831 [Eh]
	 Singles Energy            =      -0.0000000000000000 [Eh]
	 Same-Spin Energy          =      -0.7304198413486757 [Eh]
	 Opposite-Spin Energy      =      -2.1606173834331832 [Eh]
	 Correlation Energy        =      -2.8910372247818588 [Eh]
	 Total Energy              =    -759.1482252270656090 [Eh]

	 ================> DF-SCS-MP2 Energies <==================
	-----------------------------------------------------------
	 SCS Same-Spin Scale       =       0.3333333333333333 [-]
	 SCS Opposite-Spin Scale   =       1.2000000000000000 [-]
	 SCS Same-Spin Energy      =      -0.2434732804495585 [Eh]
	 SCS Opposite-Spin Energy  =      -2.5927408601198199 [Eh]
	 SCS Correlation Energy    =      -2.8362141405693784 [Eh]
	 SCS Total Energy          =    -759.0934021428531651 [Eh]
	-----------------------------------------------------------

  Dipole Moment: [D]
     X:    -0.1616      Y:     0.7341      Z:     1.7202     Total:     1.8772

*** Psi4 exiting successfully. Buy a developer a beer!
