                               Psi4 1.3.2 release

  ==> Input File <==

--------------------------------------------------------------------------
#psi4
#
memory 32 gb

molecule  {
0 1
  O       -0.2992330     0.0680890    -1.4276520
  O        1.1877390     1.7321380     1.3773370
  O        0.9070540     2.3739560    -0.7854760
  O        2.2997900    -2.4217320    -0.0198770
  O       -3.4576290     0.0760600    -0.5562400
  O        2.7217815    -0.3251239    -0.5208771
  O       -2.4353810    -1.6060190     0.5619510
  C       -0.1069590     0.3116290    -0.0442930
  C        0.5596730    -0.9208470     0.5522810
  C       -1.4701600     0.6204770     0.6141540
  C        0.7459700     1.5647750     0.1124900
  C        1.9236380    -1.1208730    -0.0515330
  C       -2.4761190    -0.4337210     0.2256320
  H       -0.0681530    -1.7945710     0.3697710
  H        0.6733550    -0.8157800     1.6370670
  H       -1.8203350     1.5970450     0.2687060
  H       -1.3720190     0.6392280     1.7041070
  H       -0.0402350     0.8946720    -1.8856460
  H        1.6977260     2.5694770     1.3788080
  H        3.2012140    -2.4469230    -0.4041650
  H       -4.0405490    -0.6812350    -0.7753220
units angstrom
no_reorient  #important for SAPT in psi4, default
symmetry c1  #important for SAPT in psi4, default
}

set PROPERTIES_ORIGIN ["COM"]
properties('MP2/aug-cc-pvtz', properties = ['dipole'])
--------------------------------------------------------------------------

    Molecular point group: c1
  Charge       = 0
  Multiplicity = 1
  Basis Set: AUG-CC-PVTZ
    Blend: AUG-CC-PVTZ
  Basis Set: (AUG-CC-PVTZ AUX)
    Blend: AUG-CC-PVTZ-JKFIT

    Orbital Energies [Eh]
    ---------------------

    Doubly Occupied:

       1A    -20.641905     2A    -20.628663     3A    -20.613442
       4A    -20.581289     5A    -20.575918     6A    -20.564730
       7A    -20.557654     8A    -11.414841     9A    -11.408419
      10A    -11.400617    11A    -11.344491    12A    -11.275991
      13A    -11.268218    14A     -1.489134    15A     -1.474324
      16A     -1.469564    17A     -1.402246    18A     -1.375321
      19A     -1.370577    20A     -1.355573    21A     -1.121009
      22A     -1.042841    23A     -0.955468    24A     -0.854575
      25A     -0.829954    26A     -0.796973    27A     -0.762851
      28A     -0.730514    29A     -0.720613    30A     -0.712677
      31A     -0.704324    32A     -0.692745    33A     -0.669681
      34A     -0.653795    35A     -0.646733    36A     -0.639934
      37A     -0.624659    38A     -0.605698    39A     -0.597122
      40A     -0.581451    41A     -0.563991    42A     -0.561422
      43A     -0.549054    44A     -0.508387    45A     -0.497054
      46A     -0.489263    47A     -0.484771    48A     -0.474566
      49A     -0.465383    50A     -0.454411

  @DF-RHF Final Energy:  -756.25554731925672

   => Energetics <=

    Nuclear Repulsion Energy =            872.5677183805361210
    One-Electron Energy =               -2773.2368581484633978
    Two-Electron Energy =                1144.4135924486706699
    Total Energy =                       -756.2555473192567206
  Basis Set: (AUG-CC-PVTZ AUX)
    Blend: AUG-CC-PVTZ-RI
    Molecular point group: c1

    Geometry (in Angstrom), charge = 0, multiplicity = 1:

       Center              X                  Y                   Z               Mass
    ------------   -----------------  -----------------  -----------------  -----------------
         O           -0.315433440552     0.075497820064    -1.413537677532    15.994914619570
         O            1.171538559448     1.739546820064     1.391451322468    15.994914619570
         O            0.890853559448     2.381364820064    -0.771361677532    15.994914619570
         O            2.283589559448    -2.414323179936    -0.005762677532    15.994914619570
         O           -3.473829440552     0.083468820064    -0.542125677532    15.994914619570
         O            2.705581059448    -0.317715079936    -0.506762777532    15.994914619570
         O           -2.451581440552    -1.598610179936     0.576065322468    15.994914619570
         C           -0.123159440552     0.319037820064    -0.030178677532    12.000000000000
         C            0.543472559448    -0.913438179936     0.566395322468    12.000000000000
         C           -1.486360440552     0.627885820064     0.628268322468    12.000000000000
         C            0.729769559448     1.572183820064     0.126604322468    12.000000000000
         C            1.907437559448    -1.113464179936    -0.037418677532    12.000000000000
         C           -2.492319440552    -0.426312179936     0.239746322468    12.000000000000
         H           -0.084353440552    -1.787162179936     0.383885322468     1.007825032230
         H            0.657154559448    -0.808371179936     1.651181322468     1.007825032230
         H           -1.836535440552     1.604453820064     0.282820322468     1.007825032230
         H           -1.388219440552     0.646636820064     1.718221322468     1.007825032230
         H           -0.056435440552     0.902080820064    -1.871531677532     1.007825032230
         H            1.681525559448     2.576885820064     1.392922322468     1.007825032230
         H            3.185013559448    -2.439514179936    -0.390050677532     1.007825032230
         H           -4.056749440552    -0.673826179936    -0.761207677532     1.007825032230

  Basis Set: AUG-CC-PVTZ
    Blend: AUG-CC-PVTZ
  Basis Set: (AUG-CC-PVTZ AUX)
    Blend: AUG-CC-PVTZ-JKFIT
	 Reference Energy          =    -756.2555473192567206 [Eh]
	 Singles Energy            =      -0.0000000000000000 [Eh]
	 Same-Spin Energy          =      -0.7302443391030282 [Eh]
	 Opposite-Spin Energy      =      -2.1611429286669912 [Eh]
	 Correlation Energy        =      -2.8913872677700194 [Eh]
	 Total Energy              =    -759.1469345870267489 [Eh]

	 ================> DF-SCS-MP2 Energies <==================
	-----------------------------------------------------------
	 SCS Same-Spin Scale       =       0.3333333333333333 [-]
	 SCS Opposite-Spin Scale   =       1.2000000000000000 [-]
	 SCS Same-Spin Energy      =      -0.2434147797010094 [Eh]
	 SCS Opposite-Spin Energy  =      -2.5933715144003893 [Eh]
	 SCS Correlation Energy    =      -2.8367862941013988 [Eh]
	 SCS Total Energy          =    -759.0923336133581643 [Eh]
	-----------------------------------------------------------

  Dipole Moment: [D]
     X:    -0.5324      Y:     1.0487      Z:     1.9535     Total:     2.2802

*** Psi4 exiting successfully. Buy a developer a beer!
