                               Psi4 1.3.2 release

  ==> Input File <==

--------------------------------------------------------------------------
#psi4
#
memory 32 gb

molecule  {
0 1
  O       -0.2992330     0.0680890    -1.4276520
  O        1.1877390     1.7321380     1.3773370
  O        0.9070540     2.3739560    -0.7854760
  O        2.2997900    -2.4217320    -0.0198770
  O       -3.4576290     0.0760600    -0.5562400
  O        2.6367540    -0.2338110    -0.4932570
  O       -2.4353810    -1.6060190     0.5619510
  C       -0.1493043     0.3024905    -0.0134860
  C        0.5596730    -0.9208470     0.5522810
  C       -1.4701600     0.6204770     0.6141540
  C        0.7459700     1.5647750     0.1124900
  C        1.9236380    -1.1208730    -0.0515330
  C       -2.4761190    -0.4337210     0.2256320
  H       -0.0681530    -1.7945710     0.3697710
  H        0.6733550    -0.8157800     1.6370670
  H       -1.8203350     1.5970450     0.2687060
  H       -1.3720190     0.6392280     1.7041070
  H       -0.0402350     0.8946720    -1.8856460
  H        1.6977260     2.5694770     1.3788080
  H        3.2012140    -2.4469230    -0.4041650
  H       -4.0405490    -0.6812350    -0.7753220
units angstrom
no_reorient  #important for SAPT in psi4, default
symmetry c1  #important for SAPT in psi4, default
}

set PROPERTIES_ORIGIN ["COM"]
properties('MP2/aug-cc-pvtz', properties = ['dipole'])
--------------------------------------------------------------------------

    Molecular point group: c1
  Charge       = 0
  Multiplicity = 1
  Basis Set: AUG-CC-PVTZ
    Blend: AUG-CC-PVTZ
  Basis Set: (AUG-CC-PVTZ AUX)
    Blend: AUG-CC-PVTZ-JKFIT

    Orbital Energies [Eh]
    ---------------------

    Doubly Occupied:

       1A    -20.637504     2A    -20.627798     3A    -20.625379
       4A    -20.574563     5A    -20.571374     6A    -20.563862
       7A    -20.560807     8A    -11.411744     9A    -11.407605
      10A    -11.403133    11A    -11.341349    12A    -11.273445
      13A    -11.262392    14A     -1.484407    15A     -1.473515
      16A     -1.470242    17A     -1.392298    18A     -1.370947
      19A     -1.368875    20A     -1.364398    21A     -1.122817
      22A     -1.042206    23A     -0.947966    24A     -0.854141
      25A     -0.832874    26A     -0.793176    27A     -0.756473
      28A     -0.728095    29A     -0.718928    30A     -0.716008
      31A     -0.704656    32A     -0.691539    33A     -0.671144
      34A     -0.653580    35A     -0.644272    36A     -0.638239
      37A     -0.623890    38A     -0.605467    39A     -0.595815
      40A     -0.581004    41A     -0.563762    42A     -0.554522
      43A     -0.540977    44A     -0.505499    45A     -0.495219
      46A     -0.490830    47A     -0.486144    48A     -0.475323
      49A     -0.465708    50A     -0.451446

  @DF-RHF Final Energy:  -756.25443421078216

   => Energetics <=

    Nuclear Repulsion Energy =            874.4441687204016489
    One-Electron Energy =               -2777.1224924249936521
    Two-Electron Energy =                1146.4238894938098383
    Total Energy =                       -756.2544342107821649
  Basis Set: (AUG-CC-PVTZ AUX)
    Blend: AUG-CC-PVTZ-RI
    Molecular point group: c1

    Geometry (in Angstrom), charge = 0, multiplicity = 1:

       Center              X                  Y                   Z               Mass
    ------------   -----------------  -----------------  -----------------  -----------------
         O           -0.305704854584     0.068462975897    -1.417763464168    15.994914619570
         O            1.181267145416     1.732511975897     1.387225535832    15.994914619570
         O            0.900582145416     2.374329975897    -0.775587464168    15.994914619570
         O            2.293318145416    -2.421358024103    -0.009988464168    15.994914619570
         O           -3.464100854584     0.076433975897    -0.546351464168    15.994914619570
         O            2.630282145416    -0.233437024103    -0.483368464168    15.994914619570
         O           -2.441852854584    -1.605645024103     0.571839535832    15.994914619570
         C           -0.155776154584     0.302864475897    -0.003597464168    12.000000000000
         C            0.553201145416    -0.920473024103     0.562169535832    12.000000000000
         C           -1.476631854584     0.620850975897     0.624042535832    12.000000000000
         C            0.739498145416     1.565148975897     0.122378535832    12.000000000000
         C            1.917166145416    -1.120499024103    -0.041644464168    12.000000000000
         C           -2.482590854584    -0.433347024103     0.235520535832    12.000000000000
         H           -0.074624854584    -1.794197024103     0.379659535832     1.007825032230
         H            0.666883145416    -0.815406024103     1.646955535832     1.007825032230
         H           -1.826806854584     1.597418975897     0.278594535832     1.007825032230
         H           -1.378490854584     0.639601975897     1.713995535832     1.007825032230
         H           -0.046706854584     0.895045975897    -1.875757464168     1.007825032230
         H            1.691254145416     2.569850975897     1.388696535832     1.007825032230
         H            3.194742145416    -2.446549024103    -0.394276464168     1.007825032230
         H           -4.047020854584    -0.680861024103    -0.765433464168     1.007825032230

  Basis Set: AUG-CC-PVTZ
    Blend: AUG-CC-PVTZ
  Basis Set: (AUG-CC-PVTZ AUX)
    Blend: AUG-CC-PVTZ-JKFIT
	 Reference Energy          =    -756.2544342107821649 [Eh]
	 Singles Energy            =      -0.0000000000000000 [Eh]
	 Same-Spin Energy          =      -0.7307868270797224 [Eh]
	 Opposite-Spin Energy      =      -2.1623406025467689 [Eh]
	 Correlation Energy        =      -2.8931274296264915 [Eh]
	 Total Energy              =    -759.1475616404086395 [Eh]

	 ================> DF-SCS-MP2 Energies <==================
	-----------------------------------------------------------
	 SCS Same-Spin Scale       =       0.3333333333333333 [-]
	 SCS Opposite-Spin Scale   =       1.2000000000000000 [-]
	 SCS Same-Spin Energy      =      -0.2435956090265741 [Eh]
	 SCS Opposite-Spin Energy  =      -2.5948087230561225 [Eh]
	 SCS Correlation Energy    =      -2.8384043320826966 [Eh]
	 SCS Total Energy          =    -759.0928385428649108 [Eh]
	-----------------------------------------------------------

  Dipole Moment: [D]
     X:    -0.2389      Y:     0.7664      Z:     1.9489     Total:     2.1078

*** Psi4 exiting successfully. Buy a developer a beer!
