                               Psi4 1.4a3.dev225

  ==> Input File <==

--------------------------------------------------------------------------
#psi4
#
memory 32 gb

molecule  {
0 1
  O       -0.2992690     0.0680640    -1.4275900
  O        1.1877140     1.7322170     1.3773330
  O        0.9070830     2.3739170    -0.7855270
  O        2.2997080    -2.4217750    -0.0198700
  O       -3.4574230     0.0760400    -0.5564670
  O        2.6367000    -0.2338780    -0.4933410
  O       -2.4354340    -1.6059620     0.5620860
  C       -0.1069630     0.3116450    -0.0442490
  C        0.5596710    -0.9208170     0.5523550
  C       -1.4701590     0.6204980     0.6142450
  C        0.7459620     1.5647900     0.1124790
  C        1.9235890    -1.1209070    -0.0515450
  C       -2.4760910    -0.4336940     0.2256510
  H       -0.0681940    -1.7945300     0.3699280
  H        0.6734230    -0.8156830     1.6371260
  H       -1.8203340     1.5970830     0.2688470
  H       -1.3719830     0.6391850     1.7041930
  H       -0.0401320     0.8945830    -1.8856220
  H        1.6977060     2.5695530     1.3787680
  H        3.2470884    -2.4482930    -0.4238143
  H       -4.0402960    -0.6812640    -0.7756360
units angstrom
no_reorient  #important for SAPT in psi4, default
symmetry c1  #important for SAPT in psi4, default
}

set PROPERTIES_ORIGIN ["COM"]
properties('MP2/aug-cc-pvtz', properties = ['dipole'])
--------------------------------------------------------------------------

    Molecular point group: c1
  Charge       = 0
  Multiplicity = 1
  Basis Set: AUG-CC-PVTZ
    Blend: AUG-CC-PVTZ
  Basis Set: (AUG-CC-PVTZ AUX)
    Blend: AUG-CC-PVTZ-JKFIT

    Orbital Energies [Eh]
    ---------------------

    Doubly Occupied:

       1A    -20.637994     2A    -20.627843     3A    -20.626797
       4A    -20.578096     5A    -20.571133     6A    -20.562524
       7A    -20.560069     8A    -11.411280     9A    -11.406193
      10A    -11.401444    11A    -11.340591    12A    -11.273216
      13A    -11.261896    14A     -1.485343    15A     -1.472328
      16A     -1.463817    17A     -1.398772    18A     -1.371789
      19A     -1.368402    20A     -1.362333    21A     -1.116680
      22A     -1.038001    23A     -0.951575    24A     -0.850284
      25A     -0.826844    26A     -0.793497    27A     -0.759486
      28A     -0.727678    29A     -0.718291    30A     -0.711724
      31A     -0.703926    32A     -0.690681    33A     -0.668634
      34A     -0.652874    35A     -0.644042    36A     -0.637315
      37A     -0.621423    38A     -0.603574    39A     -0.594911
      40A     -0.578875    41A     -0.561479    42A     -0.558314
      43A     -0.545586    44A     -0.505611    45A     -0.494879
      46A     -0.489365    47A     -0.485618    48A     -0.471666
      49A     -0.464976    50A     -0.452306

  @DF-RHF Final Energy:  -756.25301846173454

   => Energetics <=

    Nuclear Repulsion Energy =            874.3386967819708389
    One-Electron Energy =               -2776.9794794690642448
    Two-Electron Energy =                1146.3877642253587510
    Total Energy =                       -756.2530184617346549
  Basis Set: (AUG-CC-PVTZ AUX)
    Blend: AUG-CC-PVTZ-RI
    Molecular point group: c1

    Geometry (in Angstrom), charge = 0, multiplicity = 1:

       Center              X                  Y                   Z               Mass
    ------------   -----------------  -----------------  -----------------  -----------------
         O           -0.308626553822     0.067873756880    -1.415673080955    15.994914619570
         O            1.178356446178     1.732026756880     1.389249919045    15.994914619570
         O            0.897725446178     2.373726756880    -0.773610080955    15.994914619570
         O            2.290350446178    -2.421965243120    -0.007953080955    15.994914619570
         O           -3.466780553822     0.075849756880    -0.544550080955    15.994914619570
         O            2.627342446178    -0.234068243120    -0.481424080955    15.994914619570
         O           -2.444791553822    -1.606152243120     0.574002919045    15.994914619570
         C           -0.116320553822     0.311454756880    -0.032332080955    12.000000000000
         C            0.550313446178    -0.921007243120     0.564271919045    12.000000000000
         C           -1.479516553822     0.620307756880     0.626161919045    12.000000000000
         C            0.736604446178     1.564599756880     0.124395919045    12.000000000000
         C            1.914231446178    -1.121097243120    -0.039628080955    12.000000000000
         C           -2.485448553822    -0.433884243120     0.237567919045    12.000000000000
         H           -0.077551553822    -1.794720243120     0.381844919045     1.007825032230
         H            0.664065446178    -0.815873243120     1.649042919045     1.007825032230
         H           -1.829691553822     1.596892756880     0.280763919045     1.007825032230
         H           -1.381340553822     0.638994756880     1.716109919045     1.007825032230
         H           -0.049489553822     0.894392756880    -1.873705080955     1.007825032230
         H            1.688348446178     2.569362756880     1.390684919045     1.007825032230
         H            3.237730846178    -2.448483243120    -0.411897380955     1.007825032230
         H           -4.049653553822    -0.681454243120    -0.763719080955     1.007825032230

  Basis Set: AUG-CC-PVTZ
    Blend: AUG-CC-PVTZ
  Basis Set: (AUG-CC-PVTZ AUX)
    Blend: AUG-CC-PVTZ-JKFIT
	 Reference Energy          =    -756.2530184617345412 [Eh]
	 Singles Energy            =      -0.0000000000000000 [Eh]
	 Same-Spin Energy          =      -0.7311918035484453 [Eh]
	 Opposite-Spin Energy      =      -2.1631267684953759 [Eh]
	 Correlation Energy        =      -2.8943185720438214 [Eh]
	 Total Energy              =    -759.1473370337783990 [Eh]

	 ================> DF-SCS-MP2 Energies <==================
	-----------------------------------------------------------
	 SCS Same-Spin Scale       =       0.3333333333333333 [-]
	 SCS Opposite-Spin Scale   =       1.2000000000000000 [-]
	 SCS Same-Spin Energy      =      -0.2437306011828151 [Eh]
	 SCS Opposite-Spin Energy  =      -2.5957521221944511 [Eh]
	 SCS Correlation Energy    =      -2.8394827233772659 [Eh]
	 SCS Total Energy          =    -759.0925011851118143 [Eh]
	-----------------------------------------------------------

  Dipole Moment: [D]
     X:    -0.1114      Y:     0.7190      Z:     1.8389     Total:     1.9776

*** Psi4 exiting successfully. Buy a developer a beer!
