                               Psi4 1.3.2 release

  ==> Input File <==

--------------------------------------------------------------------------
#psi4
#
memory 32 gb

molecule  {
0 1
  O       -0.2992330     0.0680890    -1.4276520
  O        1.1877390     1.7321380     1.3773370
  O        0.9070540     2.3739560    -0.7854760
  O        2.2997900    -2.4217320    -0.0198770
  O       -3.4576290     0.0760600    -0.5562400
  O        2.6367540    -0.2338110    -0.4932570
  O       -2.4353810    -1.6060190     0.5619510
  C       -0.1069590     0.3116290    -0.0442930
  C        0.5596730    -0.9208470     0.5522810
  C       -1.4701600     0.6204770     0.6141540
  C        0.7251791     1.5246750     0.1259355
  C        1.9236380    -1.1208730    -0.0515330
  C       -2.4761190    -0.4337210     0.2256320
  H       -0.0681530    -1.7945710     0.3697710
  H        0.6733550    -0.8157800     1.6370670
  H       -1.8203350     1.5970450     0.2687060
  H       -1.3720190     0.6392280     1.7041070
  H       -0.0402350     0.8946720    -1.8856460
  H        1.6977260     2.5694770     1.3788080
  H        3.2012140    -2.4469230    -0.4041650
  H       -4.0405490    -0.6812350    -0.7753220
units angstrom
no_reorient  #important for SAPT in psi4, default
symmetry c1  #important for SAPT in psi4, default
}

set PROPERTIES_ORIGIN ["COM"]
properties('MP2/aug-cc-pvtz', properties = ['dipole'])
--------------------------------------------------------------------------

    Molecular point group: c1
  Charge       = 0
  Multiplicity = 1
  Basis Set: AUG-CC-PVTZ
    Blend: AUG-CC-PVTZ
  Basis Set: (AUG-CC-PVTZ AUX)
    Blend: AUG-CC-PVTZ-JKFIT

    Orbital Energies [Eh]
    ---------------------

    Doubly Occupied:

       1A    -20.639052     2A    -20.628338     3A    -20.626086
       4A    -20.580305     5A    -20.565697     6A    -20.564407
       7A    -20.562199     8A    -11.415748     9A    -11.408236
      10A    -11.403756    11A    -11.342476    12A    -11.276421
      13A    -11.264809    14A     -1.480160    15A     -1.473866
      16A     -1.470817    17A     -1.398862    18A     -1.370561
      19A     -1.368355    20A     -1.351226    21A     -1.124072
      22A     -1.041765    23A     -0.963617    24A     -0.855709
      25A     -0.832432    26A     -0.799998    27A     -0.761921
      28A     -0.725876    29A     -0.718741    30A     -0.717379
      31A     -0.705200    32A     -0.692401    33A     -0.671252
      34A     -0.653433    35A     -0.642168    36A     -0.635480
      37A     -0.618651    38A     -0.605982    39A     -0.595809
      40A     -0.581482    41A     -0.563888    42A     -0.562251
      43A     -0.545391    44A     -0.498439    45A     -0.494755
      46A     -0.489660    47A     -0.483959    48A     -0.474333
      49A     -0.466565    50A     -0.454715

  @DF-RHF Final Energy:  -756.25031171482647

   => Energetics <=

    Nuclear Repulsion Energy =            875.0437964140591021
    One-Electron Energy =               -2778.2508062734373198
    Two-Electron Energy =                1146.9566981445516376
    Total Energy =                       -756.2503117148264664
  Basis Set: (AUG-CC-PVTZ AUX)
    Blend: AUG-CC-PVTZ-RI
    Molecular point group: c1

    Geometry (in Angstrom), charge = 0, multiplicity = 1:

       Center              X                  Y                   Z               Mass
    ------------   -----------------  -----------------  -----------------  -----------------
         O           -0.307051815150     0.070397797537    -1.416678523002    15.994914619570
         O            1.179920184850     1.734446797537     1.388310476998    15.994914619570
         O            0.899235184850     2.376264797537    -0.774502523002    15.994914619570
         O            2.291971184850    -2.419423202463    -0.008903523002    15.994914619570
         O           -3.465447815150     0.078368797537    -0.545266523002    15.994914619570
         O            2.628935184850    -0.231502202463    -0.482283523002    15.994914619570
         O           -2.443199815150    -1.603710202463     0.572924476998    15.994914619570
         C           -0.114777815150     0.313937797537    -0.033319523002    12.000000000000
         C            0.551854184850    -0.918538202463     0.563254476998    12.000000000000
         C           -1.477978815150     0.622785797537     0.625127476998    12.000000000000
         C            0.717360284850     1.526983797537     0.136908976998    12.000000000000
         C            1.915819184850    -1.118564202463    -0.040559523002    12.000000000000
         C           -2.483937815150    -0.431412202463     0.236605476998    12.000000000000
         H           -0.075971815150    -1.792262202463     0.380744476998     1.007825032230
         H            0.665536184850    -0.813471202463     1.648040476998     1.007825032230
         H           -1.828153815150     1.599353797537     0.279679476998     1.007825032230
         H           -1.379837815150     0.641536797537     1.715080476998     1.007825032230
         H           -0.048053815150     0.896980797537    -1.874672523002     1.007825032230
         H            1.689907184850     2.571785797537     1.389781476998     1.007825032230
         H            3.193395184850    -2.444614202463    -0.393191523002     1.007825032230
         H           -4.048367815150    -0.678926202463    -0.764348523002     1.007825032230

  Basis Set: AUG-CC-PVTZ
    Blend: AUG-CC-PVTZ
  Basis Set: (AUG-CC-PVTZ AUX)
    Blend: AUG-CC-PVTZ-JKFIT
	 Reference Energy          =    -756.2503117148264664 [Eh]
	 Singles Energy            =      -0.0000000000000000 [Eh]
	 Same-Spin Energy          =      -0.7317640838077356 [Eh]
	 Opposite-Spin Energy      =      -2.1638887907549709 [Eh]
	 Correlation Energy        =      -2.8956528745627064 [Eh]
	 Total Energy              =    -759.1459645893892230 [Eh]

	 ================> DF-SCS-MP2 Energies <==================
	-----------------------------------------------------------
	 SCS Same-Spin Scale       =       0.3333333333333333 [-]
	 SCS Opposite-Spin Scale   =       1.2000000000000000 [-]
	 SCS Same-Spin Energy      =      -0.2439213612692452 [Eh]
	 SCS Opposite-Spin Energy  =      -2.5966665489059650 [Eh]
	 SCS Correlation Energy    =      -2.8405879101752101 [Eh]
	 SCS Total Energy          =    -759.0908996250017253 [Eh]
	-----------------------------------------------------------

  Dipole Moment: [D]
     X:    -0.2696      Y:     0.5255      Z:     1.9505     Total:     2.0380

*** Psi4 exiting successfully. Buy a developer a beer!
