                               Psi4 1.3.2 release

  ==> Input File <==

--------------------------------------------------------------------------
#psi4
#
memory 32 gb

molecule  {
0 1
  O       -0.2992330     0.0680890    -1.4276520
  O        1.1877390     1.7321380     1.3773370
  O        0.9070540     2.3739560    -0.7854760
  O        2.2997900    -2.4217320    -0.0198770
  O       -3.4576290     0.0760600    -0.5562400
  O        2.6367540    -0.2338110    -0.4932570
  O       -2.4353810    -1.6060190     0.5619510
  C       -0.1069590     0.3116290    -0.0442930
  C        0.5596730    -0.9208470     0.5522810
  C       -1.4701600     0.6204770     0.6141540
  C        0.6805319     1.5399839    -0.0748686
  C        1.9236380    -1.1208730    -0.0515330
  C       -2.4761190    -0.4337210     0.2256320
  H       -0.0681530    -1.7945710     0.3697710
  H        0.6733550    -0.8157800     1.6370670
  H       -1.8203350     1.5970450     0.2687060
  H       -1.3720190     0.6392280     1.7041070
  H       -0.0402350     0.8946720    -1.8856460
  H        1.6977260     2.5694770     1.3788080
  H        3.2012140    -2.4469230    -0.4041650
  H       -4.0405490    -0.6812350    -0.7753220
units angstrom
no_reorient  #important for SAPT in psi4, default
symmetry c1  #important for SAPT in psi4, default
}

set PROPERTIES_ORIGIN ["COM"]
properties('MP2/aug-cc-pvtz', properties = ['dipole'])
--------------------------------------------------------------------------

    Molecular point group: c1
  Charge       = 0
  Multiplicity = 1
  Basis Set: AUG-CC-PVTZ
    Blend: AUG-CC-PVTZ
  Basis Set: (AUG-CC-PVTZ AUX)
    Blend: AUG-CC-PVTZ-JKFIT

    Orbital Energies [Eh]
    ---------------------

    Doubly Occupied:

       1A    -20.630858     2A    -20.626151     3A    -20.605050
       4A    -20.587031     5A    -20.575823     6A    -20.566731
       7A    -20.562003     8A    -11.410644     9A    -11.409790
      10A    -11.403918    11A    -11.348090    12A    -11.278963
      13A    -11.266919    14A     -1.520841    15A     -1.476549
      16A     -1.471737    17A     -1.405709    18A     -1.372852
      19A     -1.368394    20A     -1.332155    21A     -1.123473
      22A     -1.043003    23A     -0.964807    24A     -0.849810
      25A     -0.833170    26A     -0.787426    27A     -0.756274
      28A     -0.726913    29A     -0.721137    30A     -0.718057
      31A     -0.710712    32A     -0.696822    33A     -0.674782
      34A     -0.652319    35A     -0.642848    36A     -0.631232
      37A     -0.626833    38A     -0.605193    39A     -0.597262
      40A     -0.584561    41A     -0.567087    42A     -0.563248
      43A     -0.558360    44A     -0.504393    45A     -0.499638
      46A     -0.489071    47A     -0.485427    48A     -0.475661
      49A     -0.467993    50A     -0.454044

  @DF-RHF Final Energy:  -756.21770626577108

   => Energetics <=

    Nuclear Repulsion Energy =            875.7038204437307058
    One-Electron Energy =               -2779.3795219327494124
    Two-Electron Energy =                1147.4579952232475080
    Total Energy =                       -756.2177062657710849
  Basis Set: (AUG-CC-PVTZ AUX)
    Blend: AUG-CC-PVTZ-RI
    Molecular point group: c1

    Geometry (in Angstrom), charge = 0, multiplicity = 1:

       Center              X                  Y                   Z               Mass
    ------------   -----------------  -----------------  -----------------  -----------------
         O           -0.304261757539     0.069441125832    -1.404130031553    15.994914619570
         O            1.182710242461     1.733490125832     1.400858968447    15.994914619570
         O            0.902025242461     2.375308125832    -0.761954031553    15.994914619570
         O            2.294761242461    -2.420379874168     0.003644968447    15.994914619570
         O           -3.462657757539     0.077412125832    -0.532718031553    15.994914619570
         O            2.631725242461    -0.232458874168    -0.469735031553    15.994914619570
         O           -2.440409757539    -1.604666874168     0.585472968447    15.994914619570
         C           -0.111987757539     0.312981125832    -0.020771031553    12.000000000000
         C            0.554644242461    -0.919494874168     0.575802968447    12.000000000000
         C           -1.475188757539     0.621829125832     0.637675968447    12.000000000000
         C            0.675503142461     1.541336025832    -0.051346631553    12.000000000000
         C            1.918609242461    -1.119520874168    -0.028011031553    12.000000000000
         C           -2.481147757539    -0.432368874168     0.249153968447    12.000000000000
         H           -0.073181757539    -1.793218874168     0.393292968447     1.007825032230
         H            0.668326242461    -0.814427874168     1.660588968447     1.007825032230
         H           -1.825363757539     1.598397125832     0.292227968447     1.007825032230
         H           -1.377047757539     0.640580125832     1.727628968447     1.007825032230
         H           -0.045263757539     0.896024125832    -1.862124031553     1.007825032230
         H            1.692697242461     2.570829125832     1.402329968447     1.007825032230
         H            3.196185242461    -2.445570874168    -0.380643031553     1.007825032230
         H           -4.045577757539    -0.679882874168    -0.751800031553     1.007825032230

  Basis Set: AUG-CC-PVTZ
    Blend: AUG-CC-PVTZ
  Basis Set: (AUG-CC-PVTZ AUX)
    Blend: AUG-CC-PVTZ-JKFIT
	 Reference Energy          =    -756.2177062657710849 [Eh]
	 Singles Energy            =      -0.0000000000000000 [Eh]
	 Same-Spin Energy          =      -0.7304905173086897 [Eh]
	 Opposite-Spin Energy      =      -2.1633257217377482 [Eh]
	 Correlation Energy        =      -2.8938162390464379 [Eh]
	 Total Energy              =    -759.1115225048175716 [Eh]

	 ================> DF-SCS-MP2 Energies <==================
	-----------------------------------------------------------
	 SCS Same-Spin Scale       =       0.3333333333333333 [-]
	 SCS Opposite-Spin Scale   =       1.2000000000000000 [-]
	 SCS Same-Spin Energy      =      -0.2434968391028966 [Eh]
	 SCS Opposite-Spin Energy  =      -2.5959908660852977 [Eh]
	 SCS Correlation Energy    =      -2.8394877051881942 [Eh]
	 SCS Total Energy          =    -759.0571939709592471 [Eh]
	-----------------------------------------------------------

  Dipole Moment: [D]
     X:    -0.7694      Y:     0.4760      Z:     0.3827     Total:     0.9824

*** Psi4 exiting successfully. Buy a developer a beer!
