                               Psi4 1.3.2 release

  ==> Input File <==

--------------------------------------------------------------------------
#psi4
#
memory 32 gb

molecule  {
0 1
  O       -0.2992330     0.0680890    -1.4276520
  O        1.1877390     1.7321380     1.3773370
  O        0.9070540     2.3739560    -0.7854760
  O        2.2997900    -2.4217320    -0.0198770
  O       -3.4576290     0.0760600    -0.5562400
  O        2.6367540    -0.2338110    -0.4932570
  O       -2.4353810    -1.6060190     0.5619510
  C       -0.1069590     0.3116290    -0.0442930
  C        0.5596730    -0.9208470     0.5522810
  C       -1.4701600     0.6204770     0.6141540
  C        0.7459700     1.5647750     0.1124900
  C        1.9236380    -1.1208730    -0.0515330
  C       -2.4761190    -0.4337210     0.2256320
  H       -0.0681530    -1.7945710     0.3697710
  H        0.6733550    -0.8157800     1.6370670
  H       -1.8203350     1.5970450     0.2687060
  H       -1.3720190     0.6392280     1.7041070
  H       -0.0138022     0.9790314    -1.9323879
  H        1.6977260     2.5694770     1.3788080
  H        3.2012140    -2.4469230    -0.4041650
  H       -4.0405490    -0.6812350    -0.7753220
units angstrom
no_reorient  #important for SAPT in psi4, default
symmetry c1  #important for SAPT in psi4, default
}

set PROPERTIES_ORIGIN ["COM"]
properties('MP2/aug-cc-pvtz', properties = ['dipole'])
--------------------------------------------------------------------------

    Molecular point group: c1
  Charge       = 0
  Multiplicity = 1
  Basis Set: AUG-CC-PVTZ
    Blend: AUG-CC-PVTZ
  Basis Set: (AUG-CC-PVTZ AUX)
    Blend: AUG-CC-PVTZ-JKFIT

    Orbital Energies [Eh]
    ---------------------

    Doubly Occupied:

       1A    -20.638777     2A    -20.626148     3A    -20.624546
       4A    -20.581497     5A    -20.573009     6A    -20.561833
       7A    -20.560479     8A    -11.412002     9A    -11.405539
      10A    -11.401859    11A    -11.339034    12A    -11.272410
      13A    -11.261285    14A     -1.486059    15A     -1.471655
      16A     -1.469728    17A     -1.390502    18A     -1.369237
      19A     -1.367813    20A     -1.360265    21A     -1.112008
      22A     -1.038087    23A     -0.951745    24A     -0.851009
      25A     -0.829361    26A     -0.790267    27A     -0.752565
      28A     -0.728633    29A     -0.717524    30A     -0.715558
      31A     -0.703126    32A     -0.689365    33A     -0.667962
      34A     -0.653584    35A     -0.638772    36A     -0.637501
      37A     -0.621599    38A     -0.602978    39A     -0.593920
      40A     -0.579425    41A     -0.559932    42A     -0.556942
      43A     -0.536499    44A     -0.506743    45A     -0.493793
      46A     -0.490043    47A     -0.486389    48A     -0.469287
      49A     -0.464731    50A     -0.452146

  @DF-RHF Final Energy:  -756.24505669416806

   => Energetics <=

    Nuclear Repulsion Energy =            874.0604481780159176
    One-Electron Energy =               -2776.4806727724862867
    Two-Electron Energy =                1146.1751679003023128
    Total Energy =                       -756.2450566941679426
  Basis Set: (AUG-CC-PVTZ AUX)
    Blend: AUG-CC-PVTZ-RI
    Molecular point group: c1

    Geometry (in Angstrom), charge = 0, multiplicity = 1:

       Center              X                  Y                   Z               Mass
    ------------   -----------------  -----------------  -----------------  -----------------
         O           -0.308489792277     0.067449152256    -1.415592979542    15.994914619570
         O            1.178482207723     1.731498152256     1.389396020458    15.994914619570
         O            0.897797207723     2.373316152256    -0.773416979542    15.994914619570
         O            2.290533207723    -2.422371847744    -0.007817979542    15.994914619570
         O           -3.466885792277     0.075420152256    -0.544180979542    15.994914619570
         O            2.627497207723    -0.234450847744    -0.481197979542    15.994914619570
         O           -2.444637792277    -1.606658847744     0.574010020458    15.994914619570
         C           -0.116215792277     0.310989152256    -0.032233979542    12.000000000000
         C            0.550416207723    -0.921486847744     0.564340020458    12.000000000000
         C           -1.479416792277     0.619837152256     0.626213020458    12.000000000000
         C            0.736713207723     1.564135152256     0.124549020458    12.000000000000
         C            1.914381207723    -1.121512847744    -0.039473979542    12.000000000000
         C           -2.485375792277    -0.434360847744     0.237691020458    12.000000000000
         H           -0.077409792277    -1.795210847744     0.381830020458     1.007825032230
         H            0.664098207723    -0.816419847744     1.649126020458     1.007825032230
         H           -1.829591792277     1.596405152256     0.280765020458     1.007825032230
         H           -1.381275792277     0.638588152256     1.716166020458     1.007825032230
         H           -0.023058992277     0.978391552256    -1.920328879542     1.007825032230
         H            1.688469207723     2.568837152256     1.390867020458     1.007825032230
         H            3.191957207723    -2.447562847744    -0.392105979542     1.007825032230
         H           -4.049805792277    -0.681874847744    -0.763262979542     1.007825032230

  Basis Set: AUG-CC-PVTZ
    Blend: AUG-CC-PVTZ
  Basis Set: (AUG-CC-PVTZ AUX)
    Blend: AUG-CC-PVTZ-JKFIT
	 Reference Energy          =    -756.2450566941680563 [Eh]
	 Singles Energy            =      -0.0000000000000000 [Eh]
	 Same-Spin Energy          =      -0.7320252542843060 [Eh]
	 Opposite-Spin Energy      =      -2.1648138411984075 [Eh]
	 Correlation Energy        =      -2.8968390954827132 [Eh]
	 Total Energy              =    -759.1418957896507891 [Eh]

	 ================> DF-SCS-MP2 Energies <==================
	-----------------------------------------------------------
	 SCS Same-Spin Scale       =       0.3333333333333333 [-]
	 SCS Opposite-Spin Scale   =       1.2000000000000000 [-]
	 SCS Same-Spin Energy      =      -0.2440084180947686 [Eh]
	 SCS Opposite-Spin Energy  =      -2.5977766094380890 [Eh]
	 SCS Correlation Energy    =      -2.8417850275328576 [Eh]
	 SCS Total Energy          =    -759.0868417217009210 [Eh]
	-----------------------------------------------------------

  Dipole Moment: [D]
     X:    -0.1049      Y:     0.8696      Z:     1.8141     Total:     2.0144

*** Psi4 exiting successfully. Buy a developer a beer!
