                               Psi4 1.3.2 release

  ==> Input File <==

--------------------------------------------------------------------------
#psi4
#
memory 32 gb

molecule  {
0 1
  O       -0.2992330     0.0680890    -1.4276520
  O        1.1877390     1.7321380     1.3773370
  O        0.9070540     2.3739560    -0.7854760
  O        2.2997900    -2.4217320    -0.0198770
  O       -3.4576290     0.0760600    -0.5562400
  O        2.6367540    -0.2338110    -0.4932570
  O       -2.4353810    -1.6060190     0.5619510
  C       -0.1069590     0.3116290    -0.0442930
  C        0.5596730    -0.9208470     0.5522810
  C       -1.4701600     0.6204770     0.6141540
  C        0.7459700     1.5647750     0.1124900
  C        1.9236380    -1.1208730    -0.0515330
  C       -2.4761190    -0.4337210     0.2256320
  H       -0.0681530    -1.7945710     0.3697710
  H        0.6733550    -0.8157800     1.6370670
  H       -1.8203350     1.5970450     0.2687060
  H       -1.3720190     0.6392280     1.7041070
  H       -0.0402350     0.8946720    -1.8856460
  H        1.8017603     2.7402891     1.3791081
  H        3.2012140    -2.4469230    -0.4041650
  H       -4.0405490    -0.6812350    -0.7753220
units angstrom
no_reorient  #important for SAPT in psi4, default
symmetry c1  #important for SAPT in psi4, default
}

set PROPERTIES_ORIGIN ["COM"]
properties('MP2/aug-cc-pvtz', properties = ['dipole'])
--------------------------------------------------------------------------

    Molecular point group: c1
  Charge       = 0
  Multiplicity = 1
  Basis Set: AUG-CC-PVTZ
    Blend: AUG-CC-PVTZ
  Basis Set: (AUG-CC-PVTZ AUX)
    Blend: AUG-CC-PVTZ-JKFIT

    Orbital Energies [Eh]
    ---------------------

    Doubly Occupied:

       1A    -20.645515     2A    -20.626076     3A    -20.624008
       4A    -20.577107     5A    -20.567546     6A    -20.561733
       7A    -20.559697     8A    -11.407457     9A    -11.405312
      10A    -11.401150    11A    -11.339815    12A    -11.272056
      13A    -11.260790    14A     -1.472359    15A     -1.470610
      16A     -1.463639    17A     -1.391155    18A     -1.368093
      19A     -1.366447    20A     -1.359828    21A     -1.113995
      22A     -1.037745    23A     -0.942985    24A     -0.842073
      25A     -0.828383    26A     -0.784450    27A     -0.752062
      28A     -0.720552    29A     -0.715059    30A     -0.709943
      31A     -0.697390    32A     -0.689425    33A     -0.667737
      34A     -0.650507    35A     -0.636815    36A     -0.629268
      37A     -0.619340    38A     -0.602178    39A     -0.593405
      40A     -0.579018    41A     -0.560773    42A     -0.557221
      43A     -0.538338    44A     -0.500999    45A     -0.493973
      46A     -0.488641    47A     -0.483520    48A     -0.470666
      49A     -0.464075    50A     -0.450864

  @DF-RHF Final Energy:  -756.22318569686990

   => Energetics <=

    Nuclear Repulsion Energy =            873.4015565706980624
    One-Electron Energy =               -2775.3258983478131086
    Two-Electron Energy =                1145.7011560802450276
    Total Energy =                       -756.2231856968699049
  Basis Set: (AUG-CC-PVTZ AUX)
    Blend: AUG-CC-PVTZ-RI
    Molecular point group: c1

    Geometry (in Angstrom), charge = 0, multiplicity = 1:

       Center              X                  Y                   Z               Mass
    ------------   -----------------  -----------------  -----------------  -----------------
         O           -0.308897072155     0.066995418177    -1.415839872450    15.994914619570
         O            1.178074927845     1.731044418177     1.389149127550    15.994914619570
         O            0.897389927845     2.372862418177    -0.773663872450    15.994914619570
         O            2.290125927845    -2.422825581823    -0.008064872450    15.994914619570
         O           -3.467293072155     0.074966418177    -0.544427872450    15.994914619570
         O            2.627089927845    -0.234904581823    -0.481444872450    15.994914619570
         O           -2.445045072155    -1.607112581823     0.573763127550    15.994914619570
         C           -0.116623072155     0.310535418177    -0.032480872450    12.000000000000
         C            0.550008927845    -0.921940581823     0.564093127550    12.000000000000
         C           -1.479824072155     0.619383418177     0.625966127550    12.000000000000
         C            0.736305927845     1.563681418177     0.124302127550    12.000000000000
         C            1.913973927845    -1.121966581823    -0.039720872450    12.000000000000
         C           -2.485783072155    -0.434814581823     0.237444127550    12.000000000000
         H           -0.077817072155    -1.795664581823     0.381583127550     1.007825032230
         H            0.663690927845    -0.816873581823     1.648879127550     1.007825032230
         H           -1.829999072155     1.595951418177     0.280518127550     1.007825032230
         H           -1.381683072155     0.638134418177     1.715919127550     1.007825032230
         H           -0.049899072155     0.893578418177    -1.873833872450     1.007825032230
         H            1.792096227845     2.739195518177     1.390920227550     1.007825032230
         H            3.191549927845    -2.448016581823    -0.392352872450     1.007825032230
         H           -4.050213072155    -0.682328581823    -0.763509872450     1.007825032230

  Basis Set: AUG-CC-PVTZ
    Blend: AUG-CC-PVTZ
  Basis Set: (AUG-CC-PVTZ AUX)
    Blend: AUG-CC-PVTZ-JKFIT
	 Reference Energy          =    -756.2231856968699049 [Eh]
	 Singles Energy            =      -0.0000000000000000 [Eh]
	 Same-Spin Energy          =      -0.7331173601577294 [Eh]
	 Opposite-Spin Energy      =      -2.1681082882028502 [Eh]
	 Correlation Energy        =      -2.9012256483605796 [Eh]
	 Total Energy              =    -759.1244113452304418 [Eh]

	 ================> DF-SCS-MP2 Energies <==================
	-----------------------------------------------------------
	 SCS Same-Spin Scale       =       0.3333333333333333 [-]
	 SCS Opposite-Spin Scale   =       1.2000000000000000 [-]
	 SCS Same-Spin Energy      =      -0.2443724533859098 [Eh]
	 SCS Opposite-Spin Energy  =      -2.6017299458434202 [Eh]
	 SCS Correlation Energy    =      -2.8461023992293302 [Eh]
	 SCS Total Energy          =    -759.0692880960992852 [Eh]
	-----------------------------------------------------------

  Dipole Moment: [D]
     X:    -0.0156      Y:     0.9643      Z:     1.9158     Total:     2.1449

*** Psi4 exiting successfully. Buy a developer a beer!
