                               Psi4 1.4a3.dev225

  ==> Input File <==

--------------------------------------------------------------------------
#psi4
#
memory 32 gb

molecule  {
0 1
  O       -0.2992690     0.0680640    -1.4275900
  O        1.1877140     1.7322170     1.3773330
  O        0.9070830     2.3739170    -0.7855270
  O        2.2997080    -2.4217750    -0.0198700
  O       -3.4574230     0.0760400    -0.5564670
  O        2.6367000    -0.2338780    -0.4933410
  O       -2.4354340    -1.6059620     0.5620860
  C       -0.1069630     0.3116450    -0.0442490
  C        0.5596710    -0.9208170     0.5523550
  C       -1.4701590     0.6204980     0.6142450
  C        0.7459620     1.5647900     0.1124790
  C        1.9180355    -1.1016992    -0.0520127
  C       -2.4760910    -0.4336940     0.2256510
  H       -0.0681940    -1.7945300     0.3699280
  H        0.6734230    -0.8156830     1.6371260
  H       -1.8203340     1.5970830     0.2688470
  H       -1.3719830     0.6391850     1.7041930
  H       -0.0401320     0.8945830    -1.8856220
  H        1.6977060     2.5695530     1.3787680
  H        3.2011100    -2.4470060    -0.4042100
  H       -4.0402960    -0.6812640    -0.7756360
units angstrom
no_reorient  #important for SAPT in psi4, default
symmetry c1  #important for SAPT in psi4, default
}

set PROPERTIES_ORIGIN ["COM"]
properties('MP2/aug-cc-pvtz', properties = ['dipole'])
--------------------------------------------------------------------------

    Molecular point group: c1
  Charge       = 0
  Multiplicity = 1
  Basis Set: AUG-CC-PVTZ
    Blend: AUG-CC-PVTZ
  Basis Set: (AUG-CC-PVTZ AUX)
    Blend: AUG-CC-PVTZ-JKFIT

    Orbital Energies [Eh]
    ---------------------

    Doubly Occupied:

       1A    -20.639274     2A    -20.627296     3A    -20.619147
       4A    -20.579258     5A    -20.572467     6A    -20.564278
       7A    -20.563109     8A    -11.412480     9A    -11.406776
      10A    -11.402009    11A    -11.341518    12A    -11.273888
      13A    -11.262620    14A     -1.486725    15A     -1.472861
      16A     -1.465732    17A     -1.400003    18A     -1.373211
      19A     -1.369356    20A     -1.368001    21A     -1.118469
      22A     -1.040663    23A     -0.953341    24A     -0.852084
      25A     -0.828367    26A     -0.794673    27A     -0.760748
      28A     -0.728554    29A     -0.719106    30A     -0.716236
      31A     -0.705187    32A     -0.691044    33A     -0.668931
      34A     -0.652907    35A     -0.644949    36A     -0.637957
      37A     -0.623179    38A     -0.605711    39A     -0.595226
      40A     -0.582194    41A     -0.561902    42A     -0.560057
      43A     -0.546670    44A     -0.507116    45A     -0.495745
      46A     -0.493252    47A     -0.486863    48A     -0.473220
      49A     -0.466129    50A     -0.453619

  @DF-RHF Final Energy:  -756.25764459991899

   => Energetics <=

    Nuclear Repulsion Energy =            874.8741616813764495
    One-Electron Energy =               -2777.9354037476600752
    Two-Electron Energy =                1146.8035974663646357
    Total Energy =                       -756.2576445999191037
  Basis Set: (AUG-CC-PVTZ AUX)
    Blend: AUG-CC-PVTZ-RI
    Molecular point group: c1

    Geometry (in Angstrom), charge = 0, multiplicity = 1:

       Center              X                  Y                   Z               Mass
    ------------   -----------------  -----------------  -----------------  -----------------
         O           -0.308038198117     0.066666683564    -1.415746744055    15.994914619570
         O            1.178944801883     1.730819683564     1.389176255945    15.994914619570
         O            0.898313801883     2.372519683564    -0.773683744055    15.994914619570
         O            2.290938801883    -2.423172316436    -0.008026744055    15.994914619570
         O           -3.466192198117     0.074642683564    -0.544623744055    15.994914619570
         O            2.627930801883    -0.235275316436    -0.481497744055    15.994914619570
         O           -2.444203198117    -1.607359316436     0.573929255945    15.994914619570
         C           -0.115732198117     0.310247683564    -0.032405744055    12.000000000000
         C            0.550901801883    -0.922214316436     0.564198255945    12.000000000000
         C           -1.478928198117     0.619100683564     0.626088255945    12.000000000000
         C            0.737192801883     1.563392683564     0.124322255945    12.000000000000
         C            1.909266301883    -1.103096516436    -0.040169444055    12.000000000000
         C           -2.484860198117    -0.435091316436     0.237494255945    12.000000000000
         H           -0.076963198117    -1.795927316436     0.381771255945     1.007825032230
         H            0.664653801883    -0.817080316436     1.648969255945     1.007825032230
         H           -1.829103198117     1.595685683564     0.280690255945     1.007825032230
         H           -1.380752198117     0.637787683564     1.716036255945     1.007825032230
         H           -0.048901198117     0.893185683564    -1.873778744055     1.007825032230
         H            1.688936801883     2.568155683564     1.390611255945     1.007825032230
         H            3.192340801883    -2.448403316436    -0.392366744055     1.007825032230
         H           -4.049065198117    -0.682661316436    -0.763792744055     1.007825032230

  Basis Set: AUG-CC-PVTZ
    Blend: AUG-CC-PVTZ
  Basis Set: (AUG-CC-PVTZ AUX)
    Blend: AUG-CC-PVTZ-JKFIT
	 Reference Energy          =    -756.2576445999189900 [Eh]
	 Singles Energy            =      -0.0000000000000000 [Eh]
	 Same-Spin Energy          =      -0.7305586280211293 [Eh]
	 Opposite-Spin Energy      =      -2.1617299227760718 [Eh]
	 Correlation Energy        =      -2.8922885507972009 [Eh]
	 Total Energy              =    -759.1499331507161514 [Eh]

	 ================> DF-SCS-MP2 Energies <==================
	-----------------------------------------------------------
	 SCS Same-Spin Scale       =       0.3333333333333333 [-]
	 SCS Opposite-Spin Scale   =       1.2000000000000000 [-]
	 SCS Same-Spin Energy      =      -0.2435195426737097 [Eh]
	 SCS Opposite-Spin Energy  =      -2.5940759073312862 [Eh]
	 SCS Correlation Energy    =      -2.8375954500049958 [Eh]
	 SCS Total Energy          =    -759.0952400499239729 [Eh]
	-----------------------------------------------------------

  Dipole Moment: [D]
     X:    -0.2247      Y:     0.9155      Z:     1.8539     Total:     2.0798

*** Psi4 exiting successfully. Buy a developer a beer!
