                               Psi4 1.3.2 release

  ==> Input File <==

--------------------------------------------------------------------------
#psi4
#
memory 32 gb

molecule  {
0 1
  O       -0.2992330     0.0680890    -1.4276520
  O        1.1877390     1.7321380     1.3773370
  O        0.9070540     2.3739560    -0.7854760
  O        2.2997900    -2.4217320    -0.0198770
  O       -3.4576290     0.0760600    -0.5562400
  O        2.6367540    -0.2338110    -0.4932570
  O       -2.4353810    -1.6060190     0.5619510
  C       -0.1069590     0.3116290    -0.0442930
  C        0.5596730    -0.9208470     0.5522810
  C       -1.4701600     0.6204770     0.6141540
  C        0.7459700     1.5647750     0.1124900
  C        1.9236380    -1.1208730    -0.0515330
  C       -2.4761190    -0.4337210     0.2256320
  H       -0.0681530    -1.7945710     0.3697710
  H        0.6733550    -0.8157800     1.6370670
  H       -1.8203350     1.5970450     0.2687060
  H       -1.3720190     0.6392280     1.7041070
  H       -0.0402350     0.8946720    -1.8856460
  H        1.6977260     2.5694770     1.3788080
  H        3.0172956    -2.4417833    -0.3257583
  H       -4.0405490    -0.6812350    -0.7753220
units angstrom
no_reorient  #important for SAPT in psi4, default
symmetry c1  #important for SAPT in psi4, default
}

set PROPERTIES_ORIGIN ["COM"]
properties('MP2/aug-cc-pvtz', properties = ['dipole'])
--------------------------------------------------------------------------

    Molecular point group: c1
  Charge       = 0
  Multiplicity = 1
  Basis Set: AUG-CC-PVTZ
    Blend: AUG-CC-PVTZ
  Basis Set: (AUG-CC-PVTZ AUX)
    Blend: AUG-CC-PVTZ-JKFIT

    Orbital Energies [Eh]
    ---------------------

    Doubly Occupied:

       1A    -20.639189     2A    -20.627603     3A    -20.608270
       4A    -20.579383     5A    -20.572369     6A    -20.565338
       7A    -20.563452     8A    -11.412472     9A    -11.407118
      10A    -11.406563    11A    -11.341850    12A    -11.274251
      13A    -11.263307    14A     -1.515735    15A     -1.486133
      16A     -1.473179    17A     -1.401131    18A     -1.386902
      19A     -1.372388    20A     -1.369184    21A     -1.119198
      22A     -1.045166    23A     -0.960919    24A     -0.880463
      25A     -0.839376    26A     -0.801370    27A     -0.762389
      28A     -0.732884    29A     -0.729412    30A     -0.719303
      31A     -0.708084    32A     -0.693076    33A     -0.671984
      34A     -0.658122    35A     -0.646701    36A     -0.640778
      37A     -0.627504    38A     -0.608386    39A     -0.597161
      40A     -0.585812    41A     -0.566003    42A     -0.561721
      43A     -0.547329    44A     -0.507253    45A     -0.497181
      46A     -0.494892    47A     -0.487102    48A     -0.473728
      49A     -0.468084    50A     -0.454006

  @DF-RHF Final Energy:  -756.21442541358806

   => Energetics <=

    Nuclear Repulsion Energy =            876.1802024171406629
    One-Electron Energy =               -2780.0868484886059377
    Two-Electron Energy =                1147.6922206578772148
    Total Energy =                       -756.2144254135880601
  Basis Set: (AUG-CC-PVTZ AUX)
    Blend: AUG-CC-PVTZ-RI
    Molecular point group: c1

    Geometry (in Angstrom), charge = 0, multiplicity = 1:

       Center              X                  Y                   Z               Mass
    ------------   -----------------  -----------------  -----------------  -----------------
         O           -0.307385795432     0.067864925015    -1.416249803270    15.994914619570
         O            1.179586204568     1.731913925015     1.388739196730    15.994914619570
         O            0.898901204568     2.373731925015    -0.774073803270    15.994914619570
         O            2.291637204568    -2.421956074985    -0.008474803270    15.994914619570
         O           -3.465781795432     0.075835925015    -0.544837803270    15.994914619570
         O            2.628601204568    -0.234035074985    -0.481854803270    15.994914619570
         O           -2.443533795432    -1.606243074985     0.573353196730    15.994914619570
         C           -0.115111795432     0.311404925015    -0.032890803270    12.000000000000
         C            0.551520204568    -0.921071074985     0.563683196730    12.000000000000
         C           -1.478312795432     0.620252925015     0.625556196730    12.000000000000
         C            0.737817204568     1.564550925015     0.123892196730    12.000000000000
         C            1.915485204568    -1.121097074985    -0.040130803270    12.000000000000
         C           -2.484271795432    -0.433945074985     0.237034196730    12.000000000000
         H           -0.076305795432    -1.794795074985     0.381173196730     1.007825032230
         H            0.665202204568    -0.816004074985     1.648469196730     1.007825032230
         H           -1.828487795432     1.596820925015     0.280108196730     1.007825032230
         H           -1.380171795432     0.639003925015     1.715509196730     1.007825032230
         H           -0.048387795432     0.894447925015    -1.874243803270     1.007825032230
         H            1.689573204568     2.569252925015     1.390210196730     1.007825032230
         H            3.009142804568    -2.442007374985    -0.314356103270     1.007825032230
         H           -4.048701795432    -0.681459074985    -0.763919803270     1.007825032230

  Basis Set: AUG-CC-PVTZ
    Blend: AUG-CC-PVTZ
  Basis Set: (AUG-CC-PVTZ AUX)
    Blend: AUG-CC-PVTZ-JKFIT
	 Reference Energy          =    -756.2144254135880601 [Eh]
	 Singles Energy            =      -0.0000000000000000 [Eh]
	 Same-Spin Energy          =      -0.7281038701762577 [Eh]
	 Opposite-Spin Energy      =      -2.1563453554870775 [Eh]
	 Correlation Energy        =      -2.8844492256633352 [Eh]
	 Total Energy              =    -759.0988746392514486 [Eh]

	 ================> DF-SCS-MP2 Energies <==================
	-----------------------------------------------------------
	 SCS Same-Spin Scale       =       0.3333333333333333 [-]
	 SCS Opposite-Spin Scale   =       1.2000000000000000 [-]
	 SCS Same-Spin Energy      =      -0.2427012900587525 [Eh]
	 SCS Opposite-Spin Energy  =      -2.5876144265844929 [Eh]
	 SCS Correlation Energy    =      -2.8303157166432453 [Eh]
	 SCS Total Energy          =    -759.0447411302312730 [Eh]
	-----------------------------------------------------------

  Dipole Moment: [D]
     X:    -0.3994      Y:     0.8466      Z:     1.9434     Total:     2.1571

*** Psi4 exiting successfully. Buy a developer a beer!
