                               Psi4 1.3.2 release

  ==> Input File <==

--------------------------------------------------------------------------
#psi4
#
memory 32 gb

molecule  {
0 1
  O       -0.2992330     0.0680890    -1.4276520
  O        1.1189232     1.6128949     1.4092546
  O        0.9070540     2.3739560    -0.7854760
  O        2.2997900    -2.4217320    -0.0198770
  O       -3.4576290     0.0760600    -0.5562400
  O        2.6367540    -0.2338110    -0.4932570
  O       -2.4353810    -1.6060190     0.5619510
  C       -0.1069590     0.3116290    -0.0442930
  C        0.5596730    -0.9208470     0.5522810
  C       -1.4701600     0.6204770     0.6141540
  C        0.7459700     1.5647750     0.1124900
  C        1.9236380    -1.1208730    -0.0515330
  C       -2.4761190    -0.4337210     0.2256320
  H       -0.0681530    -1.7945710     0.3697710
  H        0.6733550    -0.8157800     1.6370670
  H       -1.8203350     1.5970450     0.2687060
  H       -1.3720190     0.6392280     1.7041070
  H       -0.0402350     0.8946720    -1.8856460
  H        1.6977260     2.5694770     1.3788080
  H        3.2012140    -2.4469230    -0.4041650
  H       -4.0405490    -0.6812350    -0.7753220
units angstrom
no_reorient  #important for SAPT in psi4, default
symmetry c1  #important for SAPT in psi4, default
}

set PROPERTIES_ORIGIN ["COM"]
properties('MP2/aug-cc-pvtz', properties = ['dipole'])
--------------------------------------------------------------------------

    Molecular point group: c1
  Charge       = 0
  Multiplicity = 1
  Basis Set: AUG-CC-PVTZ
    Blend: AUG-CC-PVTZ
  Basis Set: (AUG-CC-PVTZ AUX)
    Blend: AUG-CC-PVTZ-JKFIT

    Orbital Energies [Eh]
    ---------------------

    Doubly Occupied:

       1A    -20.653850     2A    -20.625393     3A    -20.624048
       4A    -20.577870     5A    -20.574366     6A    -20.560902
       7A    -20.560042     8A    -11.412686     9A    -11.404438
      10A    -11.401194    11A    -11.334336    12A    -11.270787
      13A    -11.259245    14A     -1.477911    15A     -1.470718
      16A     -1.468471    17A     -1.394635    18A     -1.374056
      19A     -1.367231    20A     -1.365472    21A     -1.112524
      22A     -1.036820    23A     -0.944955    24A     -0.843782
      25A     -0.828147    26A     -0.783993    27A     -0.754366
      28A     -0.723209    29A     -0.715152    30A     -0.714737
      31A     -0.702543    32A     -0.689769    33A     -0.666898
      34A     -0.653371    35A     -0.642765    36A     -0.636476
      37A     -0.623126    38A     -0.602197    39A     -0.594087
      40A     -0.578934    41A     -0.559414    42A     -0.555508
      43A     -0.542694    44A     -0.510212    45A     -0.493500
      46A     -0.489761    47A     -0.485514    48A     -0.469268
      49A     -0.464135    50A     -0.449746

  @DF-RHF Final Energy:  -756.23031682705232

   => Energetics <=

    Nuclear Repulsion Energy =            875.9940251853835207
    One-Electron Energy =               -2780.3581813748965033
    Two-Electron Energy =                1148.1338393624605487
    Total Energy =                       -756.2303168270523201
  Basis Set: (AUG-CC-PVTZ AUX)
    Blend: AUG-CC-PVTZ-RI
    Molecular point group: c1

    Geometry (in Angstrom), charge = 0, multiplicity = 1:

       Center              X                  Y                   Z               Mass
    ------------   -----------------  -----------------  -----------------  -----------------
         O           -0.302619042498     0.077824269773    -1.418496878140    15.994914619570
         O            1.115537157502     1.622630169773     1.418409721860    15.994914619570
         O            0.903667957502     2.383691269773    -0.776320878140    15.994914619570
         O            2.296403957502    -2.411996730227    -0.010721878140    15.994914619570
         O           -3.461015042498     0.085795269773    -0.547084878140    15.994914619570
         O            2.633367957502    -0.224075730227    -0.484101878140    15.994914619570
         O           -2.438767042498    -1.596283730227     0.571106121860    15.994914619570
         C           -0.110345042498     0.321364269773    -0.035137878140    12.000000000000
         C            0.556286957502    -0.911111730227     0.561436121860    12.000000000000
         C           -1.473546042498     0.630212269773     0.623309121860    12.000000000000
         C            0.742583957502     1.574510269773     0.121645121860    12.000000000000
         C            1.920251957502    -1.111137730227    -0.042377878140    12.000000000000
         C           -2.479505042498    -0.423985730227     0.234787121860    12.000000000000
         H           -0.071539042498    -1.784835730227     0.378926121860     1.007825032230
         H            0.669968957502    -0.806044730227     1.646222121860     1.007825032230
         H           -1.823721042498     1.606780269773     0.277861121860     1.007825032230
         H           -1.375405042498     0.648963269773     1.713262121860     1.007825032230
         H           -0.043621042498     0.904407269773    -1.876490878140     1.007825032230
         H            1.694339957502     2.579212269773     1.387963121860     1.007825032230
         H            3.197827957502    -2.437187730227    -0.395009878140     1.007825032230
         H           -4.043935042498    -0.671499730227    -0.766166878140     1.007825032230

  Basis Set: AUG-CC-PVTZ
    Blend: AUG-CC-PVTZ
  Basis Set: (AUG-CC-PVTZ AUX)
    Blend: AUG-CC-PVTZ-JKFIT
	 Reference Energy          =    -756.2303168270523201 [Eh]
	 Singles Energy            =      -0.0000000000000000 [Eh]
	 Same-Spin Energy          =      -0.7336208860115698 [Eh]
	 Opposite-Spin Energy      =      -2.1682883042224077 [Eh]
	 Correlation Energy        =      -2.9019091902339778 [Eh]
	 Total Energy              =    -759.1322260172862570 [Eh]

	 ================> DF-SCS-MP2 Energies <==================
	-----------------------------------------------------------
	 SCS Same-Spin Scale       =       0.3333333333333333 [-]
	 SCS Opposite-Spin Scale   =       1.2000000000000000 [-]
	 SCS Same-Spin Energy      =      -0.2445402953371899 [Eh]
	 SCS Opposite-Spin Energy  =      -2.6019459650668892 [Eh]
	 SCS Correlation Energy    =      -2.8464862604040793 [Eh]
	 SCS Total Energy          =    -759.0768030874563692 [Eh]
	-----------------------------------------------------------

  Dipole Moment: [D]
     X:    -0.0084      Y:     0.9682      Z:     1.9075     Total:     2.1391

*** Psi4 exiting successfully. Buy a developer a beer!
