                               Psi4 1.4a3.dev225

  ==> Input File <==

--------------------------------------------------------------------------
#psi4
#
memory 32 gb

molecule  {
0 1
  O       -0.2992690     0.0680640    -1.4275900
  O        1.1877140     1.7322170     1.3773330
  O        0.9070830     2.3739170    -0.7855270
  O        2.2997080    -2.4217750    -0.0198700
  O       -3.4574230     0.0760400    -0.5564670
  O        2.6367000    -0.2338780    -0.4933410
  O       -2.4354340    -1.6059620     0.5620860
  C       -0.1069630     0.3116450    -0.0442490
  C        0.5596710    -0.9208170     0.5523550
  C       -1.4701590     0.6204980     0.6142450
  C        0.7459620     1.5647900     0.1124790
  C        1.9374728    -1.1689265    -0.0503758
  C       -2.4760910    -0.4336940     0.2256510
  H       -0.0681940    -1.7945300     0.3699280
  H        0.6734230    -0.8156830     1.6371260
  H       -1.8203340     1.5970830     0.2688470
  H       -1.3719830     0.6391850     1.7041930
  H       -0.0401320     0.8945830    -1.8856220
  H        1.6977060     2.5695530     1.3787680
  H        3.2011100    -2.4470060    -0.4042100
  H       -4.0402960    -0.6812640    -0.7756360
units angstrom
no_reorient  #important for SAPT in psi4, default
symmetry c1  #important for SAPT in psi4, default
}

set PROPERTIES_ORIGIN ["COM"]
properties('MP2/aug-cc-pvtz', properties = ['dipole'])
--------------------------------------------------------------------------

    Molecular point group: c1
  Charge       = 0
  Multiplicity = 1
  Basis Set: AUG-CC-PVTZ
    Blend: AUG-CC-PVTZ
  Basis Set: (AUG-CC-PVTZ AUX)
    Blend: AUG-CC-PVTZ-JKFIT

    Orbital Energies [Eh]
    ---------------------

    Doubly Occupied:

       1A    -20.639627     2A    -20.635631     3A    -20.626110
       4A    -20.576095     5A    -20.568675     6A    -20.561708
       7A    -20.552809     8A    -11.409109     9A    -11.405378
      10A    -11.403543    11A    -11.339141    12A    -11.272241
      13A    -11.261151    14A     -1.491692    15A     -1.482173
      16A     -1.471587    17A     -1.396790    18A     -1.369871
      19A     -1.367352    20A     -1.355759    21A     -1.113903
      22A     -1.035215    23A     -0.951891    24A     -0.860392
      25A     -0.834245    26A     -0.797101    27A     -0.758297
      28A     -0.728254    29A     -0.719269    30A     -0.716922
      31A     -0.703302    32A     -0.691545    33A     -0.670883
      34A     -0.658869    35A     -0.643450    36A     -0.637583
      37A     -0.621273    38A     -0.602497    39A     -0.595829
      40A     -0.575308    41A     -0.561829    42A     -0.556929
      43A     -0.544172    44A     -0.502891    45A     -0.493794
      46A     -0.484358    47A     -0.481447    48A     -0.469303
      49A     -0.462487    50A     -0.449581

  @DF-RHF Final Energy:  -756.25469368919187

   => Energetics <=

    Nuclear Repulsion Energy =            874.1357272726723977
    One-Electron Energy =               -2776.5623247209227884
    Two-Electron Energy =                1146.1719037590585231
    Total Energy =                       -756.2546936891919813
  Basis Set: (AUG-CC-PVTZ AUX)
    Blend: AUG-CC-PVTZ-RI
    Molecular point group: c1

    Geometry (in Angstrom), charge = 0, multiplicity = 1:

       Center              X                  Y                   Z               Mass
    ------------   -----------------  -----------------  -----------------  -----------------
         O           -0.309252858539     0.070867798975    -1.415849035919    15.994914619570
         O            1.177730141461     1.735020798975     1.389073964081    15.994914619570
         O            0.897099141461     2.376720798975    -0.773786035919    15.994914619570
         O            2.289724141461    -2.418971201025    -0.008129035919    15.994914619570
         O           -3.467406858539     0.078843798975    -0.544726035919    15.994914619570
         O            2.626716141461    -0.231074201025    -0.481600035919    15.994914619570
         O           -2.445417858539    -1.603158201025     0.573826964081    15.994914619570
         C           -0.116946858539     0.314448798975    -0.032508035919    12.000000000000
         C            0.549687141461    -0.918013201025     0.564095964081    12.000000000000
         C           -1.480142858539     0.623301798975     0.625985964081    12.000000000000
         C            0.735978141461     1.567593798975     0.124219964081    12.000000000000
         C            1.927488941461    -1.166122701025    -0.038634835919    12.000000000000
         C           -2.486074858539    -0.430890201025     0.237391964081    12.000000000000
         H           -0.078177858539    -1.791726201025     0.381668964081     1.007825032230
         H            0.663439141461    -0.812879201025     1.648866964081     1.007825032230
         H           -1.830317858539     1.599886798975     0.280587964081     1.007825032230
         H           -1.381966858539     0.641988798975     1.715933964081     1.007825032230
         H           -0.050115858539     0.897386798975    -1.873881035919     1.007825032230
         H            1.687722141461     2.572356798975     1.390508964081     1.007825032230
         H            3.191126141461    -2.444202201025    -0.392469035919     1.007825032230
         H           -4.050279858539    -0.678460201025    -0.763895035919     1.007825032230

  Basis Set: AUG-CC-PVTZ
    Blend: AUG-CC-PVTZ
  Basis Set: (AUG-CC-PVTZ AUX)
    Blend: AUG-CC-PVTZ-JKFIT
	 Reference Energy          =    -756.2546936891918676 [Eh]
	 Singles Energy            =      -0.0000000000000000 [Eh]
	 Same-Spin Energy          =      -0.7306217799045347 [Eh]
	 Opposite-Spin Energy      =      -2.1614556952020769 [Eh]
	 Correlation Energy        =      -2.8920774751066114 [Eh]
	 Total Energy              =    -759.1467711642984568 [Eh]

	 ================> DF-SCS-MP2 Energies <==================
	-----------------------------------------------------------
	 SCS Same-Spin Scale       =       0.3333333333333333 [-]
	 SCS Opposite-Spin Scale   =       1.2000000000000000 [-]
	 SCS Same-Spin Energy      =      -0.2435405933015116 [Eh]
	 SCS Opposite-Spin Energy  =      -2.5937468342424923 [Eh]
	 SCS Correlation Energy    =      -2.8372874275440036 [Eh]
	 SCS Total Energy          =    -759.0919811167358375 [Eh]
	-----------------------------------------------------------

  Dipole Moment: [D]
     X:    -0.0350      Y:     0.3025      Z:     1.8788     Total:     1.9033

*** Psi4 exiting successfully. Buy a developer a beer!
