                               Psi4 1.4a3.dev225

  ==> Input File <==

--------------------------------------------------------------------------
#psi4
#
memory 32 gb

molecule  {
0 1
  O       -0.2992690     0.0680640    -1.4275900
  O        1.1877140     1.7322170     1.3773330
  O        0.9070830     2.3739170    -0.7855270
  O        2.2997080    -2.4217750    -0.0198700
  O       -3.4574230     0.0760400    -0.5564670
  O        2.6367000    -0.2338780    -0.4933410
  O       -2.4354340    -1.6059620     0.5620860
  C       -0.1069630     0.3116450    -0.0442490
  C        0.5596710    -0.9208170     0.5523550
  C       -1.4701590     0.6204980     0.6142450
  C        0.7459620     1.5647900     0.1124790
  C        1.9291425    -1.1401148    -0.0510773
  C       -2.4760910    -0.4336940     0.2256510
  H       -0.0681940    -1.7945300     0.3699280
  H        0.6734230    -0.8156830     1.6371260
  H       -1.8203340     1.5970830     0.2688470
  H       -1.3719830     0.6391850     1.7041930
  H       -0.0401320     0.8945830    -1.8856220
  H        1.6977060     2.5695530     1.3787680
  H        3.2011100    -2.4470060    -0.4042100
  H       -4.0402960    -0.6812640    -0.7756360
units angstrom
no_reorient  #important for SAPT in psi4, default
symmetry c1  #important for SAPT in psi4, default
}

set PROPERTIES_ORIGIN ["COM"]
properties('MP2/aug-cc-pvtz', properties = ['dipole'])
--------------------------------------------------------------------------

    Molecular point group: c1
  Charge       = 0
  Multiplicity = 1
  Basis Set: AUG-CC-PVTZ
    Blend: AUG-CC-PVTZ
  Basis Set: (AUG-CC-PVTZ AUX)
    Blend: AUG-CC-PVTZ-JKFIT

    Orbital Energies [Eh]
    ---------------------

    Doubly Occupied:

       1A    -20.637177     2A    -20.630906     3A    -20.626611
       4A    -20.577434     5A    -20.570280     6A    -20.562299
       7A    -20.557793     8A    -11.410538     9A    -11.405968
      10A    -11.402869    11A    -11.340137    12A    -11.272936
      13A    -11.261696    14A     -1.484889    15A     -1.476795
      16A     -1.472124    17A     -1.398207    18A     -1.371326
      19A     -1.368209    20A     -1.363279    21A     -1.115786
      22A     -1.037495    23A     -0.952377    24A     -0.855423
      25A     -0.832217    26A     -0.796301    27A     -0.759384
      28A     -0.727800    29A     -0.718003    30A     -0.716796
      31A     -0.704731    32A     -0.691336    33A     -0.669753
      34A     -0.655343    35A     -0.644180    36A     -0.637918
      37A     -0.622253    38A     -0.603656    39A     -0.595567
      40A     -0.578490    41A     -0.562345    42A     -0.558596
      43A     -0.545258    44A     -0.504688    45A     -0.494602
      46A     -0.487557    47A     -0.484866    48A     -0.470916
      49A     -0.464634    50A     -0.451549

  @DF-RHF Final Energy:  -756.25752437148674

   => Energetics <=

    Nuclear Repulsion Energy =            874.4393310820607894
    One-Electron Energy =               -2777.1311264376686267
    Two-Electron Energy =                1146.4342709841212127
    Total Energy =                       -756.2575243714866247
  Basis Set: (AUG-CC-PVTZ AUX)
    Blend: AUG-CC-PVTZ-RI
    Molecular point group: c1

    Geometry (in Angstrom), charge = 0, multiplicity = 1:

       Center              X                  Y                   Z               Mass
    ------------   -----------------  -----------------  -----------------  -----------------
         O           -0.308732288001     0.069067320941    -1.415805198334    15.994914619570
         O            1.178250711999     1.733220320941     1.389117801666    15.994914619570
         O            0.897619711999     2.374920320941    -0.773742198334    15.994914619570
         O            2.290244711999    -2.420771679059    -0.008085198334    15.994914619570
         O           -3.466886288001     0.077043320941    -0.544682198334    15.994914619570
         O            2.627236711999    -0.232874679059    -0.481556198334    15.994914619570
         O           -2.444897288001    -1.604958679059     0.573870801666    15.994914619570
         C           -0.116426288001     0.312648320941    -0.032464198334    12.000000000000
         C            0.550207711999    -0.919813679059     0.564139801666    12.000000000000
         C           -1.479622288001     0.621501320941     0.626029801666    12.000000000000
         C            0.736498711999     1.565793320941     0.124263801666    12.000000000000
         C            1.919679211999    -1.139111479059    -0.039292498334    12.000000000000
         C           -2.485554288001    -0.432690679059     0.237435801666    12.000000000000
         H           -0.077657288001    -1.793526679059     0.381712801666     1.007825032230
         H            0.663959711999    -0.814679679059     1.648910801666     1.007825032230
         H           -1.829797288001     1.598086320941     0.280631801666     1.007825032230
         H           -1.381446288001     0.640188320941     1.715977801666     1.007825032230
         H           -0.049595288001     0.895586320941    -1.873837198334     1.007825032230
         H            1.688242711999     2.570556320941     1.390552801666     1.007825032230
         H            3.191646711999    -2.446002679059    -0.392425198334     1.007825032230
         H           -4.049759288001    -0.680260679059    -0.763851198334     1.007825032230

  Basis Set: AUG-CC-PVTZ
    Blend: AUG-CC-PVTZ
  Basis Set: (AUG-CC-PVTZ AUX)
    Blend: AUG-CC-PVTZ-JKFIT
	 Reference Energy          =    -756.2575243714867383 [Eh]
	 Singles Energy            =      -0.0000000000000000 [Eh]
	 Same-Spin Energy          =      -0.7305643576150005 [Eh]
	 Opposite-Spin Energy      =      -2.1615159584532671 [Eh]
	 Correlation Energy        =      -2.8920803160682675 [Eh]
	 Total Energy              =    -759.1496046875549837 [Eh]

	 ================> DF-SCS-MP2 Energies <==================
	-----------------------------------------------------------
	 SCS Same-Spin Scale       =       0.3333333333333333 [-]
	 SCS Opposite-Spin Scale   =       1.2000000000000000 [-]
	 SCS Same-Spin Energy      =      -0.2435214525383335 [Eh]
	 SCS Opposite-Spin Energy  =      -2.5938191501439203 [Eh]
	 SCS Correlation Energy    =      -2.8373406026822536 [Eh]
	 SCS Total Energy          =    -759.0948649741690133 [Eh]
	-----------------------------------------------------------

  Dipole Moment: [D]
     X:    -0.1130      Y:     0.5634      Z:     1.8674     Total:     1.9538

*** Psi4 exiting successfully. Buy a developer a beer!
