                               Psi4 1.3.2 release

  ==> Input File <==

--------------------------------------------------------------------------
#psi4
#
memory 32 gb

molecule  {
0 1
  O       -0.2992330     0.0680890    -1.4276520
  O        1.1877390     1.7321380     1.3773370
  O        0.9070540     2.3739560    -0.7854760
  O        2.1752685    -2.4484962     0.0424104
  O       -3.4576290     0.0760600    -0.5562400
  O        2.6367540    -0.2338110    -0.4932570
  O       -2.4353810    -1.6060190     0.5619510
  C       -0.1069590     0.3116290    -0.0442930
  C        0.5596730    -0.9208470     0.5522810
  C       -1.4701600     0.6204770     0.6141540
  C        0.7459700     1.5647750     0.1124900
  C        1.9236380    -1.1208730    -0.0515330
  C       -2.4761190    -0.4337210     0.2256320
  H       -0.0681530    -1.7945710     0.3697710
  H        0.6733550    -0.8157800     1.6370670
  H       -1.8203350     1.5970450     0.2687060
  H       -1.3720190     0.6392280     1.7041070
  H       -0.0402350     0.8946720    -1.8856460
  H        1.6977260     2.5694770     1.3788080
  H        3.2012140    -2.4469230    -0.4041650
  H       -4.0405490    -0.6812350    -0.7753220
units angstrom
no_reorient  #important for SAPT in psi4, default
symmetry c1  #important for SAPT in psi4, default
}

set PROPERTIES_ORIGIN ["COM"]
properties('MP2/aug-cc-pvtz', properties = ['dipole'])
--------------------------------------------------------------------------

    Molecular point group: c1
  Charge       = 0
  Multiplicity = 1
  Basis Set: AUG-CC-PVTZ
    Blend: AUG-CC-PVTZ
  Basis Set: (AUG-CC-PVTZ AUX)
    Blend: AUG-CC-PVTZ-JKFIT

    Orbital Energies [Eh]
    ---------------------

    Doubly Occupied:

       1A    -20.641171     2A    -20.637497     3A    -20.625645
       4A    -20.576784     5A    -20.570623     6A    -20.567766
       7A    -20.561142     8A    -11.410303     9A    -11.404791
      10A    -11.403364    11A    -11.337459    12A    -11.271270
      13A    -11.255720    14A     -1.484773    15A     -1.471095
      16A     -1.460783    17A     -1.397596    18A     -1.371305
      19A     -1.368226    20A     -1.366721    21A     -1.113937
      22A     -1.034505    23A     -0.948778    24A     -0.846406
      25A     -0.819459    26A     -0.787279    27A     -0.757215
      28A     -0.728228    29A     -0.717067    30A     -0.709086
      31A     -0.703976    32A     -0.688897    33A     -0.667992
      34A     -0.653934    35A     -0.642966    36A     -0.636552
      37A     -0.617255    38A     -0.604981    39A     -0.593494
      40A     -0.580296    41A     -0.558730    42A     -0.553878
      43A     -0.542432    44A     -0.505828    45A     -0.495787
      46A     -0.493346    47A     -0.484730    48A     -0.471554
      49A     -0.463356    50A     -0.450871

  @DF-RHF Final Energy:  -756.23031382329702

   => Energetics <=

    Nuclear Repulsion Energy =            875.0459239703167214
    One-Electron Energy =               -2778.4387799968621948
    Two-Electron Energy =                1147.1625422032482220
    Total Energy =                       -756.2303138232971378
  Basis Set: (AUG-CC-PVTZ AUX)
    Blend: AUG-CC-PVTZ-RI
    Molecular point group: c1

    Geometry (in Angstrom), charge = 0, multiplicity = 1:

       Center              X                  Y                   Z               Mass
    ------------   -----------------  -----------------  -----------------  -----------------
         O           -0.297979028837     0.070121227547    -1.421026534655    15.994914619570
         O            1.188992971163     1.734170227547     1.383962465345    15.994914619570
         O            0.908307971163     2.375988227547    -0.778850534655    15.994914619570
         O            2.176522471163    -2.446463972453     0.049035865345    15.994914619570
         O           -3.456375028837     0.078092227547    -0.549614534655    15.994914619570
         O            2.638007971163    -0.231778772453    -0.486631534655    15.994914619570
         O           -2.434127028837    -1.603986772453     0.568576465345    15.994914619570
         C           -0.105705028837     0.313661227547    -0.037667534655    12.000000000000
         C            0.560926971163    -0.918814772453     0.558906465345    12.000000000000
         C           -1.468906028837     0.622509227547     0.620779465345    12.000000000000
         C            0.747223971163     1.566807227547     0.119115465345    12.000000000000
         C            1.924891971163    -1.118840772453    -0.044907534655    12.000000000000
         C           -2.474865028837    -0.431688772453     0.232257465345    12.000000000000
         H           -0.066899028837    -1.792538772453     0.376396465345     1.007825032230
         H            0.674608971163    -0.813747772453     1.643692465345     1.007825032230
         H           -1.819081028837     1.599077227547     0.275331465345     1.007825032230
         H           -1.370765028837     0.641260227547     1.710732465345     1.007825032230
         H           -0.038981028837     0.896704227547    -1.879020534655     1.007825032230
         H            1.698979971163     2.571509227547     1.385433465345     1.007825032230
         H            3.202467971163    -2.444890772453    -0.397539534655     1.007825032230
         H           -4.039295028837    -0.679202772453    -0.768696534655     1.007825032230

  Basis Set: AUG-CC-PVTZ
    Blend: AUG-CC-PVTZ
  Basis Set: (AUG-CC-PVTZ AUX)
    Blend: AUG-CC-PVTZ-JKFIT
	 Reference Energy          =    -756.2303138232970241 [Eh]
	 Singles Energy            =      -0.0000000000000000 [Eh]
	 Same-Spin Energy          =      -0.7334850235143687 [Eh]
	 Opposite-Spin Energy      =      -2.1681871519705522 [Eh]
	 Correlation Energy        =      -2.9016721754849208 [Eh]
	 Total Energy              =    -759.1319859987819427 [Eh]

	 ================> DF-SCS-MP2 Energies <==================
	-----------------------------------------------------------
	 SCS Same-Spin Scale       =       0.3333333333333333 [-]
	 SCS Opposite-Spin Scale   =       1.2000000000000000 [-]
	 SCS Same-Spin Energy      =      -0.2444950078381229 [Eh]
	 SCS Opposite-Spin Energy  =      -2.6018245823646624 [Eh]
	 SCS Correlation Energy    =      -2.8463195902027851 [Eh]
	 SCS Total Energy          =    -759.0766334134998488 [Eh]
	-----------------------------------------------------------

  Dipole Moment: [D]
     X:     0.0770      Y:     0.6625      Z:     1.7809     Total:     1.9017

*** Psi4 exiting successfully. Buy a developer a beer!
