                               Psi4 1.3.2 release

  ==> Input File <==

--------------------------------------------------------------------------
#psi4
#
memory 32 gb

molecule  {
0 1
  O       -0.2992330     0.0680890    -1.4276520
  O        1.1877390     1.7321380     1.3773370
  O        0.9070540     2.3739560    -0.7854760
  O        2.2997900    -2.4217320    -0.0198770
  O       -3.4576290     0.0760600    -0.5562400
  O        2.6367540    -0.2338110    -0.4932570
  O       -2.4353810    -1.6060190     0.5619510
  C       -0.1069590     0.3116290    -0.0442930
  C        0.5596730    -0.9208470     0.5522810
  C       -1.4701600     0.6204770     0.6141540
  C        0.7459700     1.5647750     0.1124900
  C        1.9236380    -1.1208730    -0.0515330
  C       -2.4761190    -0.4337210     0.2256320
  H       -0.0681530    -1.7945710     0.3697710
  H        0.6733550    -0.8157800     1.6370670
  H       -1.8203350     1.5970450     0.2687060
  H       -1.3720190     0.6392280     1.7041070
  H       -0.0931006     0.7259533    -1.7921622
  H        1.6977260     2.5694770     1.3788080
  H        3.2012140    -2.4469230    -0.4041650
  H       -4.0405490    -0.6812350    -0.7753220
units angstrom
no_reorient  #important for SAPT in psi4, default
symmetry c1  #important for SAPT in psi4, default
}

set PROPERTIES_ORIGIN ["COM"]
properties('MP2/aug-cc-pvtz', properties = ['dipole'])
--------------------------------------------------------------------------

    Molecular point group: c1
  Charge       = 0
  Multiplicity = 1
  Basis Set: AUG-CC-PVTZ
    Blend: AUG-CC-PVTZ
  Basis Set: (AUG-CC-PVTZ AUX)
    Blend: AUG-CC-PVTZ-JKFIT

    Orbital Energies [Eh]
    ---------------------

    Doubly Occupied:

       1A    -20.637692     2A    -20.628341     3A    -20.625965
       4A    -20.569163     5A    -20.564230     6A    -20.563845
       7A    -20.562124     8A    -11.411210     9A    -11.407856
      10A    -11.403476    11A    -11.344283    12A    -11.275290
      13A    -11.263785    14A     -1.487731    15A     -1.474038
      16A     -1.471144    17A     -1.448779    18A     -1.376163
      19A     -1.370483    20A     -1.368635    21A     -1.130110
      22A     -1.040895    23A     -0.955807    24A     -0.863717
      25A     -0.832981    26A     -0.814857    27A     -0.771279
      28A     -0.727537    29A     -0.720139    30A     -0.717444
      31A     -0.708854    32A     -0.694187    33A     -0.671904
      34A     -0.656165    35A     -0.652896    36A     -0.638422
      37A     -0.625655    38A     -0.607687    39A     -0.598491
      40A     -0.582664    41A     -0.566894    42A     -0.565729
      43A     -0.556113    44A     -0.504543    45A     -0.498487
      46A     -0.491663    47A     -0.485998    48A     -0.477144
      49A     -0.466429    50A     -0.453290

  @DF-RHF Final Energy:  -756.21484365530057

   => Energetics <=

    Nuclear Repulsion Energy =            876.1333454438116632
    One-Electron Energy =               -2780.0319527890860627
    Two-Electron Energy =                1147.6837636899738300
    Total Energy =                       -756.2148436553004558
  Basis Set: (AUG-CC-PVTZ AUX)
    Blend: AUG-CC-PVTZ-RI
    Molecular point group: c1

    Geometry (in Angstrom), charge = 0, multiplicity = 1:

       Center              X                  Y                   Z               Mass
    ------------   -----------------  -----------------  -----------------  -----------------
         O           -0.308073606473     0.068777394851    -1.416328933177    15.994914619570
         O            1.178898393527     1.732826394851     1.388660066823    15.994914619570
         O            0.898213393527     2.374644394851    -0.774152933177    15.994914619570
         O            2.290949393527    -2.421043605149    -0.008553933177    15.994914619570
         O           -3.466469606473     0.076748394851    -0.544916933177    15.994914619570
         O            2.627913393527    -0.233122605149    -0.481933933177    15.994914619570
         O           -2.444221606473    -1.605330605149     0.573274066823    15.994914619570
         C           -0.115799606473     0.312317394851    -0.032969933177    12.000000000000
         C            0.550832393527    -0.920158605149     0.563604066823    12.000000000000
         C           -1.479000606473     0.621165394851     0.625477066823    12.000000000000
         C            0.737129393527     1.565463394851     0.123813066823    12.000000000000
         C            1.914797393527    -1.120184605149    -0.040209933177    12.000000000000
         C           -2.484959606473    -0.433032605149     0.236955066823    12.000000000000
         H           -0.076993606473    -1.793882605149     0.381094066823     1.007825032230
         H            0.664514393527    -0.815091605149     1.648390066823     1.007825032230
         H           -1.829175606473     1.597733394851     0.280029066823     1.007825032230
         H           -1.380859606473     0.639916394851     1.715430066823     1.007825032230
         H           -0.101941206473     0.726641694851    -1.780839133177     1.007825032230
         H            1.688885393527     2.570165394851     1.390131066823     1.007825032230
         H            3.192373393527    -2.446234605149    -0.392841933177     1.007825032230
         H           -4.049389606473    -0.680546605149    -0.763998933177     1.007825032230

  Basis Set: AUG-CC-PVTZ
    Blend: AUG-CC-PVTZ
  Basis Set: (AUG-CC-PVTZ AUX)
    Blend: AUG-CC-PVTZ-JKFIT
	 Reference Energy          =    -756.2148436553005695 [Eh]
	 Singles Energy            =      -0.0000000000000000 [Eh]
	 Same-Spin Energy          =      -0.7277612404209182 [Eh]
	 Opposite-Spin Energy      =      -2.1560735233214410 [Eh]
	 Correlation Energy        =      -2.8838347637423594 [Eh]
	 Total Energy              =    -759.0986784190429262 [Eh]

	 ================> DF-SCS-MP2 Energies <==================
	-----------------------------------------------------------
	 SCS Same-Spin Scale       =       0.3333333333333333 [-]
	 SCS Opposite-Spin Scale   =       1.2000000000000000 [-]
	 SCS Same-Spin Energy      =      -0.2425870801403061 [Eh]
	 SCS Opposite-Spin Energy  =      -2.5872882279857290 [Eh]
	 SCS Correlation Energy    =      -2.8298753081260353 [Eh]
	 SCS Total Energy          =    -759.0447189634265897 [Eh]
	-----------------------------------------------------------

  Dipole Moment: [D]
     X:    -0.2640      Y:     0.5234      Z:     1.9854     Total:     2.0701

*** Psi4 exiting successfully. Buy a developer a beer!
