                               Psi4 1.3.2 release

  ==> Input File <==

--------------------------------------------------------------------------
#psi4
#
memory 32 gb

molecule  {
0 1
  O       -0.2992330     0.0680890    -1.4276520
  O        1.1877390     1.7321380     1.3773370
  O        0.9070540     2.3739560    -0.7854760
  O        2.3409809    -2.4094413    -0.0395642
  O       -3.4576290     0.0760600    -0.5562400
  O        2.6367540    -0.2338110    -0.4932570
  O       -2.4353810    -1.6060190     0.5619510
  C       -0.1069590     0.3116290    -0.0442930
  C        0.5596730    -0.9208470     0.5522810
  C       -1.4701600     0.6204770     0.6141540
  C        0.7459700     1.5647750     0.1124900
  C        1.9236380    -1.1208730    -0.0515330
  C       -2.4761190    -0.4337210     0.2256320
  H       -0.0681530    -1.7945710     0.3697710
  H        0.6733550    -0.8157800     1.6370670
  H       -1.8203350     1.5970450     0.2687060
  H       -1.3720190     0.6392280     1.7041070
  H       -0.0402350     0.8946720    -1.8856460
  H        1.6977260     2.5694770     1.3788080
  H        3.2012140    -2.4469230    -0.4041650
  H       -4.0405490    -0.6812350    -0.7753220
units angstrom
no_reorient  #important for SAPT in psi4, default
symmetry c1  #important for SAPT in psi4, default
}

set PROPERTIES_ORIGIN ["COM"]
properties('MP2/aug-cc-pvtz', properties = ['dipole'])
--------------------------------------------------------------------------

    Molecular point group: c1
  Charge       = 0
  Multiplicity = 1
  Basis Set: AUG-CC-PVTZ
    Blend: AUG-CC-PVTZ
  Basis Set: (AUG-CC-PVTZ AUX)
    Blend: AUG-CC-PVTZ-JKFIT

    Orbital Energies [Eh]
    ---------------------

    Doubly Occupied:

       1A    -20.638485     2A    -20.627412     3A    -20.618535
       4A    -20.578892     5A    -20.571633     6A    -20.563251
       7A    -20.558918     8A    -11.411925     9A    -11.406925
      10A    -11.402586    11A    -11.341953    12A    -11.274150
      13A    -11.264398    14A     -1.486110    15A     -1.474709
      16A     -1.472979    17A     -1.399665    18A     -1.372807
      19A     -1.369298    20A     -1.366672    21A     -1.118193
      22A     -1.040689    23A     -0.954485    24A     -0.858670
      25A     -0.834542    26A     -0.798390    27A     -0.761145
      28A     -0.728516    29A     -0.719162    30A     -0.717284
      31A     -0.705282    32A     -0.691903    33A     -0.670056
      34A     -0.654154    35A     -0.645089    36A     -0.638261
      37A     -0.623796    38A     -0.604213    39A     -0.595979
      40A     -0.580089    41A     -0.563622    42A     -0.560746
      43A     -0.546822    44A     -0.506028    45A     -0.495615
      46A     -0.489118    47A     -0.486215    48A     -0.472402
      49A     -0.465660    50A     -0.453174

  @DF-RHF Final Energy:  -756.25925907666272

   => Energetics <=

    Nuclear Repulsion Energy =            874.6071661974719973
    One-Electron Energy =               -2777.3716482604704652
    Two-Electron Energy =                1146.5052229863356388
    Total Energy =                       -756.2592590766628291
  Basis Set: (AUG-CC-PVTZ AUX)
    Blend: AUG-CC-PVTZ-RI
    Molecular point group: c1

    Geometry (in Angstrom), charge = 0, multiplicity = 1:

       Center              X                  Y                   Z               Mass
    ------------   -----------------  -----------------  -----------------  -----------------
         O           -0.311782065148     0.066868144478    -1.414198449488    15.994914619570
         O            1.175189934852     1.730917144478     1.390790550512    15.994914619570
         O            0.894504934852     2.372735144478    -0.772022449488    15.994914619570
         O            2.328431834852    -2.410662155522    -0.026110649488    15.994914619570
         O           -3.470178065148     0.074839144478    -0.542786449488    15.994914619570
         O            2.624204934852    -0.235031855522    -0.479803449488    15.994914619570
         O           -2.447930065148    -1.607239855522     0.575404550512    15.994914619570
         C           -0.119508065148     0.310408144478    -0.030839449488    12.000000000000
         C            0.547123934852    -0.922067855522     0.565734550512    12.000000000000
         C           -1.482709065148     0.619256144478     0.627607550512    12.000000000000
         C            0.733420934852     1.563554144478     0.125943550512    12.000000000000
         C            1.911088934852    -1.122093855522    -0.038079449488    12.000000000000
         C           -2.488668065148    -0.434941855522     0.239085550512    12.000000000000
         H           -0.080702065148    -1.795791855522     0.383224550512     1.007825032230
         H            0.660805934852    -0.817000855522     1.650520550512     1.007825032230
         H           -1.832884065148     1.595824144478     0.282159550512     1.007825032230
         H           -1.384568065148     0.638007144478     1.717560550512     1.007825032230
         H           -0.052784065148     0.893451144478    -1.872192449488     1.007825032230
         H            1.685176934852     2.568256144478     1.392261550512     1.007825032230
         H            3.188664934852    -2.448143855522    -0.390711449488     1.007825032230
         H           -4.053098065148    -0.682455855522    -0.761868449488     1.007825032230

  Basis Set: AUG-CC-PVTZ
    Blend: AUG-CC-PVTZ
  Basis Set: (AUG-CC-PVTZ AUX)
    Blend: AUG-CC-PVTZ-JKFIT
	 Reference Energy          =    -756.2592590766627154 [Eh]
	 Singles Energy            =      -0.0000000000000000 [Eh]
	 Same-Spin Energy          =      -0.7297114679395108 [Eh]
	 Opposite-Spin Energy      =      -2.1598054369303750 [Eh]
	 Correlation Energy        =      -2.8895169048698857 [Eh]
	 Total Energy              =    -759.1487759815325944 [Eh]

	 ================> DF-SCS-MP2 Energies <==================
	-----------------------------------------------------------
	 SCS Same-Spin Scale       =       0.3333333333333333 [-]
	 SCS Opposite-Spin Scale   =       1.2000000000000000 [-]
	 SCS Same-Spin Energy      =      -0.2432371559798369 [Eh]
	 SCS Opposite-Spin Energy  =      -2.5917665243164500 [Eh]
	 SCS Correlation Energy    =      -2.8350036802962868 [Eh]
	 SCS Total Energy          =    -759.0942627569589831 [Eh]
	-----------------------------------------------------------

  Dipole Moment: [D]
     X:    -0.2626      Y:     0.7703      Z:     1.8894     Total:     2.0572

*** Psi4 exiting successfully. Buy a developer a beer!
