                               Psi4 1.4a3.dev225

  ==> Input File <==

--------------------------------------------------------------------------
#psi4
#
memory 32 gb

molecule  {
0 1
  O       -0.2992690     0.0680640    -1.4275900
  O        1.1877140     1.7322170     1.3773330
  O        0.9070830     2.3739170    -0.7855270
  O        2.2997080    -2.4217750    -0.0198700
  O       -3.4574230     0.0760400    -0.5564670
  O        2.6367000    -0.2338780    -0.4933410
  O       -2.4354340    -1.6059620     0.5620860
  C       -0.1069630     0.3116450    -0.0442490
  C        0.5596710    -0.9208170     0.5523550
  C       -1.4701590     0.6204980     0.6142450
  C        0.7459620     1.5647900     0.1124790
  C        1.9527940    -1.0845794    -0.0696384
  C       -2.4760910    -0.4336940     0.2256510
  H       -0.0681940    -1.7945300     0.3699280
  H        0.6734230    -0.8156830     1.6371260
  H       -1.8203340     1.5970830     0.2688470
  H       -1.3719830     0.6391850     1.7041930
  H       -0.0401320     0.8945830    -1.8856220
  H        1.6977060     2.5695530     1.3787680
  H        3.2011100    -2.4470060    -0.4042100
  H       -4.0402960    -0.6812640    -0.7756360
units angstrom
no_reorient  #important for SAPT in psi4, default
symmetry c1  #important for SAPT in psi4, default
}

set PROPERTIES_ORIGIN ["COM"]
properties('MP2/aug-cc-pvtz', properties = ['dipole'])
--------------------------------------------------------------------------

    Molecular point group: c1
  Charge       = 0
  Multiplicity = 1
  Basis Set: AUG-CC-PVTZ
    Blend: AUG-CC-PVTZ
  Basis Set: (AUG-CC-PVTZ AUX)
    Blend: AUG-CC-PVTZ-JKFIT

    Orbital Energies [Eh]
    ---------------------

    Doubly Occupied:

       1A    -20.639768     2A    -20.626441     3A    -20.616173
       4A    -20.578567     5A    -20.573057     6A    -20.570354
       7A    -20.562022     8A    -11.412459     9A    -11.405724
      10A    -11.397931    11A    -11.339506    12A    -11.272718
      13A    -11.260468    14A     -1.488031    15A     -1.477569
      16A     -1.471928    17A     -1.399634    18A     -1.383305
      19A     -1.372622    20A     -1.367989    21A     -1.115005
      22A     -1.033539    23A     -0.949542    24A     -0.849527
      25A     -0.825443    26A     -0.793018    27A     -0.759954
      28A     -0.729603    29A     -0.719737    30A     -0.718090
      31A     -0.707388    32A     -0.690689    33A     -0.669575
      34A     -0.654348    35A     -0.645025    36A     -0.638103
      37A     -0.622401    38A     -0.608680    39A     -0.594744
      40A     -0.584513    41A     -0.560482    42A     -0.558558
      43A     -0.545589    44A     -0.509584    45A     -0.502903
      46A     -0.494810    47A     -0.486653    48A     -0.473557
      49A     -0.464021    50A     -0.451725

  @DF-RHF Final Energy:  -756.25717123267839

   => Energetics <=

    Nuclear Repulsion Energy =            874.9048035208653573
    One-Electron Energy =               -2777.9778076898369363
    Two-Electron Energy =                1146.8158329362931909
    Total Energy =                       -756.2571712326785018
  Basis Set: (AUG-CC-PVTZ AUX)
    Blend: AUG-CC-PVTZ-RI
    Molecular point group: c1

    Geometry (in Angstrom), charge = 0, multiplicity = 1:

       Center              X                  Y                   Z               Mass
    ------------   -----------------  -----------------  -----------------  -----------------
         O           -0.310210298886     0.065596846524    -1.414645292712    15.994914619570
         O            1.176772701114     1.729749846524     1.390277707288    15.994914619570
         O            0.896141701114     2.371449846524    -0.772582292712    15.994914619570
         O            2.288766701114    -2.424242153476    -0.006925292712    15.994914619570
         O           -3.468364298886     0.073572846524    -0.543522292712    15.994914619570
         O            2.625758701114    -0.236345153476    -0.480396292712    15.994914619570
         O           -2.446375298886    -1.608429153476     0.575030707288    15.994914619570
         C           -0.117904298886     0.309177846524    -0.031304292712    12.000000000000
         C            0.548729701114    -0.923284153476     0.565299707288    12.000000000000
         C           -1.481100298886     0.618030846524     0.627189707288    12.000000000000
         C            0.735020701114     1.562322846524     0.125423707288    12.000000000000
         C            1.941852701114    -1.087046553476    -0.056693692712    12.000000000000
         C           -2.487032298886    -0.436161153476     0.238595707288    12.000000000000
         H           -0.079135298886    -1.796997153476     0.382872707288     1.007825032230
         H            0.662481701114    -0.818150153476     1.650070707288     1.007825032230
         H           -1.831275298886     1.594615846524     0.281791707288     1.007825032230
         H           -1.382924298886     0.636717846524     1.717137707288     1.007825032230
         H           -0.051073298886     0.892115846524    -1.872677292712     1.007825032230
         H            1.686764701114     2.567085846524     1.391712707288     1.007825032230
         H            3.190168701114    -2.449473153476    -0.391265292712     1.007825032230
         H           -4.051237298886    -0.683731153476    -0.762691292712     1.007825032230

  Basis Set: AUG-CC-PVTZ
    Blend: AUG-CC-PVTZ
  Basis Set: (AUG-CC-PVTZ AUX)
    Blend: AUG-CC-PVTZ-JKFIT
	 Reference Energy          =    -756.2571712326783882 [Eh]
	 Singles Energy            =      -0.0000000000000000 [Eh]
	 Same-Spin Energy          =      -0.7296966660725914 [Eh]
	 Opposite-Spin Energy      =      -2.1601568282633208 [Eh]
	 Correlation Energy        =      -2.8898534943359122 [Eh]
	 Total Energy              =    -759.1470247270143545 [Eh]

	 ================> DF-SCS-MP2 Energies <==================
	-----------------------------------------------------------
	 SCS Same-Spin Scale       =       0.3333333333333333 [-]
	 SCS Opposite-Spin Scale   =       1.2000000000000000 [-]
	 SCS Same-Spin Energy      =      -0.2432322220241971 [Eh]
	 SCS Opposite-Spin Energy  =      -2.5921881939159848 [Eh]
	 SCS Correlation Energy    =      -2.8354204159401819 [Eh]
	 SCS Total Energy          =    -759.0925916486186225 [Eh]
	-----------------------------------------------------------

  Dipole Moment: [D]
     X:    -0.0426      Y:     1.0454      Z:     1.7677     Total:     2.0541

*** Psi4 exiting successfully. Buy a developer a beer!
