                               Psi4 1.4a3.dev225

  ==> Input File <==

--------------------------------------------------------------------------
#psi4
#
memory 32 gb

molecule  {
0 1
  O       -0.2992690     0.0680640    -1.4275900
  O        1.1877140     1.7322170     1.3773330
  O        0.9070830     2.3739170    -0.7855270
  O        2.2997080    -2.4217750    -0.0198700
  O       -3.4574230     0.0760400    -0.5564670
  O        2.6367000    -0.2338780    -0.4933410
  O       -2.4354340    -1.6059620     0.5620860
  C       -0.1001808     0.3202356     0.0045383
  C        0.5596710    -0.9208170     0.5523550
  C       -1.4701590     0.6204980     0.6142450
  C        0.7459620     1.5647900     0.1124790
  C        1.9235890    -1.1209070    -0.0515450
  C       -2.4760910    -0.4336940     0.2256510
  H       -0.0681940    -1.7945300     0.3699280
  H        0.6734230    -0.8156830     1.6371260
  H       -1.8203340     1.5970830     0.2688470
  H       -1.3719830     0.6391850     1.7041930
  H       -0.0401320     0.8945830    -1.8856220
  H        1.6977060     2.5695530     1.3787680
  H        3.2011100    -2.4470060    -0.4042100
  H       -4.0402960    -0.6812640    -0.7756360
units angstrom
no_reorient  #important for SAPT in psi4, default
symmetry c1  #important for SAPT in psi4, default
}

set PROPERTIES_ORIGIN ["COM"]
properties('MP2/aug-cc-pvtz', properties = ['dipole'])
--------------------------------------------------------------------------

    Molecular point group: c1
  Charge       = 0
  Multiplicity = 1
  Basis Set: AUG-CC-PVTZ
    Blend: AUG-CC-PVTZ
  Basis Set: (AUG-CC-PVTZ AUX)
    Blend: AUG-CC-PVTZ-JKFIT

    Orbital Energies [Eh]
    ---------------------

    Doubly Occupied:

       1A    -20.638269     2A    -20.627438     3A    -20.625679
       4A    -20.572819     5A    -20.572603     6A    -20.563356
       7A    -20.561403     8A    -11.413028     9A    -11.407637
      10A    -11.403461    11A    -11.340681    12A    -11.275261
      13A    -11.263628    14A     -1.486590    15A     -1.472987
      16A     -1.470765    17A     -1.389853    18A     -1.370204
      19A     -1.368860    20A     -1.360302    21A     -1.122832
      22A     -1.041750    23A     -0.957643    24A     -0.855041
      25A     -0.832371    26A     -0.792251    27A     -0.754820
      28A     -0.729319    29A     -0.718779    30A     -0.716675
      31A     -0.705197    32A     -0.691550    33A     -0.668102
      34A     -0.655182    35A     -0.641584    36A     -0.638994
      37A     -0.622559    38A     -0.603551    39A     -0.595245
      40A     -0.579931    41A     -0.562965    42A     -0.552522
      43A     -0.544447    44A     -0.506466    45A     -0.494677
      46A     -0.491482    47A     -0.487811    48A     -0.473323
      49A     -0.467174    50A     -0.455145

  @DF-RHF Final Energy:  -756.25402803179088

   => Energetics <=

    Nuclear Repulsion Energy =            874.5201210923956978
    One-Electron Energy =               -2777.2598745044483621
    Two-Electron Energy =                1146.4857253802620107
    Total Energy =                       -756.2540280317907673
  Basis Set: (AUG-CC-PVTZ AUX)
    Blend: AUG-CC-PVTZ-RI
    Molecular point group: c1

    Geometry (in Angstrom), charge = 0, multiplicity = 1:

       Center              X                  Y                   Z               Mass
    ------------   -----------------  -----------------  -----------------  -----------------
         O           -0.308809070953     0.067330165252    -1.418824748669    15.994914619570
         O            1.178173929047     1.731483165252     1.386098251331    15.994914619570
         O            0.897542929047     2.373183165252    -0.776761748669    15.994914619570
         O            2.290167929047    -2.422508834748    -0.011104748669    15.994914619570
         O           -3.466963070953     0.075306165252    -0.547701748669    15.994914619570
         O            2.627159929047    -0.234611834748    -0.484575748669    15.994914619570
         O           -2.444974070953    -1.606695834748     0.570851251331    15.994914619570
         C           -0.109720870953     0.319501765252     0.013303551331    12.000000000000
         C            0.550130929047    -0.921550834748     0.561120251331    12.000000000000
         C           -1.479699070953     0.619764165252     0.623010251331    12.000000000000
         C            0.736421929047     1.564056165252     0.121244251331    12.000000000000
         C            1.914048929047    -1.121640834748    -0.042779748669    12.000000000000
         C           -2.485631070953    -0.434427834748     0.234416251331    12.000000000000
         H           -0.077734070953    -1.795263834748     0.378693251331     1.007825032230
         H            0.663882929047    -0.816416834748     1.645891251331     1.007825032230
         H           -1.829874070953     1.596349165252     0.277612251331     1.007825032230
         H           -1.381523070953     0.638451165252     1.712958251331     1.007825032230
         H           -0.049672070953     0.893849165252    -1.876856748669     1.007825032230
         H            1.688165929047     2.568819165252     1.387533251331     1.007825032230
         H            3.191569929047    -2.447739834748    -0.395444748669     1.007825032230
         H           -4.049836070953    -0.681997834748    -0.766870748669     1.007825032230

  Basis Set: AUG-CC-PVTZ
    Blend: AUG-CC-PVTZ
  Basis Set: (AUG-CC-PVTZ AUX)
    Blend: AUG-CC-PVTZ-JKFIT
	 Reference Energy          =    -756.2540280317908810 [Eh]
	 Singles Energy            =      -0.0000000000000000 [Eh]
	 Same-Spin Energy          =      -0.7309139751941111 [Eh]
	 Opposite-Spin Energy      =      -2.1629846235443906 [Eh]
	 Correlation Energy        =      -2.8938985987385015 [Eh]
	 Total Energy              =    -759.1479266305293550 [Eh]

	 ================> DF-SCS-MP2 Energies <==================
	-----------------------------------------------------------
	 SCS Same-Spin Scale       =       0.3333333333333333 [-]
	 SCS Opposite-Spin Scale   =       1.2000000000000000 [-]
	 SCS Same-Spin Energy      =      -0.2436379917313704 [Eh]
	 SCS Opposite-Spin Energy  =      -2.5955815482532687 [Eh]
	 SCS Correlation Energy    =      -2.8392195399846392 [Eh]
	 SCS Total Energy          =    -759.0932475717754642 [Eh]
	-----------------------------------------------------------

  Dipole Moment: [D]
     X:    -0.1702      Y:     0.7438      Z:     1.9864     Total:     2.1279

*** Psi4 exiting successfully. Buy a developer a beer!
