                               Psi4 1.3.2 release

  ==> Input File <==

--------------------------------------------------------------------------
#psi4
#
memory 32 gb

molecule  {
0 1
  O       -0.2992330     0.0680890    -1.4276520
  O        1.1877390     1.7321380     1.3773370
  O        0.9070540     2.3739560    -0.7854760
  O        2.2997900    -2.4217320    -0.0198770
  O       -3.4576290     0.0760600    -0.5562400
  O        2.6367540    -0.2338110    -0.4932570
  O       -2.4353810    -1.6060190     0.5619510
  C       -0.1069590     0.3116290    -0.0442930
  C        0.5596730    -0.9208470     0.5522810
  C       -1.4701600     0.6204770     0.6141540
  C        0.7723891     1.6974872    -0.0347836
  C        1.9236380    -1.1208730    -0.0515330
  C       -2.4761190    -0.4337210     0.2256320
  H       -0.0681530    -1.7945710     0.3697710
  H        0.6733550    -0.8157800     1.6370670
  H       -1.8203350     1.5970450     0.2687060
  H       -1.3720190     0.6392280     1.7041070
  H       -0.0402350     0.8946720    -1.8856460
  H        1.6977260     2.5694770     1.3788080
  H        3.2012140    -2.4469230    -0.4041650
  H       -4.0405490    -0.6812350    -0.7753220
units angstrom
no_reorient  #important for SAPT in psi4, default
symmetry c1  #important for SAPT in psi4, default
}

set PROPERTIES_ORIGIN ["COM"]
properties('MP2/aug-cc-pvtz', properties = ['dipole'])
--------------------------------------------------------------------------

    Molecular point group: c1
  Charge       = 0
  Multiplicity = 1
  Basis Set: AUG-CC-PVTZ
    Blend: AUG-CC-PVTZ
  Basis Set: (AUG-CC-PVTZ AUX)
    Blend: AUG-CC-PVTZ-JKFIT

    Orbital Energies [Eh]
    ---------------------

    Doubly Occupied:

       1A    -20.623872     2A    -20.621412     3A    -20.609699
       4A    -20.599056     5A    -20.576039     6A    -20.558442
       7A    -20.556690     8A    -11.401640     9A    -11.397826
      10A    -11.391441    11A    -11.333835    12A    -11.265889
      13A    -11.254969    14A     -1.598515    15A     -1.469128
      16A     -1.466712    17A     -1.389529    18A     -1.375687
      19A     -1.365131    20A     -1.362662    21A     -1.100302
      22A     -1.031514    23A     -0.919643    24A     -0.835354
      25A     -0.823464    26A     -0.782759    27A     -0.778504
      28A     -0.751121    29A     -0.717396    30A     -0.715305
      31A     -0.711960    32A     -0.693283    33A     -0.681777
      34A     -0.662028    35A     -0.646204    36A     -0.643416
      37A     -0.624363    38A     -0.601060    39A     -0.594431
      40A     -0.581243    41A     -0.566375    42A     -0.557217
      43A     -0.552717    44A     -0.527584    45A     -0.492121
      46A     -0.487114    47A     -0.478851    48A     -0.465451
      49A     -0.460289    50A     -0.428325

  @DF-RHF Final Energy:  -756.17771432695429

   => Energetics <=

    Nuclear Repulsion Energy =            874.4008763998518816
    One-Electron Energy =               -2776.8984982475280958
    Two-Electron Energy =                1146.3199075207221540
    Total Energy =                       -756.1777143269541739
  Basis Set: (AUG-CC-PVTZ AUX)
    Blend: AUG-CC-PVTZ-RI
    Molecular point group: c1

    Geometry (in Angstrom), charge = 0, multiplicity = 1:

       Center              X                  Y                   Z               Mass
    ------------   -----------------  -----------------  -----------------  -----------------
         O           -0.310002025237     0.059598553826    -1.406634991759    15.994914619570
         O            1.176969974763     1.723647553826     1.398354008241    15.994914619570
         O            0.896284974763     2.365465553826    -0.764458991759    15.994914619570
         O            2.289020974763    -2.430222446174     0.001140008241    15.994914619570
         O           -3.468398025237     0.067569553826    -0.535222991759    15.994914619570
         O            2.625984974763    -0.242301446174    -0.472239991759    15.994914619570
         O           -2.446150025237    -1.614509446174     0.582968008241    15.994914619570
         C           -0.117728025237     0.303138553826    -0.023275991759    12.000000000000
         C            0.548903974763    -0.929337446174     0.573298008241    12.000000000000
         C           -1.480929025237     0.611986553826     0.635171008241    12.000000000000
         C            0.761620074763     1.688996753826    -0.013766591759    12.000000000000
         C            1.912868974763    -1.129363446174    -0.030515991759    12.000000000000
         C           -2.486888025237    -0.442211446174     0.246649008241    12.000000000000
         H           -0.078922025237    -1.803061446174     0.390788008241     1.007825032230
         H            0.662585974763    -0.824270446174     1.658084008241     1.007825032230
         H           -1.831104025237     1.588554553826     0.289723008241     1.007825032230
         H           -1.382788025237     0.630737553826     1.725124008241     1.007825032230
         H           -0.051004025237     0.886181553826    -1.864628991759     1.007825032230
         H            1.686956974763     2.560986553826     1.399825008241     1.007825032230
         H            3.190444974763    -2.455413446174    -0.383147991759     1.007825032230
         H           -4.051318025237    -0.689725446174    -0.754304991759     1.007825032230

  Basis Set: AUG-CC-PVTZ
    Blend: AUG-CC-PVTZ
  Basis Set: (AUG-CC-PVTZ AUX)
    Blend: AUG-CC-PVTZ-JKFIT
	 Reference Energy          =    -756.1777143269542876 [Eh]
	 Singles Energy            =      -0.0000000000000000 [Eh]
	 Same-Spin Energy          =      -0.7271228435861844 [Eh]
	 Opposite-Spin Energy      =      -2.1559256845912014 [Eh]
	 Correlation Energy        =      -2.8830485281773859 [Eh]
	 Total Energy              =    -759.0607628551316566 [Eh]

	 ================> DF-SCS-MP2 Energies <==================
	-----------------------------------------------------------
	 SCS Same-Spin Scale       =       0.3333333333333333 [-]
	 SCS Opposite-Spin Scale   =       1.2000000000000000 [-]
	 SCS Same-Spin Energy      =      -0.2423742811953948 [Eh]
	 SCS Opposite-Spin Energy  =      -2.5871108215094414 [Eh]
	 SCS Correlation Energy    =      -2.8294851027048362 [Eh]
	 SCS Total Energy          =    -759.0071994296590674 [Eh]
	-----------------------------------------------------------

  Dipole Moment: [D]
     X:    -0.1110      Y:     1.5135      Z:     0.6106     Total:     1.6358

*** Psi4 exiting successfully. Buy a developer a beer!
