                               Psi4 1.3.2 release

  ==> Input File <==

--------------------------------------------------------------------------
#psi4
#
memory 32 gb

molecule  {
0 1
  O       -0.2992330     0.0680890    -1.4276520
  O        1.1877390     1.7321380     1.3773370
  O        0.9070540     2.3739560    -0.7854760
  O        2.2997900    -2.4217320    -0.0198770
  O       -3.4576290     0.0760600    -0.5562400
  O        2.6367540    -0.2338110    -0.4932570
  O       -2.4353810    -1.6060190     0.5619510
  C       -0.1069590     0.3116290    -0.0442930
  C        0.5596730    -0.9208470     0.5522810
  C       -1.4701600     0.6204770     0.6141540
  C        0.8114675     1.6861018     0.0814556
  C        1.9236380    -1.1208730    -0.0515330
  C       -2.4761190    -0.4337210     0.2256320
  H       -0.0681530    -1.7945710     0.3697710
  H        0.6733550    -0.8157800     1.6370670
  H       -1.8203350     1.5970450     0.2687060
  H       -1.3720190     0.6392280     1.7041070
  H       -0.0402350     0.8946720    -1.8856460
  H        1.6977260     2.5694770     1.3788080
  H        3.2012140    -2.4469230    -0.4041650
  H       -4.0405490    -0.6812350    -0.7753220
units angstrom
no_reorient  #important for SAPT in psi4, default
symmetry c1  #important for SAPT in psi4, default
}

set PROPERTIES_ORIGIN ["COM"]
properties('MP2/aug-cc-pvtz', properties = ['dipole'])
--------------------------------------------------------------------------

    Molecular point group: c1
  Charge       = 0
  Multiplicity = 1
  Basis Set: AUG-CC-PVTZ
    Blend: AUG-CC-PVTZ
  Basis Set: (AUG-CC-PVTZ AUX)
    Blend: AUG-CC-PVTZ-JKFIT

    Orbital Energies [Eh]
    ---------------------

    Doubly Occupied:

       1A    -20.639324     2A    -20.622346     3A    -20.621564
       4A    -20.588979     5A    -20.572019     6A    -20.557165
       7A    -20.557052     8A    -11.401983     9A    -11.400189
      10A    -11.397934    11A    -11.329671    12A    -11.264353
      13A    -11.253595    14A     -1.527586    15A     -1.467670
      16A     -1.466850    17A     -1.432427    18A     -1.381829
      19A     -1.363844    20A     -1.362946    21A     -1.099546
      22A     -1.030586    23A     -0.922913    24A     -0.844902
      25A     -0.824002    26A     -0.784658    27A     -0.766309
      28A     -0.741824    29A     -0.714869    30A     -0.712783
      31A     -0.703228    32A     -0.691197    33A     -0.669509
      34A     -0.661851    35A     -0.655845    36A     -0.641557
      37A     -0.622570    38A     -0.599762    39A     -0.592984
      40A     -0.578338    41A     -0.559096    42A     -0.556069
      43A     -0.551124    44A     -0.538532    45A     -0.490394
      46A     -0.487672    47A     -0.478653    48A     -0.463668
      49A     -0.459868    50A     -0.430074

  @DF-RHF Final Energy:  -756.23656021483123

   => Energetics <=

    Nuclear Repulsion Energy =            873.6121643483851358
    One-Electron Energy =               -2775.5300323345172728
    Two-Electron Energy =                1145.6813077713009079
    Total Energy =                       -756.2365602148311154
  Basis Set: (AUG-CC-PVTZ AUX)
    Blend: AUG-CC-PVTZ-RI
    Molecular point group: c1

    Geometry (in Angstrom), charge = 0, multiplicity = 1:

       Center              X                  Y                   Z               Mass
    ------------   -----------------  -----------------  -----------------  -----------------
         O           -0.312444081790     0.060310041264    -1.413898920171    15.994914619570
         O            1.174527918210     1.724359041264     1.391090079829    15.994914619570
         O            0.893842918210     2.366177041264    -0.771722920171    15.994914619570
         O            2.286578918210    -2.429510958736    -0.006123920171    15.994914619570
         O           -3.470840081790     0.068281041264    -0.542486920171    15.994914619570
         O            2.623542918210    -0.241589958736    -0.479503920171    15.994914619570
         O           -2.448592081790    -1.613797958736     0.575704079829    15.994914619570
         C           -0.120170081790     0.303850041264    -0.030539920171    12.000000000000
         C            0.546461918210    -0.928625958736     0.566034079829    12.000000000000
         C           -1.483371081790     0.612698041264     0.627907079829    12.000000000000
         C            0.798256418210     1.678322841264     0.095208679829    12.000000000000
         C            1.910426918210    -1.128651958736    -0.037779920171    12.000000000000
         C           -2.489330081790    -0.441499958736     0.239385079829    12.000000000000
         H           -0.081364081790    -1.802349958736     0.383524079829     1.007825032230
         H            0.660143918210    -0.823558958736     1.650820079829     1.007825032230
         H           -1.833546081790     1.589266041264     0.282459079829     1.007825032230
         H           -1.385230081790     0.631449041264     1.717860079829     1.007825032230
         H           -0.053446081790     0.886893041264    -1.871892920171     1.007825032230
         H            1.684514918210     2.561698041264     1.392561079829     1.007825032230
         H            3.188002918210    -2.454701958736    -0.390411920171     1.007825032230
         H           -4.053760081790    -0.689013958736    -0.761568920171     1.007825032230

  Basis Set: AUG-CC-PVTZ
    Blend: AUG-CC-PVTZ
  Basis Set: (AUG-CC-PVTZ AUX)
    Blend: AUG-CC-PVTZ-JKFIT
	 Reference Energy          =    -756.2365602148312291 [Eh]
	 Singles Energy            =      -0.0000000000000000 [Eh]
	 Same-Spin Energy          =      -0.7284933501901224 [Eh]
	 Opposite-Spin Energy      =      -2.1574973022934212 [Eh]
	 Correlation Energy        =      -2.8859906524835437 [Eh]
	 Total Energy              =    -759.1225508673147715 [Eh]

	 ================> DF-SCS-MP2 Energies <==================
	-----------------------------------------------------------
	 SCS Same-Spin Scale       =       0.3333333333333333 [-]
	 SCS Opposite-Spin Scale   =       1.2000000000000000 [-]
	 SCS Same-Spin Energy      =      -0.2428311167300408 [Eh]
	 SCS Opposite-Spin Energy  =      -2.5889967627521053 [Eh]
	 SCS Correlation Energy    =      -2.8318278794821463 [Eh]
	 SCS Total Energy          =    -759.0683880943133772 [Eh]
	-----------------------------------------------------------

  Dipole Moment: [D]
     X:     0.2005      Y:     1.4947      Z:     1.5965     Total:     2.1961

*** Psi4 exiting successfully. Buy a developer a beer!
