                               Psi4 1.3.2 release

  ==> Input File <==

--------------------------------------------------------------------------
#psi4
#
memory 32 gb

molecule  {
0 1
  O       -0.2992330     0.0680890    -1.4276520
  O        1.1877390     1.7321380     1.3773370
  O        0.9070540     2.3739560    -0.7854760
  O        2.2997900    -2.4217320    -0.0198770
  O       -3.4576290     0.0760600    -0.5562400
  O        2.6367540    -0.2338110    -0.4932570
  O       -2.4353810    -1.6060190     0.5619510
  C       -0.1069590     0.3116290    -0.0442930
  C        0.5596730    -0.9208470     0.5522810
  C       -1.4701600     0.6204770     0.6141540
  C        0.7459700     1.5647750     0.1124900
  C        1.8680978    -0.9287964    -0.0562071
  C       -2.4761190    -0.4337210     0.2256320
  H       -0.0681530    -1.7945710     0.3697710
  H        0.6733550    -0.8157800     1.6370670
  H       -1.8203350     1.5970450     0.2687060
  H       -1.3720190     0.6392280     1.7041070
  H       -0.0402350     0.8946720    -1.8856460
  H        1.6977260     2.5694770     1.3788080
  H        3.2012140    -2.4469230    -0.4041650
  H       -4.0405490    -0.6812350    -0.7753220
units angstrom
no_reorient  #important for SAPT in psi4, default
symmetry c1  #important for SAPT in psi4, default
}

set PROPERTIES_ORIGIN ["COM"]
properties('MP2/aug-cc-pvtz', properties = ['dipole'])
--------------------------------------------------------------------------

    Molecular point group: c1
  Charge       = 0
  Multiplicity = 1
  Basis Set: AUG-CC-PVTZ
    Blend: AUG-CC-PVTZ
  Basis Set: (AUG-CC-PVTZ AUX)
    Blend: AUG-CC-PVTZ-JKFIT

    Orbital Energies [Eh]
    ---------------------

    Doubly Occupied:

       1A    -20.649702     2A    -20.630872     3A    -20.593834
       4A    -20.588471     5A    -20.583535     6A    -20.567318
       7A    -20.561491     8A    -11.422282     9A    -11.411002
      10A    -11.401905    11A    -11.349153    12A    -11.279016
      13A    -11.270890    14A     -1.506485    15A     -1.494495
      16A     -1.476673    17A     -1.409878    18A     -1.382852
      19A     -1.373145    20A     -1.315854    21A     -1.133758
      22A     -1.055804    23A     -0.960181    24A     -0.854933
      25A     -0.821049    26A     -0.791077    27A     -0.766573
      28A     -0.738468    29A     -0.727899    30A     -0.722191
      31A     -0.708028    32A     -0.694838    33A     -0.675646
      34A     -0.655436    35A     -0.651391    36A     -0.644752
      37A     -0.623088    38A     -0.612244    39A     -0.599236
      40A     -0.591722    41A     -0.566654    42A     -0.564487
      43A     -0.552020    44A     -0.516064    45A     -0.501048
      46A     -0.494829    47A     -0.484940    48A     -0.479798
      49A     -0.463550    50A     -0.449047

  @DF-RHF Final Energy:  -756.21739084926128

   => Energetics <=

    Nuclear Repulsion Energy =            877.1189549570024155
    One-Electron Energy =               -2781.9334859104601492
    Two-Electron Energy =                1148.5971401041965692
    Total Energy =                       -756.2173908492611645
  Basis Set: (AUG-CC-PVTZ AUX)
    Blend: AUG-CC-PVTZ-RI
    Molecular point group: c1

    Geometry (in Angstrom), charge = 0, multiplicity = 1:

       Center              X                  Y                   Z               Mass
    ------------   -----------------  -----------------  -----------------  -----------------
         O           -0.304880289300     0.055888800561    -1.415546207249    15.994914619570
         O            1.182091710700     1.719937800561     1.389442792751    15.994914619570
         O            0.901406710700     2.361755800561    -0.773370207249    15.994914619570
         O            2.294142710700    -2.433932199439    -0.007771207249    15.994914619570
         O           -3.463276289300     0.063859800561    -0.544134207249    15.994914619570
         O            2.631106710700    -0.246011199439    -0.481151207249    15.994914619570
         O           -2.441028289300    -1.618219199439     0.574056792751    15.994914619570
         C           -0.112606289300     0.299428800561    -0.032187207249    12.000000000000
         C            0.554025710700    -0.933047199439     0.564386792751    12.000000000000
         C           -1.475807289300     0.608276800561     0.626259792751    12.000000000000
         C            0.740322710700     1.552574800561     0.124595792751    12.000000000000
         C            1.862450510700    -0.940996599439    -0.044101307249    12.000000000000
         C           -2.481766289300    -0.445921199439     0.237737792751    12.000000000000
         H           -0.073800289300    -1.806771199439     0.381876792751     1.007825032230
         H            0.667707710700    -0.827980199439     1.649172792751     1.007825032230
         H           -1.825982289300     1.584844800561     0.280811792751     1.007825032230
         H           -1.377666289300     0.627027800561     1.716212792751     1.007825032230
         H           -0.045882289300     0.882471800561    -1.873540207249     1.007825032230
         H            1.692078710700     2.557276800561     1.390913792751     1.007825032230
         H            3.195566710700    -2.459123199439    -0.392059207249     1.007825032230
         H           -4.046196289300    -0.693435199439    -0.763216207249     1.007825032230

  Basis Set: AUG-CC-PVTZ
    Blend: AUG-CC-PVTZ
  Basis Set: (AUG-CC-PVTZ AUX)
    Blend: AUG-CC-PVTZ-JKFIT
	 Reference Energy          =    -756.2173908492612782 [Eh]
	 Singles Energy            =      -0.0000000000000000 [Eh]
	 Same-Spin Energy          =      -0.7317534925358877 [Eh]
	 Opposite-Spin Energy      =      -2.1648092009835125 [Eh]
	 Correlation Energy        =      -2.8965626935194004 [Eh]
	 Total Energy              =    -759.1139535427806777 [Eh]

	 ================> DF-SCS-MP2 Energies <==================
	-----------------------------------------------------------
	 SCS Same-Spin Scale       =       0.3333333333333333 [-]
	 SCS Opposite-Spin Scale   =       1.2000000000000000 [-]
	 SCS Same-Spin Energy      =      -0.2439178308452959 [Eh]
	 SCS Opposite-Spin Energy  =      -2.5977710411802151 [Eh]
	 SCS Correlation Energy    =      -2.8416888720255109 [Eh]
	 SCS Total Energy          =    -759.0590797212868210 [Eh]
	-----------------------------------------------------------

  Dipole Moment: [D]
     X:    -0.8319      Y:     2.6105      Z:     1.8080     Total:     3.2826

*** Psi4 exiting successfully. Buy a developer a beer!
