                               Psi4 1.3.2 release

  ==> Input File <==

--------------------------------------------------------------------------
#psi4
#
memory 32 gb

molecule  {
0 1
  O       -0.2992330     0.0680890    -1.4276520
  O        1.1877390     1.7321380     1.3773370
  O        0.9070540     2.3739560    -0.7854760
  O        2.2997900    -2.4217320    -0.0198770
  O       -3.4576290     0.0760600    -0.5562400
  O        2.6367540    -0.2338110    -0.4932570
  O       -2.4353810    -1.6060190     0.5619510
  C       -0.1069590     0.3116290    -0.0442930
  C        0.5596730    -0.9208470     0.5522810
  C       -1.4701600     0.6204770     0.6141540
  C        0.7459700     1.5647750     0.1124900
  C        1.9236380    -1.1208730    -0.0515330
  C       -2.4761190    -0.4337210     0.2256320
  H       -0.0681530    -1.7945710     0.3697710
  H        0.6733550    -0.8157800     1.6370670
  H       -1.8203350     1.5970450     0.2687060
  H       -1.3720190     0.6392280     1.7041070
  H       -0.0402350     0.8946720    -1.8856460
  H        1.6457089     2.4840709     1.3786580
  H        3.2012140    -2.4469230    -0.4041650
  H       -4.0405490    -0.6812350    -0.7753220
units angstrom
no_reorient  #important for SAPT in psi4, default
symmetry c1  #important for SAPT in psi4, default
}

set PROPERTIES_ORIGIN ["COM"]
properties('MP2/aug-cc-pvtz', properties = ['dipole'])
--------------------------------------------------------------------------

    Molecular point group: c1
  Charge       = 0
  Multiplicity = 1
  Basis Set: AUG-CC-PVTZ
    Blend: AUG-CC-PVTZ
  Basis Set: (AUG-CC-PVTZ AUX)
    Blend: AUG-CC-PVTZ-JKFIT

    Orbital Energies [Eh]
    ---------------------

    Doubly Occupied:

       1A    -20.631368     2A    -20.627405     3A    -20.625559
       4A    -20.579024     5A    -20.573455     6A    -20.563202
       7A    -20.561720     8A    -11.413624     9A    -11.406917
      10A    -11.403053    11A    -11.341435    12A    -11.274109
      13A    -11.262807    14A     -1.503024    15A     -1.473058
      16A     -1.471105    17A     -1.405429    18A     -1.376464
      19A     -1.369347    20A     -1.367418    21A     -1.119136
      22A     -1.039751    23A     -0.961104    24A     -0.863042
      25A     -0.831360    26A     -0.802494    27A     -0.763629
      28A     -0.735281    29A     -0.719903    30A     -0.716839
      31A     -0.706777    32A     -0.691968    33A     -0.670058
      34A     -0.656257    35A     -0.648456    36A     -0.640614
      37A     -0.623987    38A     -0.605691    39A     -0.596295
      40A     -0.581215    41A     -0.563017    42A     -0.560468
      43A     -0.548721    44A     -0.508711    45A     -0.495740
      46A     -0.491425    47A     -0.487170    48A     -0.472787
      49A     -0.466326    50A     -0.453532

  @DF-RHF Final Energy:  -756.25359133352481

   => Energetics <=

    Nuclear Repulsion Energy =            875.4063808133755629
    One-Electron Energy =               -2778.8173955338920678
    Two-Electron Energy =                1147.1574233869916952
    Total Energy =                       -756.2535913335248097
  Basis Set: (AUG-CC-PVTZ AUX)
    Blend: AUG-CC-PVTZ-RI
    Molecular point group: c1

    Geometry (in Angstrom), charge = 0, multiplicity = 1:

       Center              X                  Y                   Z               Mass
    ------------   -----------------  -----------------  -----------------  -----------------
         O           -0.308078059698     0.068340141118    -1.415837510168    15.994914619570
         O            1.178893940302     1.732389141118     1.389151489832    15.994914619570
         O            0.898208940302     2.374207141118    -0.773661510168    15.994914619570
         O            2.290944940302    -2.421480858882    -0.008062510168    15.994914619570
         O           -3.466474059698     0.076311141118    -0.544425510168    15.994914619570
         O            2.627908940302    -0.233559858882    -0.481442510168    15.994914619570
         O           -2.444226059698    -1.605767858882     0.573765489832    15.994914619570
         C           -0.115804059698     0.311880141118    -0.032478510168    12.000000000000
         C            0.550827940302    -0.920595858882     0.564095489832    12.000000000000
         C           -1.479005059698     0.620728141118     0.625968489832    12.000000000000
         C            0.737124940302     1.565026141118     0.124304489832    12.000000000000
         C            1.914792940302    -1.120621858882    -0.039718510168    12.000000000000
         C           -2.484964059698    -0.433469858882     0.237446489832    12.000000000000
         H           -0.076998059698    -1.794319858882     0.381585489832     1.007825032230
         H            0.664509940302    -0.815528858882     1.648881489832     1.007825032230
         H           -1.829180059698     1.597296141118     0.280520489832     1.007825032230
         H           -1.380864059698     0.639479141118     1.715921489832     1.007825032230
         H           -0.049080059698     0.894923141118    -1.873831510168     1.007825032230
         H            1.636863840302     2.484322041118     1.390472489832     1.007825032230
         H            3.192368940302    -2.446671858882    -0.392350510168     1.007825032230
         H           -4.049394059698    -0.680983858882    -0.763507510168     1.007825032230

  Basis Set: AUG-CC-PVTZ
    Blend: AUG-CC-PVTZ
  Basis Set: (AUG-CC-PVTZ AUX)
    Blend: AUG-CC-PVTZ-JKFIT
	 Reference Energy          =    -756.2535913335248097 [Eh]
	 Singles Energy            =      -0.0000000000000000 [Eh]
	 Same-Spin Energy          =      -0.7292682430997326 [Eh]
	 Opposite-Spin Energy      =      -2.1587612966311345 [Eh]
	 Correlation Energy        =      -2.8880295397308671 [Eh]
	 Total Energy              =    -759.1416208732556470 [Eh]

	 ================> DF-SCS-MP2 Energies <==================
	-----------------------------------------------------------
	 SCS Same-Spin Scale       =       0.3333333333333333 [-]
	 SCS Opposite-Spin Scale   =       1.2000000000000000 [-]
	 SCS Same-Spin Energy      =      -0.2430894143665775 [Eh]
	 SCS Opposite-Spin Energy  =      -2.5905135559573611 [Eh]
	 SCS Correlation Energy    =      -2.8336029703239385 [Eh]
	 SCS Total Energy          =    -759.0871943038487188 [Eh]
	-----------------------------------------------------------

  Dipole Moment: [D]
     X:    -0.2504      Y:     0.6226      Z:     1.8179     Total:     1.9379

*** Psi4 exiting successfully. Buy a developer a beer!
