                               Psi4 1.3.2 release

  ==> Input File <==

--------------------------------------------------------------------------
#psi4
#
memory 32 gb

molecule  {
0 1
  O       -0.2992330     0.0680890    -1.4276520
  O        1.1877390     1.7321380     1.3773370
  O        0.9561114     2.4187582    -0.7322692
  O        2.2997900    -2.4217320    -0.0198770
  O       -3.4576290     0.0760600    -0.5562400
  O        2.6367540    -0.2338110    -0.4932570
  O       -2.4353810    -1.6060190     0.5619510
  C       -0.1069590     0.3116290    -0.0442930
  C        0.5596730    -0.9208470     0.5522810
  C       -1.4701600     0.6204770     0.6141540
  C        0.7459700     1.5647750     0.1124900
  C        1.9236380    -1.1208730    -0.0515330
  C       -2.4761190    -0.4337210     0.2256320
  H       -0.0681530    -1.7945710     0.3697710
  H        0.6733550    -0.8157800     1.6370670
  H       -1.8203350     1.5970450     0.2687060
  H       -1.3720190     0.6392280     1.7041070
  H       -0.0402350     0.8946720    -1.8856460
  H        1.6977260     2.5694770     1.3788080
  H        3.2012140    -2.4469230    -0.4041650
  H       -4.0405490    -0.6812350    -0.7753220
units angstrom
no_reorient  #important for SAPT in psi4, default
symmetry c1  #important for SAPT in psi4, default
}

set PROPERTIES_ORIGIN ["COM"]
properties('MP2/aug-cc-pvtz', properties = ['dipole'])
--------------------------------------------------------------------------

    Molecular point group: c1
  Charge       = 0
  Multiplicity = 1
  Basis Set: AUG-CC-PVTZ
    Blend: AUG-CC-PVTZ
  Basis Set: (AUG-CC-PVTZ AUX)
    Blend: AUG-CC-PVTZ-JKFIT

    Orbital Energies [Eh]
    ---------------------

    Doubly Occupied:

       1A    -20.630839     2A    -20.628217     3A    -20.625699
       4A    -20.582513     5A    -20.569158     6A    -20.564107
       7A    -20.561660     8A    -11.410062     9A    -11.407809
      10A    -11.403202    11A    -11.345014    12A    -11.275172
      13A    -11.263959    14A     -1.484750    15A     -1.473796
      16A     -1.470830    17A     -1.398724    18A     -1.370660
      19A     -1.369225    20A     -1.366613    21A     -1.119290
      22A     -1.040655    23A     -0.954185    24A     -0.853471
      25A     -0.831492    26A     -0.796100    27A     -0.759206
      28A     -0.726214    29A     -0.718837    30A     -0.716870
      31A     -0.705631    32A     -0.692074    33A     -0.670708
      34A     -0.653592    35A     -0.644116    36A     -0.637330
      37A     -0.623004    38A     -0.605821    39A     -0.596151
      40A     -0.581421    41A     -0.564088    42A     -0.561296
      43A     -0.547930    44A     -0.502381    45A     -0.496563
      46A     -0.490758    47A     -0.485641    48A     -0.474100
      49A     -0.466427    50A     -0.454027

  @DF-RHF Final Energy:  -756.25715484949114

   => Energetics <=

    Nuclear Repulsion Energy =            873.9087551621549892
    One-Electron Energy =               -2775.9890344813707088
    Two-Electron Energy =                1145.8231244697244620
    Total Energy =                       -756.2571548494911440
  Basis Set: (AUG-CC-PVTZ AUX)
    Blend: AUG-CC-PVTZ-RI
    Molecular point group: c1

    Geometry (in Angstrom), charge = 0, multiplicity = 1:

       Center              X                  Y                   Z               Mass
    ------------   -----------------  -----------------  -----------------  -----------------
         O           -0.312437306307     0.064160094778    -1.420270164875    15.994914619570
         O            1.174534693693     1.728209094778     1.384718835125    15.994914619570
         O            0.942907093693     2.414829294778    -0.724887364875    15.994914619570
         O            2.286585693693    -2.425660905222    -0.012495164875    15.994914619570
         O           -3.470833306307     0.072131094778    -0.548858164875    15.994914619570
         O            2.623549693693    -0.237739905222    -0.485875164875    15.994914619570
         O           -2.448585306307    -1.609947905222     0.569332835125    15.994914619570
         C           -0.120163306307     0.307700094778    -0.036911164875    12.000000000000
         C            0.546468693693    -0.924775905222     0.559662835125    12.000000000000
         C           -1.483364306307     0.616548094778     0.621535835125    12.000000000000
         C            0.732765693693     1.560846094778     0.119871835125    12.000000000000
         C            1.910433693693    -1.124801905222    -0.044151164875    12.000000000000
         C           -2.489323306307    -0.437649905222     0.233013835125    12.000000000000
         H           -0.081357306307    -1.798499905222     0.377152835125     1.007825032230
         H            0.660150693693    -0.819708905222     1.644448835125     1.007825032230
         H           -1.833539306307     1.593116094778     0.276087835125     1.007825032230
         H           -1.385223306307     0.635299094778     1.711488835125     1.007825032230
         H           -0.053439306307     0.890743094778    -1.878264164875     1.007825032230
         H            1.684521693693     2.565548094778     1.386189835125     1.007825032230
         H            3.188009693693    -2.450851905222    -0.396783164875     1.007825032230
         H           -4.053753306307    -0.685163905222    -0.767940164875     1.007825032230

  Basis Set: AUG-CC-PVTZ
    Blend: AUG-CC-PVTZ
  Basis Set: (AUG-CC-PVTZ AUX)
    Blend: AUG-CC-PVTZ-JKFIT
	 Reference Energy          =    -756.2571548494911440 [Eh]
	 Singles Energy            =      -0.0000000000000000 [Eh]
	 Same-Spin Energy          =      -0.7303173612596736 [Eh]
	 Opposite-Spin Energy      =      -2.1613519083117536 [Eh]
	 Correlation Energy        =      -2.8916692695714272 [Eh]
	 Total Energy              =    -759.1488241190626240 [Eh]

	 ================> DF-SCS-MP2 Energies <==================
	-----------------------------------------------------------
	 SCS Same-Spin Scale       =       0.3333333333333333 [-]
	 SCS Opposite-Spin Scale   =       1.2000000000000000 [-]
	 SCS Same-Spin Energy      =      -0.2434391204198912 [Eh]
	 SCS Opposite-Spin Energy  =      -2.5936222899741042 [Eh]
	 SCS Correlation Energy    =      -2.8370614103939955 [Eh]
	 SCS Total Energy          =    -759.0942162598851155 [Eh]
	-----------------------------------------------------------

  Dipole Moment: [D]
     X:    -0.3251      Y:     0.5477      Z:     1.7320     Total:     1.8454

*** Psi4 exiting successfully. Buy a developer a beer!
