                               Psi4 1.4a3.dev225

  ==> Input File <==

--------------------------------------------------------------------------
#psi4
#
memory 32 gb

molecule  {
0 1
  O       -0.2992690     0.0680640    -1.4275900
  O        1.1877140     1.7322170     1.3773330
  O        0.9070830     2.3739170    -0.7855270
  O        2.2997080    -2.4217750    -0.0198700
  O       -3.4574230     0.0760400    -0.5564670
  O        2.6367000    -0.2338780    -0.4933410
  O       -2.4354340    -1.6059620     0.5620860
  C       -0.1069630     0.3116450    -0.0442490
  C        0.5596710    -0.9208170     0.5523550
  C       -1.4701590     0.6204980     0.6142450
  C        0.7459620     1.5647900     0.1124790
  C        1.9689021    -1.1275545    -0.0716082
  C       -2.4760910    -0.4336940     0.2256510
  H       -0.0681940    -1.7945300     0.3699280
  H        0.6734230    -0.8156830     1.6371260
  H       -1.8203340     1.5970830     0.2688470
  H       -1.3719830     0.6391850     1.7041930
  H       -0.0401320     0.8945830    -1.8856220
  H        1.6977060     2.5695530     1.3787680
  H        3.2011100    -2.4470060    -0.4042100
  H       -4.0402960    -0.6812640    -0.7756360
units angstrom
no_reorient  #important for SAPT in psi4, default
symmetry c1  #important for SAPT in psi4, default
}

set PROPERTIES_ORIGIN ["COM"]
properties('MP2/aug-cc-pvtz', properties = ['dipole'])
--------------------------------------------------------------------------

    Molecular point group: c1
  Charge       = 0
  Multiplicity = 1
  Basis Set: AUG-CC-PVTZ
    Blend: AUG-CC-PVTZ
  Basis Set: (AUG-CC-PVTZ AUX)
    Blend: AUG-CC-PVTZ-JKFIT

    Orbital Energies [Eh]
    ---------------------

    Doubly Occupied:

       1A    -20.637354     2A    -20.629852     3A    -20.625551
       4A    -20.576382     5A    -20.570546     6A    -20.563780
       7A    -20.560963     8A    -11.410183     9A    -11.404669
      10A    -11.399166    11A    -11.337688    12A    -11.271478
      13A    -11.258796    14A     -1.487086    15A     -1.481721
      16A     -1.470974    17A     -1.397835    18A     -1.386322
      19A     -1.370315    20A     -1.366845    21A     -1.111895
      22A     -1.029326    23A     -0.947955    24A     -0.852270
      25A     -0.830114    26A     -0.794600    27A     -0.758225
      28A     -0.729191    29A     -0.720285    30A     -0.716926
      31A     -0.705340    32A     -0.690785    33A     -0.670259
      34A     -0.657051    35A     -0.643784    36A     -0.637875
      37A     -0.621358    38A     -0.606083    39A     -0.594631
      40A     -0.581323    41A     -0.560354    42A     -0.556780
      43A     -0.543822    44A     -0.506352    45A     -0.499276
      46A     -0.493330    47A     -0.484550    48A     -0.470787
      49A     -0.462822    50A     -0.449065

  @DF-RHF Final Energy:  -756.25830371829784

   => Energetics <=

    Nuclear Repulsion Energy =            874.3819614013035562
    One-Electron Energy =               -2777.0126898516491565
    Two-Electron Energy =                1146.3724247320476479
    Total Energy =                       -756.2583037182978387
  Basis Set: (AUG-CC-PVTZ AUX)
    Blend: AUG-CC-PVTZ-RI
    Molecular point group: c1

    Geometry (in Angstrom), charge = 0, multiplicity = 1:

       Center              X                  Y                   Z               Mass
    ------------   -----------------  -----------------  -----------------  -----------------
         O           -0.311216913567     0.068282412580    -1.414522197524    15.994914619570
         O            1.175766086433     1.732435412580     1.390400802476    15.994914619570
         O            0.895135086433     2.374135412580    -0.772459197524    15.994914619570
         O            2.287760086433    -2.421556587420    -0.006802197524    15.994914619570
         O           -3.469370913567     0.076258412580    -0.543399197524    15.994914619570
         O            2.624752086433    -0.233659587420    -0.480273197524    15.994914619570
         O           -2.447381913567    -1.605743587420     0.575153802476    15.994914619570
         C           -0.118910913567     0.311863412580    -0.031181197524    12.000000000000
         C            0.547723086433    -0.920598587420     0.565422802476    12.000000000000
         C           -1.482106913567     0.620716412580     0.627312802476    12.000000000000
         C            0.734014086433     1.565008412580     0.125546802476    12.000000000000
         C            1.956954186433    -1.127336087420    -0.058540397524    12.000000000000
         C           -2.488038913567    -0.433475587420     0.238718802476    12.000000000000
         H           -0.080141913567    -1.794311587420     0.382995802476     1.007825032230
         H            0.661475086433    -0.815464587420     1.650193802476     1.007825032230
         H           -1.832281913567     1.597301412580     0.281914802476     1.007825032230
         H           -1.383930913567     0.639403412580     1.717260802476     1.007825032230
         H           -0.052079913567     0.894801412580    -1.872554197524     1.007825032230
         H            1.685758086433     2.569771412580     1.391835802476     1.007825032230
         H            3.189162086433    -2.446787587420    -0.391142197524     1.007825032230
         H           -4.052243913567    -0.681045587420    -0.762568197524     1.007825032230

  Basis Set: AUG-CC-PVTZ
    Blend: AUG-CC-PVTZ
  Basis Set: (AUG-CC-PVTZ AUX)
    Blend: AUG-CC-PVTZ-JKFIT
	 Reference Energy          =    -756.2583037182978387 [Eh]
	 Singles Energy            =      -0.0000000000000000 [Eh]
	 Same-Spin Energy          =      -0.7297067338110136 [Eh]
	 Opposite-Spin Energy      =      -2.1599268811099437 [Eh]
	 Correlation Energy        =      -2.8896336149209572 [Eh]
	 Total Energy              =    -759.1479373332188061 [Eh]

	 ================> DF-SCS-MP2 Energies <==================
	-----------------------------------------------------------
	 SCS Same-Spin Scale       =       0.3333333333333333 [-]
	 SCS Opposite-Spin Scale   =       1.2000000000000000 [-]
	 SCS Same-Spin Energy      =      -0.2432355779370045 [Eh]
	 SCS Opposite-Spin Energy  =      -2.5919122573319324 [Eh]
	 SCS Correlation Energy    =      -2.8351478352689368 [Eh]
	 SCS Total Energy          =    -759.0934515535667515 [Eh]
	-----------------------------------------------------------

  Dipole Moment: [D]
     X:     0.1070      Y:     0.6427      Z:     1.7737     Total:     1.8896

*** Psi4 exiting successfully. Buy a developer a beer!
