                               Psi4 1.3.2 release

  ==> Input File <==

--------------------------------------------------------------------------
#psi4
#
memory 32 gb

molecule  {
0 1
  O       -0.2992330     0.0680890    -1.4276520
  O        1.1877390     1.7321380     1.3773370
  O        0.9070540     2.3739560    -0.7854760
  O        2.2997900    -2.4217320    -0.0198770
  O       -3.4576290     0.0760600    -0.5562400
  O        2.6367540    -0.2338110    -0.4932570
  O       -2.4353810    -1.6060190     0.5619510
  C       -0.1069590     0.3116290    -0.0442930
  C        0.5596730    -0.9208470     0.5522810
  C       -1.4701600     0.6204770     0.6141540
  C        0.7459700     1.5647750     0.1124900
  C        1.8911986    -1.2152183    -0.0844195
  C       -2.4761190    -0.4337210     0.2256320
  H       -0.0681530    -1.7945710     0.3697710
  H        0.6733550    -0.8157800     1.6370670
  H       -1.8203350     1.5970450     0.2687060
  H       -1.3720190     0.6392280     1.7041070
  H       -0.0402350     0.8946720    -1.8856460
  H        1.6977260     2.5694770     1.3788080
  H        3.2012140    -2.4469230    -0.4041650
  H       -4.0405490    -0.6812350    -0.7753220
units angstrom
no_reorient  #important for SAPT in psi4, default
symmetry c1  #important for SAPT in psi4, default
}

set PROPERTIES_ORIGIN ["COM"]
properties('MP2/aug-cc-pvtz', properties = ['dipole'])
--------------------------------------------------------------------------

    Molecular point group: c1
  Charge       = 0
  Multiplicity = 1
  Basis Set: AUG-CC-PVTZ
    Blend: AUG-CC-PVTZ
  Basis Set: (AUG-CC-PVTZ AUX)
    Blend: AUG-CC-PVTZ-JKFIT

    Orbital Energies [Eh]
    ---------------------

    Doubly Occupied:

       1A    -20.648746     2A    -20.633820     3A    -20.626442
       4A    -20.576231     5A    -20.566873     6A    -20.562106
       7A    -20.542981     8A    -11.407920     9A    -11.407169
      10A    -11.405747    11A    -11.339790    12A    -11.272579
      13A    -11.263038    14A     -1.505893    15A     -1.480733
      16A     -1.471926    17A     -1.396300    18A     -1.369276
      19A     -1.366926    20A     -1.325529    21A     -1.115187
      22A     -1.039454    23A     -0.954740    24A     -0.869752
      25A     -0.836332    26A     -0.798948    27A     -0.757931
      28A     -0.729281    29A     -0.720610    30A     -0.716797
      31A     -0.703040    32A     -0.692556    33A     -0.672904
      34A     -0.662366    35A     -0.642860    36A     -0.636892
      37A     -0.620806    38A     -0.600407    39A     -0.596849
      40A     -0.570988    41A     -0.561453    42A     -0.554283
      43A     -0.543997    44A     -0.500993    45A     -0.493734
      46A     -0.483494    47A     -0.472229    48A     -0.461677
      49A     -0.458361    50A     -0.447427

  @DF-RHF Final Energy:  -756.24165538516718

   => Energetics <=

    Nuclear Repulsion Energy =            874.0497916458247118
    One-Electron Energy =               -2776.4101495033009996
    Two-Electron Energy =                1146.1187024723089962
    Total Energy =                       -756.2416553851671779
  Basis Set: (AUG-CC-PVTZ AUX)
    Blend: AUG-CC-PVTZ-RI
    Molecular point group: c1

    Geometry (in Angstrom), charge = 0, multiplicity = 1:

       Center              X                  Y                   Z               Mass
    ------------   -----------------  -----------------  -----------------  -----------------
         O           -0.306323886275     0.073787652043    -1.413783180199    15.994914619570
         O            1.180648113725     1.737836652043     1.391205819801    15.994914619570
         O            0.899963113725     2.379654652043    -0.771607180199    15.994914619570
         O            2.292699113725    -2.416033347957    -0.006008180199    15.994914619570
         O           -3.464719886275     0.081758652043    -0.542371180199    15.994914619570
         O            2.629663113725    -0.228112347957    -0.479388180199    15.994914619570
         O           -2.442471886275    -1.600320347957     0.575819819801    15.994914619570
         C           -0.114049886275     0.317327652043    -0.030424180199    12.000000000000
         C            0.552582113725    -0.915148347957     0.566149819801    12.000000000000
         C           -1.477250886275     0.626175652043     0.628022819801    12.000000000000
         C            0.738879113725     1.570473652043     0.126358819801    12.000000000000
         C            1.884107713725    -1.209519647957    -0.070550680199    12.000000000000
         C           -2.483209886275    -0.428022347957     0.239500819801    12.000000000000
         H           -0.075243886275    -1.788872347957     0.383639819801     1.007825032230
         H            0.666264113725    -0.810081347957     1.650935819801     1.007825032230
         H           -1.827425886275     1.602743652043     0.282574819801     1.007825032230
         H           -1.379109886275     0.644926652043     1.717975819801     1.007825032230
         H           -0.047325886275     0.900370652043    -1.871777180199     1.007825032230
         H            1.690635113725     2.575175652043     1.392676819801     1.007825032230
         H            3.194123113725    -2.441224347957    -0.390296180199     1.007825032230
         H           -4.047639886275    -0.675536347957    -0.761453180199     1.007825032230

  Basis Set: AUG-CC-PVTZ
    Blend: AUG-CC-PVTZ
  Basis Set: (AUG-CC-PVTZ AUX)
    Blend: AUG-CC-PVTZ-JKFIT
	 Reference Energy          =    -756.2416553851671779 [Eh]
	 Singles Energy            =      -0.0000000000000000 [Eh]
	 Same-Spin Energy          =      -0.7315532886406521 [Eh]
	 Opposite-Spin Energy      =      -2.1631527544633351 [Eh]
	 Correlation Energy        =      -2.8947060431039873 [Eh]
	 Total Energy              =    -759.1363614282711296 [Eh]

	 ================> DF-SCS-MP2 Energies <==================
	-----------------------------------------------------------
	 SCS Same-Spin Scale       =       0.3333333333333333 [-]
	 SCS Opposite-Spin Scale   =       1.2000000000000000 [-]
	 SCS Same-Spin Energy      =      -0.2438510962135507 [Eh]
	 SCS Opposite-Spin Energy  =      -2.5957833053560022 [Eh]
	 SCS Correlation Energy    =      -2.8396344015695529 [Eh]
	 SCS Total Energy          =    -759.0812897867367610 [Eh]
	-----------------------------------------------------------

  Dipole Moment: [D]
     X:    -0.1407      Y:    -0.0107      Z:     1.9108     Total:     1.9160

*** Psi4 exiting successfully. Buy a developer a beer!
