                               Psi4 1.4a3.dev225

  ==> Input File <==

--------------------------------------------------------------------------
#psi4
#
memory 32 gb

molecule  {
0 1
  O       -0.2992690     0.0680640    -1.4275900
  O        1.1877140     1.7322170     1.3773330
  O        0.9070830     2.3739170    -0.7855270
  O        2.2997080    -2.4217750    -0.0198700
  O       -3.4574230     0.0760400    -0.5564670
  O        2.6367000    -0.2338780    -0.4933410
  O       -2.4354340    -1.6059620     0.5620860
  C       -0.1069630     0.3116450    -0.0442490
  C        0.5596710    -0.9208170     0.5523550
  C       -1.4701590     0.6204980     0.6142450
  C        0.7459620     1.5647900     0.1124790
  C        1.9054638    -1.1182480    -0.0435197
  C       -2.4760910    -0.4336940     0.2256510
  H       -0.0681940    -1.7945300     0.3699280
  H        0.6734230    -0.8156830     1.6371260
  H       -1.8203340     1.5970830     0.2688470
  H       -1.3719830     0.6391850     1.7041930
  H       -0.0401320     0.8945830    -1.8856220
  H        1.6977060     2.5695530     1.3787680
  H        3.2011100    -2.4470060    -0.4042100
  H       -4.0402960    -0.6812640    -0.7756360
units angstrom
no_reorient  #important for SAPT in psi4, default
symmetry c1  #important for SAPT in psi4, default
}

set PROPERTIES_ORIGIN ["COM"]
properties('MP2/aug-cc-pvtz', properties = ['dipole'])
--------------------------------------------------------------------------

    Molecular point group: c1
  Charge       = 0
  Multiplicity = 1
  Basis Set: AUG-CC-PVTZ
    Blend: AUG-CC-PVTZ
  Basis Set: (AUG-CC-PVTZ AUX)
    Blend: AUG-CC-PVTZ-JKFIT

    Orbital Energies [Eh]
    ---------------------

    Doubly Occupied:

       1A    -20.638570     2A    -20.627505     3A    -20.623169
       4A    -20.579121     5A    -20.571700     6A    -20.563390
       7A    -20.560055     8A    -11.412034     9A    -11.407042
      10A    -11.403947    11A    -11.342094    12A    -11.274173
      13A    -11.263205    14A     -1.485933    15A     -1.473091
      16A     -1.464840    17A     -1.399748    18A     -1.372516
      19A     -1.369196    20A     -1.359533    21A     -1.119482
      22A     -1.043181    23A     -0.954710    24A     -0.853825
      25A     -0.830452    26A     -0.795861    27A     -0.760850
      28A     -0.728195    29A     -0.719161    30A     -0.715178
      31A     -0.704336    32A     -0.691429    33A     -0.669251
      34A     -0.653195    35A     -0.644799    36A     -0.637981
      37A     -0.623241    38A     -0.603780    39A     -0.595501
      40A     -0.579958    41A     -0.562851    42A     -0.560582
      43A     -0.546802    44A     -0.506096    45A     -0.495691
      46A     -0.487635    47A     -0.485794    48A     -0.472454
      49A     -0.465965    50A     -0.453739

  @DF-RHF Final Energy:  -756.25593031051403

   => Energetics <=

    Nuclear Repulsion Energy =            874.7665125475585910
    One-Electron Energy =               -2777.7392183556107739
    Two-Electron Energy =                1146.7167754975380376
    Total Energy =                       -756.2559303105140316
  Basis Set: (AUG-CC-PVTZ AUX)
    Blend: AUG-CC-PVTZ-RI
    Molecular point group: c1

    Geometry (in Angstrom), charge = 0, multiplicity = 1:

       Center              X                  Y                   Z               Mass
    ------------   -----------------  -----------------  -----------------  -----------------
         O           -0.307252577356     0.067700838122    -1.416277481913    15.994914619570
         O            1.179730422644     1.731853838122     1.388645518087    15.994914619570
         O            0.899099422644     2.373553838122    -0.774214481913    15.994914619570
         O            2.291724422644    -2.422138161878    -0.008557481913    15.994914619570
         O           -3.465406577356     0.075676838122    -0.545154481913    15.994914619570
         O            2.628716422644    -0.234241161878    -0.482028481913    15.994914619570
         O           -2.443417577356    -1.606325161878     0.573398518087    15.994914619570
         C           -0.114946577356     0.311281838122    -0.032936481913    12.000000000000
         C            0.551687422644    -0.921180161878     0.563667518087    12.000000000000
         C           -1.478142577356     0.620134838122     0.625557518087    12.000000000000
         C            0.737978422644     1.564426838122     0.123791518087    12.000000000000
         C            1.897480222644    -1.118611161878    -0.032207181913    12.000000000000
         C           -2.484074577356    -0.434057161878     0.236963518087    12.000000000000
         H           -0.076177577356    -1.794893161878     0.381240518087     1.007825032230
         H            0.665439422644    -0.816046161878     1.648438518087     1.007825032230
         H           -1.828317577356     1.596719838122     0.280159518087     1.007825032230
         H           -1.379966577356     0.638821838122     1.715505518087     1.007825032230
         H           -0.048115577356     0.894219838122    -1.874309481913     1.007825032230
         H            1.689722422644     2.569189838122     1.390080518087     1.007825032230
         H            3.193126422644    -2.447369161878    -0.392897481913     1.007825032230
         H           -4.048279577356    -0.681627161878    -0.764323481913     1.007825032230

  Basis Set: AUG-CC-PVTZ
    Blend: AUG-CC-PVTZ
  Basis Set: (AUG-CC-PVTZ AUX)
    Blend: AUG-CC-PVTZ-JKFIT
	 Reference Energy          =    -756.2559303105140316 [Eh]
	 Singles Energy            =      -0.0000000000000000 [Eh]
	 Same-Spin Energy          =      -0.7309773855023841 [Eh]
	 Opposite-Spin Energy      =      -2.1624382376685896 [Eh]
	 Correlation Energy        =      -2.8934156231709736 [Eh]
	 Total Energy              =    -759.1493459336850265 [Eh]

	 ================> DF-SCS-MP2 Energies <==================
	-----------------------------------------------------------
	 SCS Same-Spin Scale       =       0.3333333333333333 [-]
	 SCS Opposite-Spin Scale   =       1.2000000000000000 [-]
	 SCS Same-Spin Energy      =      -0.2436591285007947 [Eh]
	 SCS Opposite-Spin Energy  =      -2.5949258852023074 [Eh]
	 SCS Correlation Energy    =      -2.8385850137031019 [Eh]
	 SCS Total Energy          =    -759.0945153242171273 [Eh]
	-----------------------------------------------------------

  Dipole Moment: [D]
     X:    -0.2748      Y:     0.7791      Z:     1.8938     Total:     2.0661

*** Psi4 exiting successfully. Buy a developer a beer!
