                               Psi4 1.3.2 release

  ==> Input File <==

--------------------------------------------------------------------------
#psi4
#
memory 32 gb

molecule  {
0 1
  O       -0.2992330     0.0680890    -1.4276520
  O        1.1877390     1.7321380     1.3773370
  O        0.9070540     2.3739560    -0.7854760
  O        2.3404476    -2.4096244    -0.0407504
  O       -3.4576290     0.0760600    -0.5562400
  O        2.6367540    -0.2338110    -0.4932570
  O       -2.4353810    -1.6060190     0.5619510
  C       -0.1069590     0.3116290    -0.0442930
  C        0.5596730    -0.9208470     0.5522810
  C       -1.4701600     0.6204770     0.6141540
  C        0.7459700     1.5647750     0.1124900
  C        1.9236380    -1.1208730    -0.0515330
  C       -2.4761190    -0.4337210     0.2256320
  H       -0.0681530    -1.7945710     0.3697710
  H        0.6733550    -0.8157800     1.6370670
  H       -1.8203350     1.5970450     0.2687060
  H       -1.3720190     0.6392280     1.7041070
  H       -0.0402350     0.8946720    -1.8856460
  H        1.6977260     2.5694770     1.3788080
  H        3.2012140    -2.4469230    -0.4041650
  H       -4.0405490    -0.6812350    -0.7753220
units angstrom
no_reorient  #important for SAPT in psi4, default
symmetry c1  #important for SAPT in psi4, default
}

set PROPERTIES_ORIGIN ["COM"]
properties('MP2/aug-cc-pvtz', properties = ['dipole'])
--------------------------------------------------------------------------

    Molecular point group: c1
  Charge       = 0
  Multiplicity = 1
  Basis Set: AUG-CC-PVTZ
    Blend: AUG-CC-PVTZ
  Basis Set: (AUG-CC-PVTZ AUX)
    Blend: AUG-CC-PVTZ-JKFIT

    Orbital Energies [Eh]
    ---------------------

    Doubly Occupied:

       1A    -20.638484     2A    -20.627411     3A    -20.618539
       4A    -20.578890     5A    -20.571633     6A    -20.563249
       7A    -20.558918     8A    -11.411925     9A    -11.406924
      10A    -11.402585    11A    -11.341954    12A    -11.274150
      13A    -11.264396    14A     -1.486110    15A     -1.474705
      16A     -1.472978    17A     -1.399663    18A     -1.372806
      19A     -1.369297    20A     -1.366671    21A     -1.118192
      22A     -1.040687    23A     -0.954483    24A     -0.858663
      25A     -0.834539    26A     -0.798393    27A     -0.761147
      28A     -0.728515    29A     -0.719160    30A     -0.717279
      31A     -0.705286    32A     -0.691901    33A     -0.670069
      34A     -0.654124    35A     -0.645101    36A     -0.638249
      37A     -0.623789    38A     -0.604226    39A     -0.595984
      40A     -0.580063    41A     -0.563643    42A     -0.560742
      43A     -0.546818    44A     -0.506028    45A     -0.495613
      46A     -0.489119    47A     -0.486212    48A     -0.472400
      49A     -0.465660    50A     -0.453174

  @DF-RHF Final Energy:  -756.25925882728188

   => Energetics <=

    Nuclear Repulsion Energy =            874.6098778497354260
    One-Electron Energy =               -2777.3771830012992723
    Two-Electron Energy =                1146.5080463242820770
    Total Energy =                       -756.2592588272818830
  Basis Set: (AUG-CC-PVTZ AUX)
    Blend: AUG-CC-PVTZ-RI
    Molecular point group: c1

    Geometry (in Angstrom), charge = 0, multiplicity = 1:

       Center              X                  Y                   Z               Mass
    ------------   -----------------  -----------------  -----------------  -----------------
         O           -0.311737643854     0.066883395817    -1.414099644802    15.994914619570
         O            1.175234356146     1.730932395817     1.390889355198    15.994914619570
         O            0.894549356146     2.372750395817    -0.771923644802    15.994914619570
         O            2.327942956146    -2.410830004183    -0.027198044802    15.994914619570
         O           -3.470133643854     0.074854395817    -0.542687644802    15.994914619570
         O            2.624249356146    -0.235016604183    -0.479704644802    15.994914619570
         O           -2.447885643854    -1.607224604183     0.575503355198    15.994914619570
         C           -0.119463643854     0.310423395817    -0.030740644802    12.000000000000
         C            0.547168356146    -0.922052604183     0.565833355198    12.000000000000
         C           -1.482664643854     0.619271395817     0.627706355198    12.000000000000
         C            0.733465356146     1.563569395817     0.126042355198    12.000000000000
         C            1.911133356146    -1.122078604183    -0.037980644802    12.000000000000
         C           -2.488623643854    -0.434926604183     0.239184355198    12.000000000000
         H           -0.080657643854    -1.795776604183     0.383323355198     1.007825032230
         H            0.660850356146    -0.816985604183     1.650619355198     1.007825032230
         H           -1.832839643854     1.595839395817     0.282258355198     1.007825032230
         H           -1.384523643854     0.638022395817     1.717659355198     1.007825032230
         H           -0.052739643854     0.893466395817    -1.872093644802     1.007825032230
         H            1.685221356146     2.568271395817     1.392360355198     1.007825032230
         H            3.188709356146    -2.448128604183    -0.390612644802     1.007825032230
         H           -4.053053643854    -0.682440604183    -0.761769644802     1.007825032230

  Basis Set: AUG-CC-PVTZ
    Blend: AUG-CC-PVTZ
  Basis Set: (AUG-CC-PVTZ AUX)
    Blend: AUG-CC-PVTZ-JKFIT
	 Reference Energy          =    -756.2592588272818830 [Eh]
	 Singles Energy            =      -0.0000000000000000 [Eh]
	 Same-Spin Energy          =      -0.7297123114498325 [Eh]
	 Opposite-Spin Energy      =      -2.1598071764013786 [Eh]
	 Correlation Energy        =      -2.8895194878512109 [Eh]
	 Total Energy              =    -759.1487783151330859 [Eh]

	 ================> DF-SCS-MP2 Energies <==================
	-----------------------------------------------------------
	 SCS Same-Spin Scale       =       0.3333333333333333 [-]
	 SCS Opposite-Spin Scale   =       1.2000000000000000 [-]
	 SCS Same-Spin Energy      =      -0.2432374371499442 [Eh]
	 SCS Opposite-Spin Energy  =      -2.5917686116816543 [Eh]
	 SCS Correlation Energy    =      -2.8350060488315982 [Eh]
	 SCS Total Energy          =    -759.0942648761134706 [Eh]
	-----------------------------------------------------------

  Dipole Moment: [D]
     X:    -0.2617      Y:     0.7705      Z:     1.8913     Total:     2.0589

*** Psi4 exiting successfully. Buy a developer a beer!
