                               Psi4 1.3.2 release

  ==> Input File <==

--------------------------------------------------------------------------
#psi4
#
memory 32 gb

molecule  {
0 1
  O       -0.2992330     0.0680890    -1.4276520
  O        1.1877390     1.7321380     1.3773370
  O        0.9070540     2.3739560    -0.7854760
  O        2.4217876    -2.3801670    -0.0789582
  O       -3.4576290     0.0760600    -0.5562400
  O        2.6367540    -0.2338110    -0.4932570
  O       -2.4353810    -1.6060190     0.5619510
  C       -0.1069590     0.3116290    -0.0442930
  C        0.5596730    -0.9208470     0.5522810
  C       -1.4701600     0.6204770     0.6141540
  C        0.7459700     1.5647750     0.1124900
  C        1.9236380    -1.1208730    -0.0515330
  C       -2.4761190    -0.4337210     0.2256320
  H       -0.0681530    -1.7945710     0.3697710
  H        0.6733550    -0.8157800     1.6370670
  H       -1.8203350     1.5970450     0.2687060
  H       -1.3720190     0.6392280     1.7041070
  H       -0.0402350     0.8946720    -1.8856460
  H        1.6977260     2.5694770     1.3788080
  H        3.2012140    -2.4469230    -0.4041650
  H       -4.0405490    -0.6812350    -0.7753220
units angstrom
no_reorient  #important for SAPT in psi4, default
symmetry c1  #important for SAPT in psi4, default
}

set PROPERTIES_ORIGIN ["COM"]
properties('MP2/aug-cc-pvtz', properties = ['dipole'])
--------------------------------------------------------------------------

    Molecular point group: c1
  Charge       = 0
  Multiplicity = 1
  Basis Set: AUG-CC-PVTZ
    Blend: AUG-CC-PVTZ
  Basis Set: (AUG-CC-PVTZ AUX)
    Blend: AUG-CC-PVTZ-JKFIT

    Orbital Energies [Eh]
    ---------------------

    Doubly Occupied:

       1A    -20.639049     2A    -20.628364     3A    -20.603828
       4A    -20.580041     5A    -20.572205     6A    -20.564387
       7A    -20.554774     8A    -11.412807     9A    -11.408072
      10A    -11.403750    11A    -11.344247    12A    -11.275676
      13A    -11.269115    14A     -1.488921    15A     -1.484224
      16A     -1.473998    17A     -1.400823    18A     -1.373891
      19A     -1.370447    20A     -1.367858    21A     -1.120418
      22A     -1.044101    23A     -0.958646    24A     -0.876752
      25A     -0.840361    26A     -0.803091    27A     -0.763219
      28A     -0.730461    29A     -0.720545    30A     -0.717644
      31A     -0.704853    32A     -0.693168    33A     -0.671971
      34A     -0.655105    35A     -0.645953    36A     -0.638667
      37A     -0.624953    38A     -0.603337    39A     -0.597237
      40A     -0.578530    41A     -0.566155    42A     -0.562972
      43A     -0.548348    44A     -0.506356    45A     -0.496628
      46A     -0.487994    47A     -0.485056    48A     -0.473347
      49A     -0.464836    50A     -0.454072

  @DF-RHF Final Energy:  -756.24282652612465

   => Energetics <=

    Nuclear Repulsion Energy =            874.6665535557472140
    One-Electron Energy =               -2777.3162553367301371
    Two-Electron Energy =                1146.4068752548582779
    Total Energy =                       -756.2428265261246452
  Basis Set: (AUG-CC-PVTZ AUX)
    Blend: AUG-CC-PVTZ-RI
    Molecular point group: c1

    Geometry (in Angstrom), charge = 0, multiplicity = 1:

       Center              X                  Y                   Z               Mass
    ------------   -----------------  -----------------  -----------------  -----------------
         O           -0.318512869929     0.064429737781    -1.410917121040    15.994914619570
         O            1.168459130071     1.728478737781     1.394071878960    15.994914619570
         O            0.887774130071     2.370296737781    -0.768741121040    15.994914619570
         O            2.402507730071    -2.383826262219    -0.062223321040    15.994914619570
         O           -3.476908869929     0.072400737781    -0.539505121040    15.994914619570
         O            2.617474130071    -0.237470262219    -0.476522121040    15.994914619570
         O           -2.454660869929    -1.609678262219     0.578685878960    15.994914619570
         C           -0.126238869929     0.307969737781    -0.027558121040    12.000000000000
         C            0.540393130071    -0.924506262219     0.569015878960    12.000000000000
         C           -1.489439869929     0.616817737781     0.630888878960    12.000000000000
         C            0.726690130071     1.561115737781     0.129224878960    12.000000000000
         C            1.904358130071    -1.124532262219    -0.034798121040    12.000000000000
         C           -2.495398869929    -0.437380262219     0.242366878960    12.000000000000
         H           -0.087432869929    -1.798230262219     0.386505878960     1.007825032230
         H            0.654075130071    -0.819439262219     1.653801878960     1.007825032230
         H           -1.839614869929     1.593385737781     0.285440878960     1.007825032230
         H           -1.391298869929     0.635568737781     1.720841878960     1.007825032230
         H           -0.059514869929     0.891012737781    -1.868911121040     1.007825032230
         H            1.678446130071     2.565817737781     1.395542878960     1.007825032230
         H            3.181934130071    -2.450582262219    -0.387430121040     1.007825032230
         H           -4.059828869929    -0.684894262219    -0.758587121040     1.007825032230

  Basis Set: AUG-CC-PVTZ
    Blend: AUG-CC-PVTZ
  Basis Set: (AUG-CC-PVTZ AUX)
    Blend: AUG-CC-PVTZ-JKFIT
	 Reference Energy          =    -756.2428265261246452 [Eh]
	 Singles Energy            =      -0.0000000000000000 [Eh]
	 Same-Spin Energy          =      -0.7282976805801236 [Eh]
	 Opposite-Spin Energy      =      -2.1568630835938460 [Eh]
	 Correlation Energy        =      -2.8851607641739694 [Eh]
	 Total Energy              =    -759.1279872902986199 [Eh]

	 ================> DF-SCS-MP2 Energies <==================
	-----------------------------------------------------------
	 SCS Same-Spin Scale       =       0.3333333333333333 [-]
	 SCS Opposite-Spin Scale   =       1.2000000000000000 [-]
	 SCS Same-Spin Energy      =      -0.2427658935267079 [Eh]
	 SCS Opposite-Spin Energy  =      -2.5882357003126151 [Eh]
	 SCS Correlation Energy    =      -2.8310015938393231 [Eh]
	 SCS Total Energy          =    -759.0738281199639914 [Eh]
	-----------------------------------------------------------

  Dipole Moment: [D]
     X:    -0.4674      Y:     0.8397      Z:     1.9519     Total:     2.1756

*** Psi4 exiting successfully. Buy a developer a beer!
