                               Psi4 1.4a3.dev225

  ==> Input File <==

--------------------------------------------------------------------------
#psi4
#
memory 32 gb

molecule  {
0 1
  O       -0.2992690     0.0680640    -1.4275900
  O        1.1877140     1.7322170     1.3773330
  O        0.9070830     2.3739170    -0.7855270
  O        2.2997080    -2.4217750    -0.0198700
  O       -3.4574230     0.0760400    -0.5564670
  O        2.6367000    -0.2338780    -0.4933410
  O       -2.4354340    -1.6059620     0.5620860
  C       -0.1069630     0.3116450    -0.0442490
  C        0.5596710    -0.9208170     0.5523550
  C       -1.4701590     0.6204980     0.6142450
  C        0.7459620     1.5647900     0.1124790
  C        1.8782759    -1.1142595    -0.0314818
  C       -2.4760910    -0.4336940     0.2256510
  H       -0.0681940    -1.7945300     0.3699280
  H        0.6734230    -0.8156830     1.6371260
  H       -1.8203340     1.5970830     0.2688470
  H       -1.3719830     0.6391850     1.7041930
  H       -0.0401320     0.8945830    -1.8856220
  H        1.6977060     2.5695530     1.3787680
  H        3.2011100    -2.4470060    -0.4042100
  H       -4.0402960    -0.6812640    -0.7756360
units angstrom
no_reorient  #important for SAPT in psi4, default
symmetry c1  #important for SAPT in psi4, default
}

set PROPERTIES_ORIGIN ["COM"]
properties('MP2/aug-cc-pvtz', properties = ['dipole'])
--------------------------------------------------------------------------

    Molecular point group: c1
  Charge       = 0
  Multiplicity = 1
  Basis Set: AUG-CC-PVTZ
    Blend: AUG-CC-PVTZ
  Basis Set: (AUG-CC-PVTZ AUX)
    Blend: AUG-CC-PVTZ-JKFIT

    Orbital Energies [Eh]
    ---------------------

    Doubly Occupied:

       1A    -20.639103     2A    -20.628340     3A    -20.620354
       4A    -20.580299     5A    -20.572213     6A    -20.564427
       7A    -20.558588     8A    -11.412842     9A    -11.408056
      10A    -11.406373    11A    -11.344048    12A    -11.275329
      13A    -11.264584    14A     -1.486415    15A     -1.473995
      16A     -1.456659    17A     -1.400725    18A     -1.373185
      19A     -1.370110    20A     -1.348480    21A     -1.123479
      22A     -1.049525    23A     -0.957475    24A     -0.854620
      25A     -0.830565    26A     -0.796208    27A     -0.762023
      28A     -0.728617    29A     -0.720187    30A     -0.715082
      31A     -0.702062    32A     -0.691753    33A     -0.669618
      34A     -0.652965    35A     -0.645101    36A     -0.638067
      37A     -0.623847    38A     -0.602390    39A     -0.595501
      40A     -0.578868    41A     -0.563581    42A     -0.562307
      43A     -0.548003    44A     -0.506449    45A     -0.496597
      46A     -0.487675    47A     -0.481352    48A     -0.472839
      49A     -0.465609    50A     -0.455155

  @DF-RHF Final Energy:  -756.25042291533543

   => Energetics <=

    Nuclear Repulsion Energy =            874.9447223774681106
    One-Electron Energy =               -2778.0669976386679991
    Two-Electron Energy =                1146.8718523458642267
    Total Energy =                       -756.2504229153355482
  Basis Set: (AUG-CC-PVTZ AUX)
    Blend: AUG-CC-PVTZ-RI
    Molecular point group: c1

    Geometry (in Angstrom), charge = 0, multiplicity = 1:

       Center              X                  Y                   Z               Mass
    ------------   -----------------  -----------------  -----------------  -----------------
         O           -0.305553572551     0.067451591925    -1.417029744866    15.994914619570
         O            1.181429427449     1.731604591925     1.387893255134    15.994914619570
         O            0.900798427449     2.373304591925    -0.774966744866    15.994914619570
         O            2.293423427449    -2.422387408075    -0.009309744866    15.994914619570
         O           -3.463707572551     0.075427591925    -0.545906744866    15.994914619570
         O            2.630415427449    -0.234490408075    -0.482780744866    15.994914619570
         O           -2.441718572551    -1.606574408075     0.572646255134    15.994914619570
         C           -0.113247572551     0.311032591925    -0.033688744866    12.000000000000
         C            0.553386427449    -0.921429408075     0.562915255134    12.000000000000
         C           -1.476443572551     0.619885591925     0.624805255134    12.000000000000
         C            0.739677427449     1.564177591925     0.123039255134    12.000000000000
         C            1.871991327449    -1.114871908075    -0.020921544866    12.000000000000
         C           -2.482375572551    -0.434306408075     0.236211255134    12.000000000000
         H           -0.074478572551    -1.795142408075     0.380488255134     1.007825032230
         H            0.667138427449    -0.816295408075     1.647686255134     1.007825032230
         H           -1.826618572551     1.596470591925     0.279407255134     1.007825032230
         H           -1.378267572551     0.638572591925     1.714753255134     1.007825032230
         H           -0.046416572551     0.893970591925    -1.875061744866     1.007825032230
         H            1.691421427449     2.568940591925     1.389328255134     1.007825032230
         H            3.194825427449    -2.447618408075    -0.393649744866     1.007825032230
         H           -4.046580572551    -0.681876408075    -0.765075744866     1.007825032230

  Basis Set: AUG-CC-PVTZ
    Blend: AUG-CC-PVTZ
  Basis Set: (AUG-CC-PVTZ AUX)
    Blend: AUG-CC-PVTZ-JKFIT
	 Reference Energy          =    -756.2504229153354345 [Eh]
	 Singles Energy            =      -0.0000000000000000 [Eh]
	 Same-Spin Energy          =      -0.7317119391330380 [Eh]
	 Opposite-Spin Energy      =      -2.1638654175519760 [Eh]
	 Correlation Energy        =      -2.8955773566850143 [Eh]
	 Total Energy              =    -759.1460002720205011 [Eh]

	 ================> DF-SCS-MP2 Energies <==================
	-----------------------------------------------------------
	 SCS Same-Spin Scale       =       0.3333333333333333 [-]
	 SCS Opposite-Spin Scale   =       1.2000000000000000 [-]
	 SCS Same-Spin Energy      =      -0.2439039797110127 [Eh]
	 SCS Opposite-Spin Energy  =      -2.5966385010623712 [Eh]
	 SCS Correlation Energy    =      -2.8405424807733839 [Eh]
	 SCS Total Energy          =    -759.0909653961087997 [Eh]
	-----------------------------------------------------------

  Dipole Moment: [D]
     X:    -0.4338      Y:     0.8423      Z:     1.9427     Total:     2.1614

*** Psi4 exiting successfully. Buy a developer a beer!
