                               Psi4 1.3.2 release

  ==> Input File <==

--------------------------------------------------------------------------
#psi4
#
memory 32 gb

molecule  {
0 1
  O       -0.2992330     0.0680890    -1.4276520
  O        1.1877390     1.7321380     1.3773370
  O        0.9070540     2.3739560    -0.7854760
  O        2.2997900    -2.4217320    -0.0198770
  O       -3.4576290     0.0760600    -0.5562400
  O        2.6367540    -0.2338110    -0.4932570
  O       -2.4353810    -1.6060190     0.5619510
  C       -0.1205211     0.2944509    -0.1418685
  C        0.5596730    -0.9208470     0.5522810
  C       -1.4701600     0.6204770     0.6141540
  C        0.7459700     1.5647750     0.1124900
  C        1.9236380    -1.1208730    -0.0515330
  C       -2.4761190    -0.4337210     0.2256320
  H       -0.0681530    -1.7945710     0.3697710
  H        0.6733550    -0.8157800     1.6370670
  H       -1.8203350     1.5970450     0.2687060
  H       -1.3720190     0.6392280     1.7041070
  H       -0.0402350     0.8946720    -1.8856460
  H        1.6977260     2.5694770     1.3788080
  H        3.2012140    -2.4469230    -0.4041650
  H       -4.0405490    -0.6812350    -0.7753220
units angstrom
no_reorient  #important for SAPT in psi4, default
symmetry c1  #important for SAPT in psi4, default
}

set PROPERTIES_ORIGIN ["COM"]
properties('MP2/aug-cc-pvtz', properties = ['dipole'])
--------------------------------------------------------------------------

    Molecular point group: c1
  Charge       = 0
  Multiplicity = 1
  Basis Set: AUG-CC-PVTZ
    Blend: AUG-CC-PVTZ
  Basis Set: (AUG-CC-PVTZ AUX)
    Blend: AUG-CC-PVTZ-JKFIT

    Orbital Energies [Eh]
    ---------------------

    Doubly Occupied:

       1A    -20.638136     2A    -20.625845     3A    -20.623749
       4A    -20.590253     5A    -20.568605     6A    -20.561061
       7A    -20.560325     8A    -11.408512     9A    -11.403579
      10A    -11.400316    11A    -11.343621    12A    -11.269221
      13A    -11.259125    14A     -1.485461    15A     -1.471409
      16A     -1.469128    17A     -1.438250    18A     -1.375915
      19A     -1.367598    20A     -1.366690    21A     -1.105130
      22A     -1.033572    23A     -0.942870    24A     -0.852955
      25A     -0.826913    26A     -0.805340    27A     -0.771320
      28A     -0.725781    29A     -0.717720    30A     -0.715424
      31A     -0.706021    32A     -0.689845    33A     -0.673284
      34A     -0.655145    35A     -0.647365    36A     -0.636419
      37A     -0.628799    38A     -0.607462    39A     -0.598253
      40A     -0.583889    41A     -0.575145    42A     -0.557453
      43A     -0.540613    44A     -0.505138    45A     -0.494776
      46A     -0.489115    47A     -0.480356    48A     -0.467069
      49A     -0.459048    50A     -0.444666

  @DF-RHF Final Energy:  -756.25046639938296

   => Energetics <=

    Nuclear Repulsion Energy =            874.9312809869070406
    One-Electron Energy =               -2778.0361297883732732
    Two-Electron Energy =                1146.8543824020832744
    Total Energy =                       -756.2504663993829581
  Basis Set: (AUG-CC-PVTZ AUX)
    Blend: AUG-CC-PVTZ-RI
    Molecular point group: c1

    Geometry (in Angstrom), charge = 0, multiplicity = 1:

       Center              X                  Y                   Z               Mass
    ------------   -----------------  -----------------  -----------------  -----------------
         O           -0.307503551618     0.068965380240    -1.409740686229    15.994914619570
         O            1.179468448382     1.733014380240     1.395248313771    15.994914619570
         O            0.898783448382     2.374832380240    -0.767564686229    15.994914619570
         O            2.291519448382    -2.420855619760    -0.001965686229    15.994914619570
         O           -3.465899551618     0.076936380240    -0.538328686229    15.994914619570
         O            2.628483448382    -0.232934619760    -0.475345686229    15.994914619570
         O           -2.443651551618    -1.605142619760     0.579862313771    15.994914619570
         C           -0.128791651618     0.295327280240    -0.123957186229    12.000000000000
         C            0.551402448382    -0.919970619760     0.570192313771    12.000000000000
         C           -1.478430551618     0.621353380240     0.632065313771    12.000000000000
         C            0.737699448382     1.565651380240     0.130401313771    12.000000000000
         C            1.915367448382    -1.119996619760    -0.033621686229    12.000000000000
         C           -2.484389551618    -0.432844619760     0.243543313771    12.000000000000
         H           -0.076423551618    -1.793694619760     0.387682313771     1.007825032230
         H            0.665084448382    -0.814903619760     1.654978313771     1.007825032230
         H           -1.828605551618     1.597921380240     0.286617313771     1.007825032230
         H           -1.380289551618     0.640104380240     1.722018313771     1.007825032230
         H           -0.048505551618     0.895548380240    -1.867734686229     1.007825032230
         H            1.689455448382     2.570353380240     1.396719313771     1.007825032230
         H            3.192943448382    -2.446046619760    -0.386253686229     1.007825032230
         H           -4.048819551618    -0.680358619760    -0.757410686229     1.007825032230

  Basis Set: AUG-CC-PVTZ
    Blend: AUG-CC-PVTZ
  Basis Set: (AUG-CC-PVTZ AUX)
    Blend: AUG-CC-PVTZ-JKFIT
	 Reference Energy          =    -756.2504663993829581 [Eh]
	 Singles Energy            =      -0.0000000000000000 [Eh]
	 Same-Spin Energy          =      -0.7305339809830940 [Eh]
	 Opposite-Spin Energy      =      -2.1600601325474171 [Eh]
	 Correlation Energy        =      -2.8905941135305113 [Eh]
	 Total Energy              =    -759.1410605129134410 [Eh]

	 ================> DF-SCS-MP2 Energies <==================
	-----------------------------------------------------------
	 SCS Same-Spin Scale       =       0.3333333333333333 [-]
	 SCS Opposite-Spin Scale   =       1.2000000000000000 [-]
	 SCS Same-Spin Energy      =      -0.2435113269943646 [Eh]
	 SCS Opposite-Spin Energy  =      -2.5920721590569005 [Eh]
	 SCS Correlation Energy    =      -2.8355834860512652 [Eh]
	 SCS Total Energy          =    -759.0860498854342495 [Eh]
	-----------------------------------------------------------

  Dipole Moment: [D]
     X:    -0.1517      Y:     0.7299      Z:     1.5615     Total:     1.7303

*** Psi4 exiting successfully. Buy a developer a beer!
