                               Psi4 1.3.2 release

  ==> Input File <==

--------------------------------------------------------------------------
#psi4
#
memory 32 gb

molecule  {
0 1
  O       -0.2992330     0.0680890    -1.4276520
  O        1.1877390     1.7321380     1.3773370
  O        0.9070540     2.3739560    -0.7854760
  O        2.2997900    -2.4217320    -0.0198770
  O       -3.4576290     0.0760600    -0.5562400
  O        2.6367540    -0.2338110    -0.4932570
  O       -2.4353810    -1.6060190     0.5619510
  C       -0.1069590     0.3116290    -0.0442930
  C        0.5596730    -0.9208470     0.5522810
  C       -1.4701600     0.6204770     0.6141540
  C        0.6900019     1.4825452     0.1022021
  C        1.9236380    -1.1208730    -0.0515330
  C       -2.4761190    -0.4337210     0.2256320
  H       -0.0681530    -1.7945710     0.3697710
  H        0.6733550    -0.8157800     1.6370670
  H       -1.8203350     1.5970450     0.2687060
  H       -1.3720190     0.6392280     1.7041070
  H       -0.0402350     0.8946720    -1.8856460
  H        1.6977260     2.5694770     1.3788080
  H        3.2012140    -2.4469230    -0.4041650
  H       -4.0405490    -0.6812350    -0.7753220
units angstrom
no_reorient  #important for SAPT in psi4, default
symmetry c1  #important for SAPT in psi4, default
}

set PROPERTIES_ORIGIN ["COM"]
properties('MP2/aug-cc-pvtz', properties = ['dipole'])
--------------------------------------------------------------------------

    Molecular point group: c1
  Charge       = 0
  Multiplicity = 1
  Basis Set: AUG-CC-PVTZ
    Blend: AUG-CC-PVTZ
  Basis Set: (AUG-CC-PVTZ AUX)
    Blend: AUG-CC-PVTZ-JKFIT

    Orbital Energies [Eh]
    ---------------------

    Doubly Occupied:

       1A    -20.630410     2A    -20.628688     3A    -20.627184
       4A    -20.583639     5A    -20.567277     6A    -20.566803
       7A    -20.563289     8A    -11.419626     9A    -11.410847
      10A    -11.405175    11A    -11.343517    12A    -11.280590
      13A    -11.268397    14A     -1.476529    15A     -1.473689
      16A     -1.459254    17A     -1.400787    18A     -1.372771
      19A     -1.369431    20A     -1.339510    21A     -1.133300
      22A     -1.045132    23A     -0.976689    24A     -0.854480
      25A     -0.834792    26A     -0.799998    27A     -0.760585
      28A     -0.725578    29A     -0.719121    30A     -0.717628
      31A     -0.701815    32A     -0.695013    33A     -0.673934
      34A     -0.652989    35A     -0.640783    36A     -0.630382
      37A     -0.613576    38A     -0.607010    39A     -0.593983
      40A     -0.582548    41A     -0.566152    42A     -0.565118
      43A     -0.550696    44A     -0.499847    45A     -0.494563
      46A     -0.488237    47A     -0.483052    48A     -0.476800
      49A     -0.468742    50A     -0.456603

  @DF-RHF Final Energy:  -756.23549768752525

   => Energetics <=

    Nuclear Repulsion Energy =            875.6085388596645771
    One-Electron Energy =               -2779.2949536990104207
    Two-Electron Energy =                1147.4509171518204766
    Total Energy =                       -756.2354976875253669
  Basis Set: (AUG-CC-PVTZ AUX)
    Blend: AUG-CC-PVTZ-RI
    Molecular point group: c1

    Geometry (in Angstrom), charge = 0, multiplicity = 1:

       Center              X                  Y                   Z               Mass
    ------------   -----------------  -----------------  -----------------  -----------------
         O           -0.304853549311     0.073030539772    -1.415195394087    15.994914619570
         O            1.182118450689     1.737079539772     1.389793605913    15.994914619570
         O            0.901433450689     2.378897539772    -0.773019394087    15.994914619570
         O            2.294169450689    -2.416790460228    -0.007420394087    15.994914619570
         O           -3.463249549311     0.081001539772    -0.543783394087    15.994914619570
         O            2.631133450689    -0.228869460228    -0.480800394087    15.994914619570
         O           -2.441001549311    -1.601077460228     0.574407605913    15.994914619570
         C           -0.112579549311     0.316570539772    -0.031836394087    12.000000000000
         C            0.554052450689    -0.915905460228     0.564737605913    12.000000000000
         C           -1.475780549311     0.625418539772     0.626610605913    12.000000000000
         C            0.684381350689     1.487486739772     0.114658705913    12.000000000000
         C            1.918017450689    -1.115931460228    -0.039076394087    12.000000000000
         C           -2.481739549311    -0.428779460228     0.238088605913    12.000000000000
         H           -0.073773549311    -1.789629460228     0.382227605913     1.007825032230
         H            0.667734450689    -0.810838460228     1.649523605913     1.007825032230
         H           -1.825955549311     1.601986539772     0.281162605913     1.007825032230
         H           -1.377639549311     0.644169539772     1.716563605913     1.007825032230
         H           -0.045855549311     0.899613539772    -1.873189394087     1.007825032230
         H            1.692105450689     2.574418539772     1.391264605913     1.007825032230
         H            3.195593450689    -2.441981460228    -0.391708394087     1.007825032230
         H           -4.046169549311    -0.676293460228    -0.762865394087     1.007825032230

  Basis Set: AUG-CC-PVTZ
    Blend: AUG-CC-PVTZ
  Basis Set: (AUG-CC-PVTZ AUX)
    Blend: AUG-CC-PVTZ-JKFIT
	 Reference Energy          =    -756.2354976875252532 [Eh]
	 Singles Energy            =      -0.0000000000000000 [Eh]
	 Same-Spin Energy          =      -0.7331336642248901 [Eh]
	 Opposite-Spin Energy      =      -2.1668558108518523 [Eh]
	 Correlation Energy        =      -2.8999894750767425 [Eh]
	 Total Energy              =    -759.1354871626019758 [Eh]

	 ================> DF-SCS-MP2 Energies <==================
	-----------------------------------------------------------
	 SCS Same-Spin Scale       =       0.3333333333333333 [-]
	 SCS Opposite-Spin Scale   =       1.2000000000000000 [-]
	 SCS Same-Spin Energy      =      -0.2443778880749634 [Eh]
	 SCS Opposite-Spin Energy  =      -2.6002269730222225 [Eh]
	 SCS Correlation Energy    =      -2.8446048610971859 [Eh]
	 SCS Total Energy          =    -759.0801025486224489 [Eh]
	-----------------------------------------------------------

  Dipole Moment: [D]
     X:    -0.4801      Y:     0.2896      Z:     1.7607     Total:     1.8479

*** Psi4 exiting successfully. Buy a developer a beer!
