                               Psi4 1.3.2 release

  ==> Input File <==

--------------------------------------------------------------------------
#psi4
#
memory 32 gb

molecule  {
0 1
  O       -0.3126839     0.0480930    -1.4220409
  O        1.1877390     1.7321380     1.3773370
  O        0.9070540     2.3739560    -0.7854760
  O        2.2997900    -2.4217320    -0.0198770
  O       -3.4576290     0.0760600    -0.5562400
  O        2.6367540    -0.2338110    -0.4932570
  O       -2.4353810    -1.6060190     0.5619510
  C       -0.1069590     0.3116290    -0.0442930
  C        0.5596730    -0.9208470     0.5522810
  C       -1.4701600     0.6204770     0.6141540
  C        0.7459700     1.5647750     0.1124900
  C        1.9236380    -1.1208730    -0.0515330
  C       -2.4761190    -0.4337210     0.2256320
  H       -0.0681530    -1.7945710     0.3697710
  H        0.6733550    -0.8157800     1.6370670
  H       -1.8203350     1.5970450     0.2687060
  H       -1.3720190     0.6392280     1.7041070
  H       -0.0402350     0.8946720    -1.8856460
  H        1.6977260     2.5694770     1.3788080
  H        3.2012140    -2.4469230    -0.4041650
  H       -4.0405490    -0.6812350    -0.7753220
units angstrom
no_reorient  #important for SAPT in psi4, default
symmetry c1  #important for SAPT in psi4, default
}

set PROPERTIES_ORIGIN ["COM"]
properties('MP2/aug-cc-pvtz', properties = ['dipole'])
--------------------------------------------------------------------------

    Molecular point group: c1
  Charge       = 0
  Multiplicity = 1
  Basis Set: AUG-CC-PVTZ
    Blend: AUG-CC-PVTZ
  Basis Set: (AUG-CC-PVTZ AUX)
    Blend: AUG-CC-PVTZ-JKFIT

    Orbital Energies [Eh]
    ---------------------

    Doubly Occupied:

       1A    -20.638838     2A    -20.626614     3A    -20.624988
       4A    -20.580776     5A    -20.572249     6A    -20.562294
       7A    -20.561087     8A    -11.412358     9A    -11.406033
      10A    -11.402371    11A    -11.340335    12A    -11.273007
      13A    -11.261597    14A     -1.486147    15A     -1.472151
      16A     -1.470214    17A     -1.396985    18A     -1.372319
      19A     -1.368456    20A     -1.366193    21A     -1.115680
      22A     -1.038793    23A     -0.952851    24A     -0.852902
      25A     -0.830078    26A     -0.793690    27A     -0.758842
      28A     -0.728461    29A     -0.718227    30A     -0.716124
      31A     -0.704567    32A     -0.690627    33A     -0.669276
      34A     -0.653907    35A     -0.642878    36A     -0.638151
      37A     -0.622782    38A     -0.604413    39A     -0.595113
      40A     -0.580360    41A     -0.561111    42A     -0.559274
      43A     -0.545958    44A     -0.506549    45A     -0.494741
      46A     -0.490522    47A     -0.486100    48A     -0.471613
      49A     -0.465559    50A     -0.452720

  @DF-RHF Final Energy:  -756.25586484655196

   => Energetics <=

    Nuclear Repulsion Energy =            874.5872391037707985
    One-Electron Energy =               -2777.4124489294144951
    Two-Electron Energy =                1146.5693449790917384
    Total Energy =                       -756.2558648465519582
  Basis Set: (AUG-CC-PVTZ AUX)
    Blend: AUG-CC-PVTZ-RI
    Molecular point group: c1

    Geometry (in Angstrom), charge = 0, multiplicity = 1:

       Center              X                  Y                   Z               Mass
    ------------   -----------------  -----------------  -----------------  -----------------
         O           -0.320681569178     0.049561469431    -1.410694574738    15.994914619570
         O            1.179741330822     1.733606469431     1.388683325262    15.994914619570
         O            0.899056330822     2.375424469431    -0.774129674738    15.994914619570
         O            2.291792330822    -2.420263530569    -0.008530674738    15.994914619570
         O           -3.465626669178     0.077528469431    -0.544893674738    15.994914619570
         O            2.628756330822    -0.232342530569    -0.481910674738    15.994914619570
         O           -2.443378669178    -1.604550530569     0.573297325262    15.994914619570
         C           -0.114956669178     0.313097469431    -0.032946674738    12.000000000000
         C            0.551675330822    -0.919378530569     0.563627325262    12.000000000000
         C           -1.478157669178     0.621945469431     0.625500325262    12.000000000000
         C            0.737972330822     1.566243469431     0.123836325262    12.000000000000
         C            1.915640330822    -1.119404530569    -0.040186674738    12.000000000000
         C           -2.484116669178    -0.432252530569     0.236978325262    12.000000000000
         H           -0.076150669178    -1.793102530569     0.381117325262     1.007825032230
         H            0.665357330822    -0.814311530569     1.648413325262     1.007825032230
         H           -1.828332669178     1.598513469431     0.280052325262     1.007825032230
         H           -1.380016669178     0.640696469431     1.715453325262     1.007825032230
         H           -0.048232669178     0.896140469431    -1.874299674738     1.007825032230
         H            1.689728330822     2.570945469431     1.390154325262     1.007825032230
         H            3.193216330822    -2.445454530569    -0.392818674738     1.007825032230
         H           -4.048546669178    -0.679766530569    -0.763975674738     1.007825032230

  Basis Set: AUG-CC-PVTZ
    Blend: AUG-CC-PVTZ
  Basis Set: (AUG-CC-PVTZ AUX)
    Blend: AUG-CC-PVTZ-JKFIT
	 Reference Energy          =    -756.2558648465519582 [Eh]
	 Singles Energy            =      -0.0000000000000000 [Eh]
	 Same-Spin Energy          =      -0.7309460486030595 [Eh]
	 Opposite-Spin Energy      =      -2.1624962883209902 [Eh]
	 Correlation Energy        =      -2.8934423369240498 [Eh]
	 Total Energy              =    -759.1493071834760258 [Eh]

	 ================> DF-SCS-MP2 Energies <==================
	-----------------------------------------------------------
	 SCS Same-Spin Scale       =       0.3333333333333333 [-]
	 SCS Opposite-Spin Scale   =       1.2000000000000000 [-]
	 SCS Same-Spin Energy      =      -0.2436486828676865 [Eh]
	 SCS Opposite-Spin Energy  =      -2.5949955459851881 [Eh]
	 SCS Correlation Energy    =      -2.8386442288528748 [Eh]
	 SCS Total Energy          =    -759.0945090754048579 [Eh]
	-----------------------------------------------------------

  Dipole Moment: [D]
     X:    -0.1368      Y:     0.7752      Z:     1.8455     Total:     2.0064

*** Psi4 exiting successfully. Buy a developer a beer!
