                               Psi4 1.3.2 release

  ==> Input File <==

--------------------------------------------------------------------------
#psi4
#
memory 32 gb

molecule  {
0 1
  O       -0.2992330     0.0680890    -1.4276520
  O        1.1877390     1.7321380     1.3773370
  O        0.9070540     2.3739560    -0.7854760
  O        2.2997900    -2.4217320    -0.0198770
  O       -3.4576290     0.0760600    -0.5562400
  O        2.6367540    -0.2338110    -0.4932570
  O       -2.4353810    -1.6060190     0.5619510
  C        0.0247387     0.3299995    -0.1322073
  C        0.5596730    -0.9208470     0.5522810
  C       -1.4701600     0.6204770     0.6141540
  C        0.7459700     1.5647750     0.1124900
  C        1.9236380    -1.1208730    -0.0515330
  C       -2.4761190    -0.4337210     0.2256320
  H       -0.0681530    -1.7945710     0.3697710
  H        0.6733550    -0.8157800     1.6370670
  H       -1.8203350     1.5970450     0.2687060
  H       -1.3720190     0.6392280     1.7041070
  H       -0.0402350     0.8946720    -1.8856460
  H        1.6977260     2.5694770     1.3788080
  H        3.2012140    -2.4469230    -0.4041650
  H       -4.0405490    -0.6812350    -0.7753220
units angstrom
no_reorient  #important for SAPT in psi4, default
symmetry c1  #important for SAPT in psi4, default
}

set PROPERTIES_ORIGIN ["COM"]
properties('MP2/aug-cc-pvtz', properties = ['dipole'])
--------------------------------------------------------------------------

    Molecular point group: c1
  Charge       = 0
  Multiplicity = 1
  Basis Set: AUG-CC-PVTZ
    Blend: AUG-CC-PVTZ
  Basis Set: (AUG-CC-PVTZ AUX)
    Blend: AUG-CC-PVTZ-JKFIT

    Orbital Energies [Eh]
    ---------------------

    Doubly Occupied:

       1A    -20.639660     2A    -20.624718     3A    -20.624497
       4A    -20.589851     5A    -20.570302     6A    -20.562577
       7A    -20.559394     8A    -11.410695     9A    -11.402899
      10A    -11.401330    11A    -11.343301    12A    -11.271457
      13A    -11.263673    14A     -1.489383    15A     -1.470952
      16A     -1.469573    17A     -1.423701    18A     -1.377489
      19A     -1.368916    20A     -1.365870    21A     -1.108654
      22A     -1.029289    23A     -0.967430    24A     -0.851870
      25A     -0.823589    26A     -0.802411    27A     -0.772362
      28A     -0.728679    29A     -0.718438    30A     -0.715780
      31A     -0.707583    32A     -0.688888    33A     -0.665533
      34A     -0.655021    35A     -0.645821    36A     -0.637149
      37A     -0.624328    38A     -0.603604    39A     -0.596200
      40A     -0.582644    41A     -0.574468    42A     -0.556574
      43A     -0.553575    44A     -0.507603    45A     -0.494079
      46A     -0.491022    47A     -0.486361    48A     -0.468996
      49A     -0.461060    50A     -0.434880

  @DF-RHF Final Energy:  -756.23887607677761

   => Energetics <=

    Nuclear Repulsion Energy =            875.2479933470808646
    One-Electron Energy =               -2778.6054760018237175
    Two-Electron Energy =                1147.1186065779652381
    Total Energy =                       -756.2388760767776148
  Basis Set: (AUG-CC-PVTZ AUX)
    Blend: AUG-CC-PVTZ-RI
    Molecular point group: c1

    Geometry (in Angstrom), charge = 0, multiplicity = 1:

       Center              X                  Y                   Z               Mass
    ------------   -----------------  -----------------  -----------------  -----------------
         O           -0.316581012478     0.066743905165    -1.410344426320    15.994914619570
         O            1.170390987522     1.730792905165     1.394644573680    15.994914619570
         O            0.889705987522     2.372610905165    -0.768168426320    15.994914619570
         O            2.282441987522    -2.423077094835    -0.002569426320    15.994914619570
         O           -3.474977012478     0.074714905165    -0.538932426320    15.994914619570
         O            2.619405987522    -0.235156094835    -0.475949426320    15.994914619570
         O           -2.452729012478    -1.607364094835     0.579258573680    15.994914619570
         C            0.007390687522     0.328654405165    -0.114899726320    12.000000000000
         C            0.542324987522    -0.922192094835     0.569588573680    12.000000000000
         C           -1.487508012478     0.619131905165     0.631461573680    12.000000000000
         C            0.728621987522     1.563429905165     0.129797573680    12.000000000000
         C            1.906289987522    -1.122218094835    -0.034225426320    12.000000000000
         C           -2.493467012478    -0.435066094835     0.242939573680    12.000000000000
         H           -0.085501012478    -1.795916094835     0.387078573680     1.007825032230
         H            0.656006987522    -0.817125094835     1.654374573680     1.007825032230
         H           -1.837683012478     1.595699905165     0.286013573680     1.007825032230
         H           -1.389367012478     0.637882905165     1.721414573680     1.007825032230
         H           -0.057583012478     0.893326905165    -1.868338426320     1.007825032230
         H            1.680377987522     2.568131905165     1.396115573680     1.007825032230
         H            3.183865987522    -2.448268094835    -0.386857426320     1.007825032230
         H           -4.057897012478    -0.682580094835    -0.758014426320     1.007825032230

  Basis Set: AUG-CC-PVTZ
    Blend: AUG-CC-PVTZ
  Basis Set: (AUG-CC-PVTZ AUX)
    Blend: AUG-CC-PVTZ-JKFIT
	 Reference Energy          =    -756.2388760767776148 [Eh]
	 Singles Energy            =      -0.0000000000000000 [Eh]
	 Same-Spin Energy          =      -0.7315446274667243 [Eh]
	 Opposite-Spin Energy      =      -2.1624609772498617 [Eh]
	 Correlation Energy        =      -2.8940056047165861 [Eh]
	 Total Energy              =    -759.1328816814941547 [Eh]

	 ================> DF-SCS-MP2 Energies <==================
	-----------------------------------------------------------
	 SCS Same-Spin Scale       =       0.3333333333333333 [-]
	 SCS Opposite-Spin Scale   =       1.2000000000000000 [-]
	 SCS Same-Spin Energy      =      -0.2438482091555748 [Eh]
	 SCS Opposite-Spin Energy  =      -2.5949531726998338 [Eh]
	 SCS Correlation Energy    =      -2.8388013818554088 [Eh]
	 SCS Total Energy          =    -759.0776774586330475 [Eh]
	-----------------------------------------------------------

  Dipole Moment: [D]
     X:     0.0538      Y:     0.6036      Z:     1.5968     Total:     1.7080

*** Psi4 exiting successfully. Buy a developer a beer!
