                               Psi4 1.4a3.dev225

  ==> Input File <==

--------------------------------------------------------------------------
#psi4
#
memory 32 gb

molecule  {
0 1
  O       -0.2992690     0.0680640    -1.4275900
  O        1.1877140     1.7322170     1.3773330
  O        0.9070830     2.3739170    -0.7855270
  O        2.2997080    -2.4217750    -0.0198700
  O       -3.4574230     0.0760400    -0.5564670
  O        2.6367000    -0.2338780    -0.4933410
  O       -2.4354340    -1.6059620     0.5620860
  C       -0.1069630     0.3116450    -0.0442490
  C        0.5596710    -0.9208170     0.5523550
  C       -1.4701590     0.6204980     0.6142450
  C        0.7459620     1.5647900     0.1124790
  C        1.9235890    -1.1209070    -0.0515450
  C       -2.4760910    -0.4336940     0.2256510
  H       -0.0681940    -1.7945300     0.3699280
  H        0.6734230    -0.8156830     1.6371260
  H       -1.8203340     1.5970830     0.2688470
  H       -1.3719830     0.6391850     1.7041930
  H       -0.0401320     0.8945830    -1.8856220
  H        1.6977060     2.5695530     1.3787680
  H        3.1551316    -2.4457190    -0.3846057
  H       -4.0402960    -0.6812640    -0.7756360
units angstrom
no_reorient  #important for SAPT in psi4, default
symmetry c1  #important for SAPT in psi4, default
}

set PROPERTIES_ORIGIN ["COM"]
properties('MP2/aug-cc-pvtz', properties = ['dipole'])
--------------------------------------------------------------------------

    Molecular point group: c1
  Charge       = 0
  Multiplicity = 1
  Basis Set: AUG-CC-PVTZ
    Blend: AUG-CC-PVTZ
  Basis Set: (AUG-CC-PVTZ AUX)
    Blend: AUG-CC-PVTZ-JKFIT

    Orbital Energies [Eh]
    ---------------------

    Doubly Occupied:

       1A    -20.638452     2A    -20.627107     3A    -20.621701
       4A    -20.578591     5A    -20.571605     6A    -20.562882
       7A    -20.562076     8A    -11.411734     9A    -11.406548
      10A    -11.403430    11A    -11.341059    12A    -11.273606
      13A    -11.262382    14A     -1.486284    15A     -1.477881
      16A     -1.472655    17A     -1.399503    18A     -1.374053
      19A     -1.370471    20A     -1.368385    21A     -1.117559
      22A     -1.040281    23A     -0.954310    24A     -0.857916
      25A     -0.833606    26A     -0.797380    27A     -0.760673
      28A     -0.728501    29A     -0.720816    30A     -0.718640
      31A     -0.705986    32A     -0.691643    33A     -0.669931
      34A     -0.654808    35A     -0.645101    36A     -0.638645
      37A     -0.624080    38A     -0.605621    39A     -0.595797
      40A     -0.581961    41A     -0.563149    42A     -0.560176
      43A     -0.546325    44A     -0.506211    45A     -0.495478
      46A     -0.491778    47A     -0.486218    48A     -0.472457
      49A     -0.466197    50A     -0.452987

  @DF-RHF Final Energy:  -756.25884600557333

   => Energetics <=

    Nuclear Repulsion Energy =            874.9899432338136194
    One-Electron Energy =               -2778.1083079757740961
    Two-Electron Energy =                1146.8595187363871446
    Total Energy =                       -756.2588460055733321
  Basis Set: (AUG-CC-PVTZ AUX)
    Blend: AUG-CC-PVTZ-RI
    Molecular point group: c1

    Geometry (in Angstrom), charge = 0, multiplicity = 1:

       Center              X                  Y                   Z               Mass
    ------------   -----------------  -----------------  -----------------  -----------------
         O           -0.308143932296     0.067860247625    -1.415878861434    15.994914619570
         O            1.178839067704     1.732013247625     1.389044138566    15.994914619570
         O            0.898208067704     2.373713247625    -0.773815861434    15.994914619570
         O            2.290833067704    -2.421978752375    -0.008158861434    15.994914619570
         O           -3.466297932296     0.075836247625    -0.544755861434    15.994914619570
         O            2.627825067704    -0.234081752375    -0.481629861434    15.994914619570
         O           -2.444308932296    -1.606165752375     0.573797138566    15.994914619570
         C           -0.115837932296     0.311441247625    -0.032537861434    12.000000000000
         C            0.550796067704    -0.921020752375     0.564066138566    12.000000000000
         C           -1.479033932296     0.620294247625     0.625956138566    12.000000000000
         C            0.737087067704     1.564586247625     0.124190138566    12.000000000000
         C            1.914714067704    -1.121110752375    -0.039833861434    12.000000000000
         C           -2.484965932296    -0.433897752375     0.237362138566    12.000000000000
         H           -0.077068932296    -1.794733752375     0.381639138566     1.007825032230
         H            0.664548067704    -0.815886752375     1.648837138566     1.007825032230
         H           -1.829208932296     1.596879247625     0.280558138566     1.007825032230
         H           -1.380857932296     0.638981247625     1.715904138566     1.007825032230
         H           -0.049006932296     0.894379247625    -1.873910861434     1.007825032230
         H            1.688831067704     2.569349247625     1.390479138566     1.007825032230
         H            3.146256667704    -2.445922752375    -0.372894561434     1.007825032230
         H           -4.049170932296    -0.681467752375    -0.763924861434     1.007825032230

  Basis Set: AUG-CC-PVTZ
    Blend: AUG-CC-PVTZ
  Basis Set: (AUG-CC-PVTZ AUX)
    Blend: AUG-CC-PVTZ-JKFIT
	 Reference Energy          =    -756.2588460055733321 [Eh]
	 Singles Energy            =      -0.0000000000000000 [Eh]
	 Same-Spin Energy          =      -0.7299102031510469 [Eh]
	 Opposite-Spin Energy      =      -2.1601528063616429 [Eh]
	 Correlation Energy        =      -2.8900630095126898 [Eh]
	 Total Energy              =    -759.1489090150860193 [Eh]

	 ================> DF-SCS-MP2 Energies <==================
	-----------------------------------------------------------
	 SCS Same-Spin Scale       =       0.3333333333333333 [-]
	 SCS Opposite-Spin Scale   =       1.2000000000000000 [-]
	 SCS Same-Spin Energy      =      -0.2433034010503490 [Eh]
	 SCS Opposite-Spin Energy  =      -2.5921833676339712 [Eh]
	 SCS Correlation Energy    =      -2.8354867686843201 [Eh]
	 SCS Total Energy          =    -759.0943327742576230 [Eh]
	-----------------------------------------------------------

  Dipole Moment: [D]
     X:    -0.2251      Y:     0.7614      Z:     1.8818     Total:     2.0425

*** Psi4 exiting successfully. Buy a developer a beer!
