                               Psi4 1.3.2 release

  ==> Input File <==

--------------------------------------------------------------------------
#psi4
#
memory 32 gb

molecule  {
0 1
  O       -0.2992330     0.0680890    -1.4276520
  O        1.1877390     1.7321380     1.3773370
  O        0.9070540     2.3739560    -0.7854760
  O        2.2997900    -2.4217320    -0.0198770
  O       -3.4576290     0.0760600    -0.5562400
  O        2.6367540    -0.2338110    -0.4932570
  O       -2.4353810    -1.6060190     0.5619510
  C       -0.1069590     0.3116290    -0.0442930
  C        0.5596730    -0.9208470     0.5522810
  C       -1.4701600     0.6204770     0.6141540
  C        0.7459700     1.5647750     0.1124900
  C        1.9236380    -1.1208730    -0.0515330
  C       -2.4761190    -0.4337210     0.2256320
  H       -0.0681530    -1.7945710     0.3697710
  H        0.6733550    -0.8157800     1.6370670
  H       -1.8203350     1.5970450     0.2687060
  H       -1.3720190     0.6392280     1.7041070
  H       -0.0402350     0.8946720    -1.8856460
  H        1.6977260     2.5694770     1.3788080
  H        3.3851324    -2.4520627    -0.4825717
  H       -4.0405490    -0.6812350    -0.7753220
units angstrom
no_reorient  #important for SAPT in psi4, default
symmetry c1  #important for SAPT in psi4, default
}

set PROPERTIES_ORIGIN ["COM"]
properties('MP2/aug-cc-pvtz', properties = ['dipole'])
--------------------------------------------------------------------------

    Molecular point group: c1
  Charge       = 0
  Multiplicity = 1
  Basis Set: AUG-CC-PVTZ
    Blend: AUG-CC-PVTZ
  Basis Set: (AUG-CC-PVTZ AUX)
    Blend: AUG-CC-PVTZ-JKFIT

    Orbital Energies [Eh]
    ---------------------

    Doubly Occupied:

       1A    -20.637360     2A    -20.633298     3A    -20.626366
       4A    -20.577410     5A    -20.570482     6A    -20.562027
       7A    -20.557339     8A    -11.410656     9A    -11.405702
      10A    -11.398645    11A    -11.339973    12A    -11.272695
      13A    -11.261349    14A     -1.484592    15A     -1.471870
      16A     -1.450368    17A     -1.397884    18A     -1.370941
      19A     -1.367810    20A     -1.350346    21A     -1.115605
      22A     -1.035523    23A     -0.948840    24A     -0.845970
      25A     -0.818278    26A     -0.786646    27A     -0.757694
      28A     -0.726597    29A     -0.717729    30A     -0.705098
      31A     -0.693514    32A     -0.689258    33A     -0.666674
      34A     -0.650376    35A     -0.642484    36A     -0.635520
      37A     -0.617246    38A     -0.600317    39A     -0.593488
      40A     -0.573641    41A     -0.559795    42A     -0.552830
      43A     -0.543856    44A     -0.504813    45A     -0.494138
      46A     -0.486179    47A     -0.484482    48A     -0.470515
      49A     -0.463230    50A     -0.451275

  @DF-RHF Final Energy:  -756.22317981621813

   => Energetics <=

    Nuclear Repulsion Energy =            873.5044435687402711
    One-Electron Energy =               -2775.4978036893717217
    Two-Electron Energy =                1145.7701803044133158
    Total Energy =                       -756.2231798162181349
  Basis Set: (AUG-CC-PVTZ AUX)
    Blend: AUG-CC-PVTZ-RI
    Molecular point group: c1

    Geometry (in Angstrom), charge = 0, multiplicity = 1:

       Center              X                  Y                   Z               Mass
    ------------   -----------------  -----------------  -----------------  -----------------
         O           -0.309316331919     0.067918874910    -1.415426791570    15.994914619570
         O            1.177655668081     1.731967874910     1.389562208430    15.994914619570
         O            0.896970668081     2.373785874910    -0.773250791570    15.994914619570
         O            2.289706668081    -2.421902125090    -0.007651791570    15.994914619570
         O           -3.467712331919     0.075889874910    -0.544014791570    15.994914619570
         O            2.626670668081    -0.233981125090    -0.481031791570    15.994914619570
         O           -2.445464331919    -1.606189125090     0.574176208430    15.994914619570
         C           -0.117042331919     0.311458874910    -0.032067791570    12.000000000000
         C            0.549589668081    -0.921017125090     0.564506208430    12.000000000000
         C           -1.480243331919     0.620306874910     0.626379208430    12.000000000000
         C            0.735886668081     1.564604874910     0.124715208430    12.000000000000
         C            1.913554668081    -1.121043125090    -0.039307791570    12.000000000000
         C           -2.486202331919    -0.433891125090     0.237857208430    12.000000000000
         H           -0.078236331919    -1.794741125090     0.381996208430     1.007825032230
         H            0.663271668081    -0.815950125090     1.649292208430     1.007825032230
         H           -1.830418331919     1.596874874910     0.280931208430     1.007825032230
         H           -1.382102331919     0.639057874910     1.716332208430     1.007825032230
         H           -0.050318331919     0.894501874910    -1.873420791570     1.007825032230
         H            1.687642668081     2.569306874910     1.391033208430     1.007825032230
         H            3.375049068081    -2.452232825090    -0.470346491570     1.007825032230
         H           -4.050632331919    -0.681405125090    -0.763096791570     1.007825032230

  Basis Set: AUG-CC-PVTZ
    Blend: AUG-CC-PVTZ
  Basis Set: (AUG-CC-PVTZ AUX)
    Blend: AUG-CC-PVTZ-JKFIT
	 Reference Energy          =    -756.2231798162181349 [Eh]
	 Singles Energy            =      -0.0000000000000000 [Eh]
	 Same-Spin Energy          =      -0.7330888798662283 [Eh]
	 Opposite-Spin Energy      =      -2.1681074407888090 [Eh]
	 Correlation Energy        =      -2.9011963206550373 [Eh]
	 Total Energy              =    -759.1243761368731384 [Eh]

	 ================> DF-SCS-MP2 Energies <==================
	-----------------------------------------------------------
	 SCS Same-Spin Scale       =       0.3333333333333333 [-]
	 SCS Opposite-Spin Scale   =       1.2000000000000000 [-]
	 SCS Same-Spin Energy      =      -0.2443629599554094 [Eh]
	 SCS Opposite-Spin Energy  =      -2.6017289289465708 [Eh]
	 SCS Correlation Energy    =      -2.8460918889019804 [Eh]
	 SCS Total Energy          =    -759.0692717051200589 [Eh]
	-----------------------------------------------------------

  Dipole Moment: [D]
     X:     0.0465      Y:     0.6783      Z:     1.7753     Total:     1.9011

*** Psi4 exiting successfully. Buy a developer a beer!
