                               Psi4 1.3.2 release

  ==> Input File <==

--------------------------------------------------------------------------
#psi4
#
memory 32 gb

molecule  {
0 1
  O       -0.2992330     0.0680890    -1.4276520
  O        1.1423541     1.6527660     1.4001800
  O        0.9070540     2.3739560    -0.7854760
  O        2.2997900    -2.4217320    -0.0198770
  O       -3.4576290     0.0760600    -0.5562400
  O        2.6367540    -0.2338110    -0.4932570
  O       -2.4353810    -1.6060190     0.5619510
  C       -0.1069590     0.3116290    -0.0442930
  C        0.5596730    -0.9208470     0.5522810
  C       -1.4701600     0.6204770     0.6141540
  C        0.7459700     1.5647750     0.1124900
  C        1.9236380    -1.1208730    -0.0515330
  C       -2.4761190    -0.4337210     0.2256320
  H       -0.0681530    -1.7945710     0.3697710
  H        0.6733550    -0.8157800     1.6370670
  H       -1.8203350     1.5970450     0.2687060
  H       -1.3720190     0.6392280     1.7041070
  H       -0.0402350     0.8946720    -1.8856460
  H        1.6977260     2.5694770     1.3788080
  H        3.2012140    -2.4469230    -0.4041650
  H       -4.0405490    -0.6812350    -0.7753220
units angstrom
no_reorient  #important for SAPT in psi4, default
symmetry c1  #important for SAPT in psi4, default
}

set PROPERTIES_ORIGIN ["COM"]
properties('MP2/aug-cc-pvtz', properties = ['dipole'])
--------------------------------------------------------------------------

    Molecular point group: c1
  Charge       = 0
  Multiplicity = 1
  Basis Set: AUG-CC-PVTZ
    Blend: AUG-CC-PVTZ
  Basis Set: (AUG-CC-PVTZ AUX)
    Blend: AUG-CC-PVTZ-JKFIT

    Orbital Energies [Eh]
    ---------------------

    Doubly Occupied:

       1A    -20.649226     2A    -20.625904     3A    -20.624370
       4A    -20.575683     5A    -20.575658     6A    -20.561491
       7A    -20.560361     8A    -11.412090     9A    -11.405074
      10A    -11.401589    11A    -11.336439    12A    -11.271646
      13A    -11.260198    14A     -1.479850    15A     -1.471296
      16A     -1.469094    17A     -1.395944    18A     -1.373345
      19A     -1.367750    20A     -1.365789    21A     -1.114039
      22A     -1.037543    23A     -0.947231    24A     -0.846093
      25A     -0.828835    26A     -0.787180    27A     -0.755189
      28A     -0.725443    29A     -0.716403    30A     -0.715456
      31A     -0.703548    32A     -0.690167    33A     -0.667671
      34A     -0.653481    35A     -0.643861    36A     -0.637205
      37A     -0.623197    38A     -0.603026    39A     -0.594497
      40A     -0.579436    41A     -0.560365    42A     -0.556793
      43A     -0.544001    44A     -0.508757    45A     -0.494050
      46A     -0.490026    47A     -0.485804    48A     -0.470206
      49A     -0.464636    50A     -0.450801

  @DF-RHF Final Energy:  -756.24275084112230

   => Energetics <=

    Nuclear Repulsion Energy =            875.4972178994072465
    One-Electron Energy =               -2779.3244637767074892
    Two-Electron Energy =                1147.5844950361781684
    Total Energy =                       -756.2427508411221879
  Basis Set: (AUG-CC-PVTZ AUX)
    Blend: AUG-CC-PVTZ-RI
    Molecular point group: c1

    Geometry (in Angstrom), charge = 0, multiplicity = 1:

       Center              X                  Y                   Z               Mass
    ------------   -----------------  -----------------  -----------------  -----------------
         O           -0.304570722418     0.074503201217    -1.417741008131    15.994914619570
         O            1.137016377582     1.659180201217     1.410090991869    15.994914619570
         O            0.901716277582     2.380370201217    -0.775565008131    15.994914619570
         O            2.294452277582    -2.415317798783    -0.009966008131    15.994914619570
         O           -3.462966722418     0.082474201217    -0.546329008131    15.994914619570
         O            2.631416277582    -0.227396798783    -0.483346008131    15.994914619570
         O           -2.440718722418    -1.599604798783     0.571861991869    15.994914619570
         C           -0.112296722418     0.318043201217    -0.034382008131    12.000000000000
         C            0.554335277582    -0.914432798783     0.562191991869    12.000000000000
         C           -1.475497722418     0.626891201217     0.624064991869    12.000000000000
         C            0.740632277582     1.571189201217     0.122400991869    12.000000000000
         C            1.918300277582    -1.114458798783    -0.041622008131    12.000000000000
         C           -2.481456722418    -0.427306798783     0.235542991869    12.000000000000
         H           -0.073490722418    -1.788156798783     0.379681991869     1.007825032230
         H            0.668017277582    -0.809365798783     1.646977991869     1.007825032230
         H           -1.825672722418     1.603459201217     0.278616991869     1.007825032230
         H           -1.377356722418     0.645642201217     1.714017991869     1.007825032230
         H           -0.045572722418     0.901086201217    -1.875735008131     1.007825032230
         H            1.692388277582     2.575891201217     1.388718991869     1.007825032230
         H            3.195876277582    -2.440508798783    -0.394254008131     1.007825032230
         H           -4.045886722418    -0.674820798783    -0.765411008131     1.007825032230

  Basis Set: AUG-CC-PVTZ
    Blend: AUG-CC-PVTZ
  Basis Set: (AUG-CC-PVTZ AUX)
    Blend: AUG-CC-PVTZ-JKFIT
	 Reference Energy          =    -756.2427508411223016 [Eh]
	 Singles Energy            =      -0.0000000000000000 [Eh]
	 Same-Spin Energy          =      -0.7325260462899217 [Eh]
	 Opposite-Spin Energy      =      -2.1658687967774748 [Eh]
	 Correlation Energy        =      -2.8983948430673965 [Eh]
	 Total Energy              =    -759.1411456841897234 [Eh]

	 ================> DF-SCS-MP2 Energies <==================
	-----------------------------------------------------------
	 SCS Same-Spin Scale       =       0.3333333333333333 [-]
	 SCS Opposite-Spin Scale   =       1.2000000000000000 [-]
	 SCS Same-Spin Energy      =      -0.2441753487633072 [Eh]
	 SCS Opposite-Spin Energy  =      -2.5990425561329698 [Eh]
	 SCS Correlation Energy    =      -2.8432179048962771 [Eh]
	 SCS Total Energy          =    -759.0859687460185796 [Eh]
	-----------------------------------------------------------

  Dipole Moment: [D]
     X:    -0.0581      Y:     0.8965      Z:     1.8947     Total:     2.0968

*** Psi4 exiting successfully. Buy a developer a beer!
