                               Psi4 1.3.2 release

  ==> Input File <==

--------------------------------------------------------------------------
#psi4
#
memory 32 gb

molecule  {
0 1
  O       -0.2992330     0.0680890    -1.4276520
  O        1.1877390     1.7321380     1.3773370
  O        0.9070540     2.3739560    -0.7854760
  O        2.2997900    -2.4217320    -0.0198770
  O       -3.4576290     0.0760600    -0.5562400
  O        2.6367540    -0.2338110    -0.4932570
  O       -2.4353810    -1.6060190     0.5619510
  C       -0.1069590     0.3116290    -0.0442930
  C        0.5596730    -0.9208470     0.5522810
  C       -1.4701600     0.6204770     0.6141540
  C        0.7672991     1.6050789     0.1005855
  C        1.9236380    -1.1208730    -0.0515330
  C       -2.4761190    -0.4337210     0.2256320
  H       -0.0681530    -1.7945710     0.3697710
  H        0.6733550    -0.8157800     1.6370670
  H       -1.8203350     1.5970450     0.2687060
  H       -1.3720190     0.6392280     1.7041070
  H       -0.0402350     0.8946720    -1.8856460
  H        1.6977260     2.5694770     1.3788080
  H        3.2012140    -2.4469230    -0.4041650
  H       -4.0405490    -0.6812350    -0.7753220
units angstrom
no_reorient  #important for SAPT in psi4, default
symmetry c1  #important for SAPT in psi4, default
}

set PROPERTIES_ORIGIN ["COM"]
properties('MP2/aug-cc-pvtz', properties = ['dipole'])
--------------------------------------------------------------------------

    Molecular point group: c1
  Charge       = 0
  Multiplicity = 1
  Basis Set: AUG-CC-PVTZ
    Blend: AUG-CC-PVTZ
  Basis Set: (AUG-CC-PVTZ AUX)
    Blend: AUG-CC-PVTZ-JKFIT

    Orbital Energies [Eh]
    ---------------------

    Doubly Occupied:

       1A    -20.637860     2A    -20.625519     3A    -20.623962
       4A    -20.576957     5A    -20.576335     6A    -20.560941
       7A    -20.559839     8A    -11.407529     9A    -11.404444
      10A    -11.401026    11A    -11.338239    12A    -11.270445
      13A    -11.259409    14A     -1.494883    15A     -1.471004
      16A     -1.469285    17A     -1.406399    18A     -1.382698
      19A     -1.367317    20A     -1.365687    21A     -1.110808
      22A     -1.036341    23A     -0.942277    24A     -0.850729
      25A     -0.828307    26A     -0.791592    27A     -0.759784
      28A     -0.731855    29A     -0.717641    30A     -0.715042
      31A     -0.704408    32A     -0.690504    33A     -0.667387
      34A     -0.656136    35A     -0.648234    36A     -0.640606
      37A     -0.623987    38A     -0.603129    39A     -0.594581
      40A     -0.579483    41A     -0.560422    42A     -0.556769
      43A     -0.548544    44A     -0.517205    45A     -0.493817
      46A     -0.489852    47A     -0.485188    48A     -0.469340
      49A     -0.463945    50A     -0.448147

  @DF-RHF Final Energy:  -756.25861720228102

   => Energetics <=

    Nuclear Repulsion Energy =            874.2817688948011892
    One-Electron Energy =               -2776.8290974810201988
    Two-Electron Energy =                1146.2887113839378799
    Total Energy =                       -756.2586172022811297
  Basis Set: (AUG-CC-PVTZ AUX)
    Blend: AUG-CC-PVTZ-RI
    Molecular point group: c1

    Geometry (in Angstrom), charge = 0, multiplicity = 1:

       Center              X                  Y                   Z               Mass
    ------------   -----------------  -----------------  -----------------  -----------------
         O           -0.309683944971     0.065373260430    -1.415094370795    15.994914619570
         O            1.177288055029     1.729422260430     1.389894629205    15.994914619570
         O            0.896603055029     2.371240260430    -0.772918370795    15.994914619570
         O            2.289339055029    -2.424447739570    -0.007319370795    15.994914619570
         O           -3.468079944971     0.073344260430    -0.543682370795    15.994914619570
         O            2.626303055029    -0.236526739570    -0.480699370795    15.994914619570
         O           -2.445831944971    -1.608734739570     0.574508629205    15.994914619570
         C           -0.117409944971     0.308913260430    -0.031735370795    12.000000000000
         C            0.549222055029    -0.923562739570     0.564838629205    12.000000000000
         C           -1.480610944971     0.617761260430     0.626711629205    12.000000000000
         C            0.756848155029     1.602363160430     0.113143129205    12.000000000000
         C            1.913187055029    -1.123588739570    -0.038975370795    12.000000000000
         C           -2.486569944971    -0.436436739570     0.238189629205    12.000000000000
         H           -0.078603944971    -1.797286739570     0.382328629205     1.007825032230
         H            0.662904055029    -0.818495739570     1.649624629205     1.007825032230
         H           -1.830785944971     1.594329260430     0.281263629205     1.007825032230
         H           -1.382469944971     0.636512260430     1.716664629205     1.007825032230
         H           -0.050685944971     0.891956260430    -1.873088370795     1.007825032230
         H            1.687275055029     2.566761260430     1.391365629205     1.007825032230
         H            3.190763055029    -2.449638739570    -0.391607370795     1.007825032230
         H           -4.050999944971    -0.683950739570    -0.762764370795     1.007825032230

  Basis Set: AUG-CC-PVTZ
    Blend: AUG-CC-PVTZ
  Basis Set: (AUG-CC-PVTZ AUX)
    Blend: AUG-CC-PVTZ-JKFIT
	 Reference Energy          =    -756.2586172022810160 [Eh]
	 Singles Energy            =      -0.0000000000000000 [Eh]
	 Same-Spin Energy          =      -0.7295948258228323 [Eh]
	 Opposite-Spin Energy      =      -2.1597614391065294 [Eh]
	 Correlation Energy        =      -2.8893562649293618 [Eh]
	 Total Energy              =    -759.1479734672103632 [Eh]

	 ================> DF-SCS-MP2 Energies <==================
	-----------------------------------------------------------
	 SCS Same-Spin Scale       =       0.3333333333333333 [-]
	 SCS Opposite-Spin Scale   =       1.2000000000000000 [-]
	 SCS Same-Spin Energy      =      -0.2431982752742774 [Eh]
	 SCS Opposite-Spin Energy  =      -2.5917137269278352 [Eh]
	 SCS Correlation Energy    =      -2.8349120022021128 [Eh]
	 SCS Total Energy          =    -759.0935292044831613 [Eh]
	-----------------------------------------------------------

  Dipole Moment: [D]
     X:    -0.0579      Y:     0.9690      Z:     1.7706     Total:     2.0192

*** Psi4 exiting successfully. Buy a developer a beer!
