                               Psi4 1.4a3.dev225

  ==> Input File <==

--------------------------------------------------------------------------
#psi4
#
memory 32 gb

molecule  {
0 1
  O       -0.2992690     0.0680640    -1.4275900
  O        1.1877140     1.7322170     1.3773330
  O        0.9070830     2.3739170    -0.7855270
  O        2.2997080    -2.4217750    -0.0198700
  O       -3.4574230     0.0760400    -0.5564670
  O        2.6367000    -0.2338780    -0.4933410
  O       -2.4354340    -1.6059620     0.5620860
  C       -0.1069630     0.3116450    -0.0442490
  C        0.5596710    -0.9208170     0.5523550
  C       -1.4701590     0.6204980     0.6142450
  C        0.7459620     1.5647900     0.1124790
  C        1.9417142    -1.1235660    -0.0595703
  C       -2.4760910    -0.4336940     0.2256510
  H       -0.0681940    -1.7945300     0.3699280
  H        0.6734230    -0.8156830     1.6371260
  H       -1.8203340     1.5970830     0.2688470
  H       -1.3719830     0.6391850     1.7041930
  H       -0.0401320     0.8945830    -1.8856220
  H        1.6977060     2.5695530     1.3787680
  H        3.2011100    -2.4470060    -0.4042100
  H       -4.0402960    -0.6812640    -0.7756360
units angstrom
no_reorient  #important for SAPT in psi4, default
symmetry c1  #important for SAPT in psi4, default
}

set PROPERTIES_ORIGIN ["COM"]
properties('MP2/aug-cc-pvtz', properties = ['dipole'])
--------------------------------------------------------------------------

    Molecular point group: c1
  Charge       = 0
  Multiplicity = 1
  Basis Set: AUG-CC-PVTZ
    Blend: AUG-CC-PVTZ
  Basis Set: (AUG-CC-PVTZ AUX)
    Blend: AUG-CC-PVTZ-JKFIT

    Orbital Energies [Eh]
    ---------------------

    Doubly Occupied:

       1A    -20.637872     2A    -20.626948     3A    -20.626394
       4A    -20.577559     5A    -20.571035     6A    -20.562096
       7A    -20.562010     8A    -11.410974     9A    -11.405693
      10A    -11.401015    11A    -11.339560    12A    -11.272640
      13A    -11.260908    14A     -1.485593    15A     -1.475471
      16A     -1.471886    17A     -1.398521    18A     -1.375619
      19A     -1.370653    20A     -1.367741    21A     -1.114906
      22A     -1.035065    23A     -0.950899    24A     -0.852886
      25A     -0.830284    26A     -0.795212    27A     -0.759328
      28A     -0.728186    29A     -0.717907    30A     -0.717750
      31A     -0.705387    32A     -0.690943    33A     -0.669523
      34A     -0.654834    35A     -0.644290    36A     -0.637958
      37A     -0.622265    38A     -0.605318    39A     -0.595123
      40A     -0.580866    41A     -0.561563    42A     -0.558266
      43A     -0.545119    44A     -0.505811    45A     -0.495208
      46A     -0.493487    47A     -0.485425    48A     -0.471612
      49A     -0.464744    50A     -0.451393

  @DF-RHF Final Energy:  -756.25904240944533

   => Energetics <=

    Nuclear Repulsion Energy =            874.5423524086133966
    One-Electron Energy =               -2777.3193044165163883
    Two-Electron Energy =                1146.5179095984576634
    Total Energy =                       -756.2590424094453283
  Basis Set: (AUG-CC-PVTZ AUX)
    Blend: AUG-CC-PVTZ-RI
    Molecular point group: c1

    Geometry (in Angstrom), charge = 0, multiplicity = 1:

       Center              X                  Y                   Z               Mass
    ------------   -----------------  -----------------  -----------------  -----------------
         O           -0.309517908763     0.068033166383    -1.415274460477    15.994914619570
         O            1.177465091237     1.732186166383     1.389648539523    15.994914619570
         O            0.896834091237     2.373886166383    -0.773211460477    15.994914619570
         O            2.289459091237    -2.421805833617    -0.007554460477    15.994914619570
         O           -3.467671908763     0.076009166383    -0.544151460477    15.994914619570
         O            2.626451091237    -0.233908833617    -0.481025460477    15.994914619570
         O           -2.445682908763    -1.605992833617     0.574401539523    15.994914619570
         C           -0.117211908763     0.311614166383    -0.031933460477    12.000000000000
         C            0.549422091237    -0.920847833617     0.564670539523    12.000000000000
         C           -1.480407908763     0.620467166383     0.626560539523    12.000000000000
         C            0.735713091237     1.564759166383     0.124794539523    12.000000000000
         C            1.931465291237    -1.123596833617    -0.047254760477    12.000000000000
         C           -2.486339908763    -0.433724833617     0.237966539523    12.000000000000
         H           -0.078442908763    -1.794560833617     0.382243539523     1.007825032230
         H            0.663174091237    -0.815713833617     1.649441539523     1.007825032230
         H           -1.830582908763     1.597052166383     0.281162539523     1.007825032230
         H           -1.382231908763     0.639154166383     1.716508539523     1.007825032230
         H           -0.050380908763     0.894552166383    -1.873306460477     1.007825032230
         H            1.687457091237     2.569522166383     1.391083539523     1.007825032230
         H            3.190861091237    -2.447036833617    -0.391894460477     1.007825032230
         H           -4.050544908763    -0.681294833617    -0.763320460477     1.007825032230

  Basis Set: AUG-CC-PVTZ
    Blend: AUG-CC-PVTZ
  Basis Set: (AUG-CC-PVTZ AUX)
    Blend: AUG-CC-PVTZ-JKFIT
	 Reference Energy          =    -756.2590424094453283 [Eh]
	 Singles Energy            =      -0.0000000000000000 [Eh]
	 Same-Spin Energy          =      -0.7301744064945681 [Eh]
	 Opposite-Spin Energy      =      -2.1608607659800554 [Eh]
	 Correlation Energy        =      -2.8910351724746235 [Eh]
	 Total Energy              =    -759.1500775819199589 [Eh]

	 ================> DF-SCS-MP2 Energies <==================
	-----------------------------------------------------------
	 SCS Same-Spin Scale       =       0.3333333333333333 [-]
	 SCS Opposite-Spin Scale   =       1.2000000000000000 [-]
	 SCS Same-Spin Energy      =      -0.2433914688315227 [Eh]
	 SCS Opposite-Spin Energy  =      -2.5930329191760664 [Eh]
	 SCS Correlation Energy    =      -2.8364243880075892 [Eh]
	 SCS Total Energy          =    -759.0954667974529002 [Eh]
	-----------------------------------------------------------

  Dipole Moment: [D]
     X:    -0.0593      Y:     0.6995      Z:     1.8264     Total:     1.9567

*** Psi4 exiting successfully. Buy a developer a beer!
