                               Psi4 1.3.2 release

  ==> Input File <==

--------------------------------------------------------------------------
#psi4
#
memory 32 gb

molecule  {
0 1
  O       -0.2992330     0.0680890    -1.4276520
  O        1.1877390     1.7321380     1.3773370
  O        0.9070540     2.3739560    -0.7854760
  O        2.2997900    -2.4217320    -0.0198770
  O       -3.4576290     0.0760600    -0.5562400
  O        2.6367540    -0.2338110    -0.4932570
  O       -2.4353810    -1.6060190     0.5619510
  C       -0.1069590     0.3116290    -0.0442930
  C        0.5596730    -0.9208470     0.5522810
  C       -1.4701600     0.6204770     0.6141540
  C        0.7459700     1.5647750     0.1124900
  C        2.1048967    -1.1474547    -0.1317745
  C       -2.4761190    -0.4337210     0.2256320
  H       -0.0681530    -1.7945710     0.3697710
  H        0.6733550    -0.8157800     1.6370670
  H       -1.8203350     1.5970450     0.2687060
  H       -1.3720190     0.6392280     1.7041070
  H       -0.0402350     0.8946720    -1.8856460
  H        1.6977260     2.5694770     1.3788080
  H        3.2012140    -2.4469230    -0.4041650
  H       -4.0405490    -0.6812350    -0.7753220
units angstrom
no_reorient  #important for SAPT in psi4, default
symmetry c1  #important for SAPT in psi4, default
}

set PROPERTIES_ORIGIN ["COM"]
properties('MP2/aug-cc-pvtz', properties = ['dipole'])
--------------------------------------------------------------------------

    Molecular point group: c1
  Charge       = 0
  Multiplicity = 1
  Basis Set: AUG-CC-PVTZ
    Blend: AUG-CC-PVTZ
  Basis Set: (AUG-CC-PVTZ AUX)
    Blend: AUG-CC-PVTZ-JKFIT

    Orbital Energies [Eh]
    ---------------------

    Doubly Occupied:

       1A    -20.646833     2A    -20.634677     3A    -20.620876
       4A    -20.576756     5A    -20.570139     6A    -20.568047
       7A    -20.555158     8A    -11.406009     9A    -11.398989
      10A    -11.397735    11A    -11.328012    12A    -11.264989
      13A    -11.241921    14A     -1.527530    15A     -1.481268
      16A     -1.465913    17A     -1.445800    18A     -1.391991
      19A     -1.366225    20A     -1.361468    21A     -1.099404
      22A     -1.005388    23A     -0.932480    24A     -0.850307
      25A     -0.828183    26A     -0.790363    27A     -0.756362
      28A     -0.747714    29A     -0.723851    30A     -0.713270
      31A     -0.710757    32A     -0.691275    33A     -0.684980
      34A     -0.666359    35A     -0.641052    36A     -0.635102
      37A     -0.615779    38A     -0.607901    39A     -0.590044
      40A     -0.585233    41A     -0.551983    42A     -0.550862
      43A     -0.538094    44A     -0.532449    45A     -0.500564
      46A     -0.487481    47A     -0.479295    48A     -0.463859
      49A     -0.451431    50A     -0.418993

  @DF-RHF Final Energy:  -756.21840146547174

   => Energetics <=

    Nuclear Repulsion Energy =            873.6070681762876120
    One-Electron Energy =               -2775.4486311261366609
    Two-Electron Energy =                1145.6231614843773059
    Total Energy =                       -756.2184014654717430
  Basis Set: (AUG-CC-PVTZ AUX)
    Blend: AUG-CC-PVTZ-RI
    Molecular point group: c1

    Geometry (in Angstrom), charge = 0, multiplicity = 1:

       Center              X                  Y                   Z               Mass
    ------------   -----------------  -----------------  -----------------  -----------------
         O           -0.319678139402     0.069553022595    -1.410823908886    15.994914619570
         O            1.167293860598     1.733602022595     1.394165091114    15.994914619570
         O            0.886608860598     2.375420022595    -0.768647908886    15.994914619570
         O            2.279344860598    -2.420267977405    -0.003048908886    15.994914619570
         O           -3.478074139402     0.077524022595    -0.539411908886    15.994914619570
         O            2.616308860598    -0.232346977405    -0.476428908886    15.994914619570
         O           -2.455826139402    -1.604554977405     0.578779091114    15.994914619570
         C           -0.127404139402     0.313093022595    -0.027464908886    12.000000000000
         C            0.539227860598    -0.919382977405     0.569109091114    12.000000000000
         C           -1.490605139402     0.621941022595     0.630982091114    12.000000000000
         C            0.725524860598     1.566239022595     0.129318091114    12.000000000000
         C            2.084451560598    -1.145990677405    -0.114946408886    12.000000000000
         C           -2.496564139402    -0.432256977405     0.242460091114    12.000000000000
         H           -0.088598139402    -1.793106977405     0.386599091114     1.007825032230
         H            0.652909860598    -0.814315977405     1.653895091114     1.007825032230
         H           -1.840780139402     1.598509022595     0.285534091114     1.007825032230
         H           -1.392464139402     0.640692022595     1.720935091114     1.007825032230
         H           -0.060680139402     0.896136022595    -1.868817908886     1.007825032230
         H            1.677280860598     2.570941022595     1.395636091114     1.007825032230
         H            3.180768860598    -2.445458977405    -0.387336908886     1.007825032230
         H           -4.060994139402    -0.679770977405    -0.758493908886     1.007825032230

  Basis Set: AUG-CC-PVTZ
    Blend: AUG-CC-PVTZ
  Basis Set: (AUG-CC-PVTZ AUX)
    Blend: AUG-CC-PVTZ-JKFIT
	 Reference Energy          =    -756.2184014654717430 [Eh]
	 Singles Energy            =      -0.0000000000000000 [Eh]
	 Same-Spin Energy          =      -0.7290906806493208 [Eh]
	 Opposite-Spin Energy      =      -2.1584120936771058 [Eh]
	 Correlation Energy        =      -2.8875027743264265 [Eh]
	 Total Energy              =    -759.1059042397981784 [Eh]

	 ================> DF-SCS-MP2 Energies <==================
	-----------------------------------------------------------
	 SCS Same-Spin Scale       =       0.3333333333333333 [-]
	 SCS Opposite-Spin Scale   =       1.2000000000000000 [-]
	 SCS Same-Spin Energy      =      -0.2430302268831069 [Eh]
	 SCS Opposite-Spin Energy  =      -2.5900945124125268 [Eh]
	 SCS Correlation Energy    =      -2.8331247392956338 [Eh]
	 SCS Total Energy          =    -759.0515262047673559 [Eh]
	-----------------------------------------------------------

  Dipole Moment: [D]
     X:     1.0481      Y:     0.3822      Z:     1.4665     Total:     1.8426

*** Psi4 exiting successfully. Buy a developer a beer!
