                               Psi4 1.4a3.dev225

  ==> Input File <==

--------------------------------------------------------------------------
#psi4
#
memory 32 gb

molecule  {
0 1
  O       -0.2992690     0.0680640    -1.4275900
  O        1.1877140     1.7322170     1.3773330
  O        0.9070830     2.3739170    -0.7855270
  O        2.2997080    -2.4217750    -0.0198700
  O       -3.4574230     0.0760400    -0.5564670
  O        2.6367000    -0.2338780    -0.4933410
  O       -2.4354340    -1.6059620     0.5620860
  C       -0.1069630     0.3116450    -0.0442490
  C        0.5596710    -0.9208170     0.5523550
  C       -1.4701590     0.6204980     0.6142450
  C        0.7486045     1.5780603     0.0977510
  C        1.9235890    -1.1209070    -0.0515450
  C       -2.4760910    -0.4336940     0.2256510
  H       -0.0681940    -1.7945300     0.3699280
  H        0.6734230    -0.8156830     1.6371260
  H       -1.8203340     1.5970830     0.2688470
  H       -1.3719830     0.6391850     1.7041930
  H       -0.0401320     0.8945830    -1.8856220
  H        1.6977060     2.5695530     1.3787680
  H        3.2011100    -2.4470060    -0.4042100
  H       -4.0402960    -0.6812640    -0.7756360
units angstrom
no_reorient  #important for SAPT in psi4, default
symmetry c1  #important for SAPT in psi4, default
}

set PROPERTIES_ORIGIN ["COM"]
properties('MP2/aug-cc-pvtz', properties = ['dipole'])
--------------------------------------------------------------------------

    Molecular point group: c1
  Charge       = 0
  Multiplicity = 1
  Basis Set: AUG-CC-PVTZ
    Blend: AUG-CC-PVTZ
  Basis Set: (AUG-CC-PVTZ AUX)
    Blend: AUG-CC-PVTZ-JKFIT

    Orbital Energies [Eh]
    ---------------------

    Doubly Occupied:

       1A    -20.634730     2A    -20.626650     3A    -20.624705
       4A    -20.578028     5A    -20.575238     6A    -20.562289
       7A    -20.560642     8A    -11.409716     9A    -11.405914
      10A    -11.401989    11A    -11.340250    12A    -11.272640
      13A    -11.261424    14A     -1.486302    15A     -1.472154
      16A     -1.469880    17A     -1.400265    18A     -1.379003
      19A     -1.368531    20A     -1.366440    21A     -1.115174
      22A     -1.038306    23A     -0.949328    24A     -0.851207
      25A     -0.829725    26A     -0.793352    27A     -0.759025
      28A     -0.728896    29A     -0.718388    30A     -0.715831
      31A     -0.704927    32A     -0.691192    33A     -0.668835
      34A     -0.653454    35A     -0.645698    36A     -0.638287
      37A     -0.623709    38A     -0.604051    39A     -0.595078
      40A     -0.580272    41A     -0.561782    42A     -0.558660
      43A     -0.547846    44A     -0.511332    45A     -0.495001
      46A     -0.490446    47A     -0.486608    48A     -0.471440
      49A     -0.465391    50A     -0.451882

  @DF-RHF Final Energy:  -756.25905607029870

   => Energetics <=

    Nuclear Repulsion Energy =            874.5706169353752557
    One-Electron Energy =               -2777.3755195998232921
    Two-Electron Energy =                1146.5458465941492250
    Total Energy =                       -756.2590560702988114
  Basis Set: (AUG-CC-PVTZ AUX)
    Blend: AUG-CC-PVTZ-RI
    Molecular point group: c1

    Geometry (in Angstrom), charge = 0, multiplicity = 1:

       Center              X                  Y                   Z               Mass
    ------------   -----------------  -----------------  -----------------  -----------------
         O           -0.308550376085     0.067037725131    -1.414855600634    15.994914619570
         O            1.178432623915     1.731190725131     1.390067399366    15.994914619570
         O            0.897801623915     2.372890725131    -0.772792600634    15.994914619570
         O            2.290426623915    -2.422801274869    -0.007135600634    15.994914619570
         O           -3.466704376085     0.075013725131    -0.543732600634    15.994914619570
         O            2.627418623915    -0.234904274869    -0.480606600634    15.994914619570
         O           -2.444715376085    -1.606988274869     0.574820399366    15.994914619570
         C           -0.116244376085     0.310618725131    -0.031514600634    12.000000000000
         C            0.550389623915    -0.921843274869     0.565089399366    12.000000000000
         C           -1.479440376085     0.619471725131     0.626979399366    12.000000000000
         C            0.739323123915     1.577034025131     0.110485399366    12.000000000000
         C            1.914307623915    -1.121933274869    -0.038810600634    12.000000000000
         C           -2.485372376085    -0.434720274869     0.238385399366    12.000000000000
         H           -0.077475376085    -1.795556274869     0.382662399366     1.007825032230
         H            0.664141623915    -0.816709274869     1.649860399366     1.007825032230
         H           -1.829615376085     1.596056725131     0.281581399366     1.007825032230
         H           -1.381264376085     0.638158725131     1.716927399366     1.007825032230
         H           -0.049413376085     0.893556725131    -1.872887600634     1.007825032230
         H            1.688424623915     2.568526725131     1.391502399366     1.007825032230
         H            3.191828623915    -2.448032274869    -0.391475600634     1.007825032230
         H           -4.049577376085    -0.682290274869    -0.762901600634     1.007825032230

  Basis Set: AUG-CC-PVTZ
    Blend: AUG-CC-PVTZ
  Basis Set: (AUG-CC-PVTZ AUX)
    Blend: AUG-CC-PVTZ-JKFIT
	 Reference Energy          =    -756.2590560702986977 [Eh]
	 Singles Energy            =      -0.0000000000000000 [Eh]
	 Same-Spin Energy          =      -0.7301124936801685 [Eh]
	 Opposite-Spin Energy      =      -2.1608767361479737 [Eh]
	 Correlation Energy        =      -2.8909892298281421 [Eh]
	 Total Energy              =    -759.1500453001268625 [Eh]

	 ================> DF-SCS-MP2 Energies <==================
	-----------------------------------------------------------
	 SCS Same-Spin Scale       =       0.3333333333333333 [-]
	 SCS Opposite-Spin Scale   =       1.2000000000000000 [-]
	 SCS Same-Spin Energy      =      -0.2433708312267228 [Eh]
	 SCS Opposite-Spin Energy  =      -2.5930520833775685 [Eh]
	 SCS Correlation Energy    =      -2.8364229146042912 [Eh]
	 SCS Total Energy          =    -759.0954789849030249 [Eh]
	-----------------------------------------------------------

  Dipole Moment: [D]
     X:    -0.1625      Y:     0.8081      Z:     1.7498     Total:     1.9342

*** Psi4 exiting successfully. Buy a developer a beer!
