                               Psi4 1.3.2 release

  ==> Input File <==

--------------------------------------------------------------------------
#psi4
#
memory 32 gb

molecule  {
0 1
  O       -0.2992330     0.0680890    -1.4276520
  O        1.1653020     1.6925298     1.3895364
  O        0.9070540     2.3739560    -0.7854760
  O        2.2997900    -2.4217320    -0.0198770
  O       -3.4576290     0.0760600    -0.5562400
  O        2.6367540    -0.2338110    -0.4932570
  O       -2.4353810    -1.6060190     0.5619510
  C       -0.1069590     0.3116290    -0.0442930
  C        0.5596730    -0.9208470     0.5522810
  C       -1.4701600     0.6204770     0.6141540
  C        0.7459700     1.5647750     0.1124900
  C        1.9236380    -1.1208730    -0.0515330
  C       -2.4761190    -0.4337210     0.2256320
  H       -0.0681530    -1.7945710     0.3697710
  H        0.6733550    -0.8157800     1.6370670
  H       -1.8203350     1.5970450     0.2687060
  H       -1.3720190     0.6392280     1.7041070
  H       -0.0402350     0.8946720    -1.8856460
  H        1.6977260     2.5694770     1.3788080
  H        3.2012140    -2.4469230    -0.4041650
  H       -4.0405490    -0.6812350    -0.7753220
units angstrom
no_reorient  #important for SAPT in psi4, default
symmetry c1  #important for SAPT in psi4, default
}

set PROPERTIES_ORIGIN ["COM"]
properties('MP2/aug-cc-pvtz', properties = ['dipole'])
--------------------------------------------------------------------------

    Molecular point group: c1
  Charge       = 0
  Multiplicity = 1
  Basis Set: AUG-CC-PVTZ
    Blend: AUG-CC-PVTZ
  Basis Set: (AUG-CC-PVTZ AUX)
    Blend: AUG-CC-PVTZ-JKFIT

    Orbital Energies [Eh]
    ---------------------

    Doubly Occupied:

       1A    -20.644024     2A    -20.626424     3A    -20.624704
       4A    -20.577006     5A    -20.573490     6A    -20.562091
       7A    -20.560699     8A    -11.411687     9A    -11.405718
      10A    -11.402000    11A    -11.338600    12A    -11.272520
      13A    -11.261159    14A     -1.482414    15A     -1.471891
      16A     -1.469681    17A     -1.397451    18A     -1.372758
      19A     -1.368273    20A     -1.366120    21A     -1.115564
      22A     -1.038291    23A     -0.949828    24A     -0.849197
      25A     -0.829580    26A     -0.791031    27A     -0.757138
      28A     -0.727270    29A     -0.717608    30A     -0.715821
      31A     -0.704406    32A     -0.690636    33A     -0.668471
      34A     -0.653643    35A     -0.644432    36A     -0.637666
      37A     -0.623080    38A     -0.603834    39A     -0.594921
      40A     -0.579950    41A     -0.561312    42A     -0.558093
      43A     -0.545081    44A     -0.507315    45A     -0.494604
      46A     -0.490293    47A     -0.485939    48A     -0.471138
      49A     -0.465119    50A     -0.451764

  @DF-RHF Final Energy:  -756.25225803005446

   => Energetics <=

    Nuclear Repulsion Energy =            875.0488545064977188
    One-Electron Energy =               -2778.3787558142703347
    Two-Electron Energy =                1147.0776432777181526
    Total Energy =                       -756.2522580300544632
  Basis Set: (AUG-CC-PVTZ AUX)
    Blend: AUG-CC-PVTZ-RI
    Molecular point group: c1

    Geometry (in Angstrom), charge = 0, multiplicity = 1:

       Center              X                  Y                   Z               Mass
    ------------   -----------------  -----------------  -----------------  -----------------
         O           -0.306482170788     0.071191070228    -1.416854448059    15.994914619570
         O            1.158052829212     1.695631870228     1.400333951941    15.994914619570
         O            0.899804829212     2.377058070228    -0.774678448059    15.994914619570
         O            2.292540829212    -2.418629929772    -0.009079448059    15.994914619570
         O           -3.464878170788     0.079162070228    -0.545442448059    15.994914619570
         O            2.629504829212    -0.230708929772    -0.482459448059    15.994914619570
         O           -2.442630170788    -1.602916929772     0.572748551941    15.994914619570
         C           -0.114208170788     0.314731070228    -0.033495448059    12.000000000000
         C            0.552423829212    -0.917744929772     0.563078551941    12.000000000000
         C           -1.477409170788     0.623579070228     0.624951551941    12.000000000000
         C            0.738720829212     1.567877070228     0.123287551941    12.000000000000
         C            1.916388829212    -1.117770929772    -0.040735448059    12.000000000000
         C           -2.483368170788    -0.430618929772     0.236429551941    12.000000000000
         H           -0.075402170788    -1.791468929772     0.380568551941     1.007825032230
         H            0.666105829212    -0.812677929772     1.647864551941     1.007825032230
         H           -1.827584170788     1.600147070228     0.279503551941     1.007825032230
         H           -1.379268170788     0.642330070228     1.714904551941     1.007825032230
         H           -0.047484170788     0.897774070228    -1.874848448059     1.007825032230
         H            1.690476829212     2.572579070228     1.389605551941     1.007825032230
         H            3.193964829212    -2.443820929772    -0.393367448059     1.007825032230
         H           -4.047798170788    -0.678132929772    -0.764524448059     1.007825032230

  Basis Set: AUG-CC-PVTZ
    Blend: AUG-CC-PVTZ
  Basis Set: (AUG-CC-PVTZ AUX)
    Blend: AUG-CC-PVTZ-JKFIT
	 Reference Energy          =    -756.2522580300544632 [Eh]
	 Singles Energy            =      -0.0000000000000000 [Eh]
	 Same-Spin Energy          =      -0.7315016586149744 [Eh]
	 Opposite-Spin Energy      =      -2.1636362905837925 [Eh]
	 Correlation Energy        =      -2.8951379491987668 [Eh]
	 Total Energy              =    -759.1473959792532469 [Eh]

	 ================> DF-SCS-MP2 Energies <==================
	-----------------------------------------------------------
	 SCS Same-Spin Scale       =       0.3333333333333333 [-]
	 SCS Opposite-Spin Scale   =       1.2000000000000000 [-]
	 SCS Same-Spin Energy      =      -0.2438338862049915 [Eh]
	 SCS Opposite-Spin Energy  =      -2.5963635487005510 [Eh]
	 SCS Correlation Energy    =      -2.8401974349055426 [Eh]
	 SCS Total Energy          =    -759.0924554649600395 [Eh]
	-----------------------------------------------------------

  Dipole Moment: [D]
     X:    -0.1114      Y:     0.8199      Z:     1.8790     Total:     2.0531

*** Psi4 exiting successfully. Buy a developer a beer!
