                               Psi4 1.3.2 release

  ==> Input File <==

--------------------------------------------------------------------------
#psi4
#
memory 32 gb

molecule  {
0 1
  O       -0.2992330     0.0680890    -1.4276520
  O        1.1877390     1.7321380     1.3773370
  O        0.9070540     2.3739560    -0.7854760
  O        2.2997900    -2.4217320    -0.0198770
  O       -3.4576290     0.0760600    -0.5562400
  O        2.6367540    -0.2338110    -0.4932570
  O       -2.4353810    -1.6060190     0.5619510
  C       -0.0638015     0.3192659    -0.0743732
  C        0.5596730    -0.9208470     0.5522810
  C       -1.4701600     0.6204770     0.6141540
  C        0.7459700     1.5647750     0.1124900
  C        1.9236380    -1.1208730    -0.0515330
  C       -2.4761190    -0.4337210     0.2256320
  H       -0.0681530    -1.7945710     0.3697710
  H        0.6733550    -0.8157800     1.6370670
  H       -1.8203350     1.5970450     0.2687060
  H       -1.3720190     0.6392280     1.7041070
  H       -0.0402350     0.8946720    -1.8856460
  H        1.6977260     2.5694770     1.3788080
  H        3.2012140    -2.4469230    -0.4041650
  H       -4.0405490    -0.6812350    -0.7753220
units angstrom
no_reorient  #important for SAPT in psi4, default
symmetry c1  #important for SAPT in psi4, default
}

set PROPERTIES_ORIGIN ["COM"]
properties('MP2/aug-cc-pvtz', properties = ['dipole'])
--------------------------------------------------------------------------

    Molecular point group: c1
  Charge       = 0
  Multiplicity = 1
  Basis Set: AUG-CC-PVTZ
    Blend: AUG-CC-PVTZ
  Basis Set: (AUG-CC-PVTZ AUX)
    Blend: AUG-CC-PVTZ-JKFIT

    Orbital Energies [Eh]
    ---------------------

    Doubly Occupied:

       1A    -20.638836     2A    -20.626127     3A    -20.624817
       4A    -20.582096     5A    -20.571199     6A    -20.561580
       7A    -20.561414     8A    -11.411230     9A    -11.405188
      10A    -11.401869    11A    -11.340923    12A    -11.273083
      13A    -11.262255    14A     -1.486946    15A     -1.471512
      16A     -1.470314    17A     -1.407025    18A     -1.374526
      19A     -1.367981    20A     -1.367275    21A     -1.112943
      22A     -1.035803    23A     -0.957765    24A     -0.852671
      25A     -0.827994    26A     -0.797922    27A     -0.764069
      28A     -0.728239    29A     -0.717964    30A     -0.716459
      31A     -0.705763    32A     -0.690556    33A     -0.667731
      34A     -0.654149    35A     -0.645013    36A     -0.637669
      37A     -0.622237    38A     -0.604135    39A     -0.595161
      40A     -0.580644    41A     -0.566945    42A     -0.558220
      43A     -0.549650    44A     -0.506412    45A     -0.494866
      46A     -0.490552    47A     -0.485939    48A     -0.469549
      49A     -0.464120    50A     -0.450957

  @DF-RHF Final Energy:  -756.25630418760989

   => Energetics <=

    Nuclear Repulsion Energy =            874.8567378228580083
    One-Electron Energy =               -2777.9094976315641361
    Two-Electron Energy =                1146.7964556210961291
    Total Energy =                       -756.2563041876098850
  Basis Set: (AUG-CC-PVTZ AUX)
    Blend: AUG-CC-PVTZ-RI
    Molecular point group: c1

    Geometry (in Angstrom), charge = 0, multiplicity = 1:

       Center              X                  Y                   Z               Mass
    ------------   -----------------  -----------------  -----------------  -----------------
         O           -0.311048028128     0.067414660831    -1.413958549285    15.994914619570
         O            1.175923971872     1.731463660831     1.391030450715    15.994914619570
         O            0.895238971872     2.373281660831    -0.771782549285    15.994914619570
         O            2.287974971872    -2.422406339169    -0.006183549285    15.994914619570
         O           -3.469444028128     0.075385660831    -0.542546549285    15.994914619570
         O            2.624938971872    -0.234485339169    -0.479563549285    15.994914619570
         O           -2.447196028128    -1.606693339169     0.575644450715    15.994914619570
         C           -0.075616528128     0.318591560831    -0.060679749285    12.000000000000
         C            0.547857971872    -0.921521339169     0.565974450715    12.000000000000
         C           -1.481975028128     0.619802660831     0.627847450715    12.000000000000
         C            0.734154971872     1.564100660831     0.126183450715    12.000000000000
         C            1.911822971872    -1.121547339169    -0.037839549285    12.000000000000
         C           -2.487934028128    -0.434395339169     0.239325450715    12.000000000000
         H           -0.079968028128    -1.795245339169     0.383464450715     1.007825032230
         H            0.661539971872    -0.816454339169     1.650760450715     1.007825032230
         H           -1.832150028128     1.596370660831     0.282399450715     1.007825032230
         H           -1.383834028128     0.638553660831     1.717800450715     1.007825032230
         H           -0.052050028128     0.893997660831    -1.871952549285     1.007825032230
         H            1.685910971872     2.568802660831     1.392501450715     1.007825032230
         H            3.189398971872    -2.447597339169    -0.390471549285     1.007825032230
         H           -4.052364028128    -0.681909339169    -0.761628549285     1.007825032230

  Basis Set: AUG-CC-PVTZ
    Blend: AUG-CC-PVTZ
  Basis Set: (AUG-CC-PVTZ AUX)
    Blend: AUG-CC-PVTZ-JKFIT
	 Reference Energy          =    -756.2563041876098850 [Eh]
	 Singles Energy            =      -0.0000000000000000 [Eh]
	 Same-Spin Energy          =      -0.7306084377580173 [Eh]
	 Opposite-Spin Energy      =      -2.1613875167092829 [Eh]
	 Correlation Energy        =      -2.8919959544673004 [Eh]
	 Total Energy              =    -759.1483001420772325 [Eh]

	 ================> DF-SCS-MP2 Energies <==================
	-----------------------------------------------------------
	 SCS Same-Spin Scale       =       0.3333333333333333 [-]
	 SCS Opposite-Spin Scale   =       1.2000000000000000 [-]
	 SCS Same-Spin Energy      =      -0.2435361459193391 [Eh]
	 SCS Opposite-Spin Energy  =      -2.5936650200511395 [Eh]
	 SCS Correlation Energy    =      -2.8372011659704786 [Eh]
	 SCS Total Energy          =    -759.0935053535803263 [Eh]
	-----------------------------------------------------------

  Dipole Moment: [D]
     X:    -0.0958      Y:     0.7031      Z:     1.7731     Total:     1.9099

*** Psi4 exiting successfully. Buy a developer a beer!
