                               Psi4 1.3.2 release

  ==> Input File <==

--------------------------------------------------------------------------
#psi4
#
memory 32 gb

molecule  {
0 1
  O       -0.2992330     0.0680890    -1.4276520
  O        1.1505256     1.6480443     1.3979507
  O        0.9070540     2.3739560    -0.7854760
  O        2.2997900    -2.4217320    -0.0198770
  O       -3.4576290     0.0760600    -0.5562400
  O        2.6367540    -0.2338110    -0.4932570
  O       -2.4353810    -1.6060190     0.5619510
  C       -0.1069590     0.3116290    -0.0442930
  C        0.5596730    -0.9208470     0.5522810
  C       -1.4701600     0.6204770     0.6141540
  C        0.7459700     1.5647750     0.1124900
  C        1.9236380    -1.1208730    -0.0515330
  C       -2.4761190    -0.4337210     0.2256320
  H       -0.0681530    -1.7945710     0.3697710
  H        0.6733550    -0.8157800     1.6370670
  H       -1.8203350     1.5970450     0.2687060
  H       -1.3720190     0.6392280     1.7041070
  H       -0.0402350     0.8946720    -1.8856460
  H        1.6977260     2.5694770     1.3788080
  H        3.2012140    -2.4469230    -0.4041650
  H       -4.0405490    -0.6812350    -0.7753220
units angstrom
no_reorient  #important for SAPT in psi4, default
symmetry c1  #important for SAPT in psi4, default
}

set PROPERTIES_ORIGIN ["COM"]
properties('MP2/aug-cc-pvtz', properties = ['dipole'])
--------------------------------------------------------------------------

    Molecular point group: c1
  Charge       = 0
  Multiplicity = 1
  Basis Set: AUG-CC-PVTZ
    Blend: AUG-CC-PVTZ
  Basis Set: (AUG-CC-PVTZ AUX)
    Blend: AUG-CC-PVTZ-JKFIT

    Orbital Energies [Eh]
    ---------------------

    Doubly Occupied:

       1A    -20.649205     2A    -20.625927     3A    -20.624277
       4A    -20.575704     5A    -20.575695     6A    -20.561511
       7A    -20.560207     8A    -11.412091     9A    -11.405101
      10A    -11.401475    11A    -11.336441    12A    -11.271692
      13A    -11.260156    14A     -1.479841    15A     -1.471318
      16A     -1.468987    17A     -1.395961    18A     -1.373371
      19A     -1.367756    20A     -1.365685    21A     -1.114047
      22A     -1.037533    23A     -0.947228    24A     -0.846063
      25A     -0.828855    26A     -0.787192    27A     -0.755210
      28A     -0.725426    29A     -0.716374    30A     -0.715345
      31A     -0.703665    32A     -0.690148    33A     -0.667655
      34A     -0.653297    35A     -0.643705    36A     -0.637408
      37A     -0.623179    38A     -0.603038    39A     -0.594506
      40A     -0.579401    41A     -0.560348    42A     -0.556808
      43A     -0.543982    44A     -0.508793    45A     -0.494066
      46A     -0.489879    47A     -0.485823    48A     -0.470190
      49A     -0.464590    50A     -0.450775

  @DF-RHF Final Energy:  -756.24277162867713

   => Energetics <=

    Nuclear Repulsion Energy =            875.5343979153004739
    One-Electron Energy =               -2779.4004803740867828
    Two-Electron Energy =                1147.6233108301094035
    Total Energy =                       -756.2427716286770192
  Basis Set: (AUG-CC-PVTZ AUX)
    Blend: AUG-CC-PVTZ-RI
    Molecular point group: c1

    Geometry (in Angstrom), charge = 0, multiplicity = 1:

       Center              X                  Y                   Z               Mass
    ------------   -----------------  -----------------  -----------------  -----------------
         O           -0.305251368593     0.074896495844    -1.417555318292    15.994914619570
         O            1.144507231407     1.654851795844     1.408047381708    15.994914619570
         O            0.901035631407     2.380763495844    -0.775379318292    15.994914619570
         O            2.293771631407    -2.414924504156    -0.009780318292    15.994914619570
         O           -3.463647368593     0.082867495844    -0.546143318292    15.994914619570
         O            2.630735631407    -0.227003504156    -0.483160318292    15.994914619570
         O           -2.441399368593    -1.599211504156     0.572047681708    15.994914619570
         C           -0.112977368593     0.318436495844    -0.034196318292    12.000000000000
         C            0.553654631407    -0.914039504156     0.562377681708    12.000000000000
         C           -1.476178368593     0.627284495844     0.624250681708    12.000000000000
         C            0.739951631407     1.571582495844     0.122586681708    12.000000000000
         C            1.917619631407    -1.114065504156    -0.041436318292    12.000000000000
         C           -2.482137368593    -0.426913504156     0.235728681708    12.000000000000
         H           -0.074171368593    -1.787763504156     0.379867681708     1.007825032230
         H            0.667336631407    -0.808972504156     1.647163681708     1.007825032230
         H           -1.826353368593     1.603852495844     0.278802681708     1.007825032230
         H           -1.378037368593     0.646035495844     1.714203681708     1.007825032230
         H           -0.046253368593     0.901479495844    -1.875549318292     1.007825032230
         H            1.691707631407     2.576284495844     1.388904681708     1.007825032230
         H            3.195195631407    -2.440115504156    -0.394068318292     1.007825032230
         H           -4.046567368593    -0.674427504156    -0.765225318292     1.007825032230

  Basis Set: AUG-CC-PVTZ
    Blend: AUG-CC-PVTZ
  Basis Set: (AUG-CC-PVTZ AUX)
    Blend: AUG-CC-PVTZ-JKFIT
	 Reference Energy          =    -756.2427716286771329 [Eh]
	 Singles Energy            =      -0.0000000000000000 [Eh]
	 Same-Spin Energy          =      -0.7325301541292024 [Eh]
	 Opposite-Spin Energy      =      -2.1658761291117719 [Eh]
	 Correlation Energy        =      -2.8984062832409743 [Eh]
	 Total Energy              =    -759.1411779119181347 [Eh]

	 ================> DF-SCS-MP2 Energies <==================
	-----------------------------------------------------------
	 SCS Same-Spin Scale       =       0.3333333333333333 [-]
	 SCS Opposite-Spin Scale   =       1.2000000000000000 [-]
	 SCS Same-Spin Energy      =      -0.2441767180430675 [Eh]
	 SCS Opposite-Spin Energy  =      -2.5990513549341263 [Eh]
	 SCS Correlation Energy    =      -2.8432280729771939 [Eh]
	 SCS Total Energy          =    -759.0859997016543730 [Eh]
	-----------------------------------------------------------

  Dipole Moment: [D]
     X:    -0.0696      Y:     0.9049      Z:     1.8983     Total:     2.1042

*** Psi4 exiting successfully. Buy a developer a beer!
