                               Psi4 1.3.2 release

  ==> Input File <==

--------------------------------------------------------------------------
#psi4
#
memory 32 gb

molecule  {
0 1
  O       -0.2992330     0.0680890    -1.4276520
  O        1.1877390     1.7321380     1.3773370
  O        0.9070540     2.3739560    -0.7854760
  O        2.2997900    -2.4217320    -0.0198770
  O       -3.4576290     0.0760600    -0.5562400
  O        2.6217967    -0.2195115    -0.4881742
  O       -2.4353810    -1.6060190     0.5619510
  C       -0.1069590     0.3116290    -0.0442930
  C        0.5596730    -0.9208470     0.5522810
  C       -1.4701600     0.6204770     0.6141540
  C        0.7459700     1.5647750     0.1124900
  C        1.9236380    -1.1208730    -0.0515330
  C       -2.4761190    -0.4337210     0.2256320
  H       -0.0681530    -1.7945710     0.3697710
  H        0.6733550    -0.8157800     1.6370670
  H       -1.8203350     1.5970450     0.2687060
  H       -1.3720190     0.6392280     1.7041070
  H       -0.0402350     0.8946720    -1.8856460
  H        1.6977260     2.5694770     1.3788080
  H        3.2012140    -2.4469230    -0.4041650
  H       -4.0405490    -0.6812350    -0.7753220
units angstrom
no_reorient  #important for SAPT in psi4, default
symmetry c1  #important for SAPT in psi4, default
}

set PROPERTIES_ORIGIN ["COM"]
properties('MP2/aug-cc-pvtz', properties = ['dipole'])
--------------------------------------------------------------------------

    Molecular point group: c1
  Charge       = 0
  Multiplicity = 1
  Basis Set: AUG-CC-PVTZ
    Blend: AUG-CC-PVTZ
  Basis Set: (AUG-CC-PVTZ AUX)
    Blend: AUG-CC-PVTZ-JKFIT

    Orbital Energies [Eh]
    ---------------------

    Doubly Occupied:

       1A    -20.637591     2A    -20.626923     3A    -20.626656
       4A    -20.577843     5A    -20.570575     6A    -20.562350
       7A    -20.561582     8A    -11.410943     9A    -11.406015
      10A    -11.402770    11A    -11.340180    12A    -11.272960
      13A    -11.261104    14A     -1.485129    15A     -1.472176
      16A     -1.470457    17A     -1.398611    18A     -1.372227
      19A     -1.368951    20A     -1.367311    21A     -1.116431
      22A     -1.038412    23A     -0.952392    24A     -0.853177
      25A     -0.830439    26A     -0.795299    27A     -0.759606
      28A     -0.727718    29A     -0.718148    30A     -0.716953
      31A     -0.705073    32A     -0.690889    33A     -0.669225
      34A     -0.653931    35A     -0.644156    36A     -0.637669
      37A     -0.622478    38A     -0.604441    39A     -0.595052
      40A     -0.580309    41A     -0.561968    42A     -0.559005
      43A     -0.545436    44A     -0.505536    45A     -0.494908
      46A     -0.491231    47A     -0.485436    48A     -0.471539
      49A     -0.465466    50A     -0.452250

  @DF-RHF Final Energy:  -756.25785357509722

   => Energetics <=

    Nuclear Repulsion Energy =            875.0289601076796089
    One-Electron Energy =               -2778.2997746568848925
    Two-Electron Energy =                1147.0129609741079548
    Total Energy =                       -756.2578535750972151
  Basis Set: (AUG-CC-PVTZ AUX)
    Blend: AUG-CC-PVTZ-RI
    Molecular point group: c1

    Geometry (in Angstrom), charge = 0, multiplicity = 1:

       Center              X                  Y                   Z               Mass
    ------------   -----------------  -----------------  -----------------  -----------------
         O           -0.307105193391     0.066700821216    -1.416261669920    15.994914619570
         O            1.179866806609     1.730749821216     1.388727330080    15.994914619570
         O            0.899181806609     2.372567821216    -0.774085669920    15.994914619570
         O            2.291917806609    -2.423120178784    -0.008486669920    15.994914619570
         O           -3.465501193391     0.074671821216    -0.544849669920    15.994914619570
         O            2.613924506609    -0.220899678784    -0.476783869920    15.994914619570
         O           -2.443253193391    -1.607407178784     0.573341330080    15.994914619570
         C           -0.114831193391     0.310240821216    -0.032902669920    12.000000000000
         C            0.551800806609    -0.922235178784     0.563671330080    12.000000000000
         C           -1.478032193391     0.619088821216     0.625544330080    12.000000000000
         C            0.738097806609     1.563386821216     0.123880330080    12.000000000000
         C            1.915765806609    -1.122261178784    -0.040142669920    12.000000000000
         C           -2.483991193391    -0.435109178784     0.237022330080    12.000000000000
         H           -0.076025193391    -1.795959178784     0.381161330080     1.007825032230
         H            0.665482806609    -0.817168178784     1.648457330080     1.007825032230
         H           -1.828207193391     1.595656821216     0.280096330080     1.007825032230
         H           -1.379891193391     0.637839821216     1.715497330080     1.007825032230
         H           -0.048107193391     0.893283821216    -1.874255669920     1.007825032230
         H            1.689853806609     2.568088821216     1.390198330080     1.007825032230
         H            3.193341806609    -2.448311178784    -0.392774669920     1.007825032230
         H           -4.048421193391    -0.682623178784    -0.763931669920     1.007825032230

  Basis Set: AUG-CC-PVTZ
    Blend: AUG-CC-PVTZ
  Basis Set: (AUG-CC-PVTZ AUX)
    Blend: AUG-CC-PVTZ-JKFIT
	 Reference Energy          =    -756.2578535750972151 [Eh]
	 Singles Energy            =      -0.0000000000000000 [Eh]
	 Same-Spin Energy          =      -0.7306272487118948 [Eh]
	 Opposite-Spin Energy      =      -2.1617301902360322 [Eh]
	 Correlation Energy        =      -2.8923574389479270 [Eh]
	 Total Energy              =    -759.1502110140451123 [Eh]

	 ================> DF-SCS-MP2 Energies <==================
	-----------------------------------------------------------
	 SCS Same-Spin Scale       =       0.3333333333333333 [-]
	 SCS Opposite-Spin Scale   =       1.2000000000000000 [-]
	 SCS Same-Spin Energy      =      -0.2435424162372982 [Eh]
	 SCS Opposite-Spin Energy  =      -2.5940762282832384 [Eh]
	 SCS Correlation Energy    =      -2.8376186445205365 [Eh]
	 SCS Total Energy          =    -759.0954722196177045 [Eh]
	-----------------------------------------------------------

  Dipole Moment: [D]
     X:    -0.1049      Y:     0.6880      Z:     1.8444     Total:     1.9713

*** Psi4 exiting successfully. Buy a developer a beer!
