                               Psi4 1.3.2 release

  ==> Input File <==

--------------------------------------------------------------------------
#psi4
#
memory 32 gb

molecule  {
0 1
  O       -0.2992330     0.0680890    -1.4276520
  O        1.1877390     1.7321380     1.3773370
  O        0.8946576     2.3621305    -0.7981038
  O        2.2997900    -2.4217320    -0.0198770
  O       -3.4576290     0.0760600    -0.5562400
  O        2.6367540    -0.2338110    -0.4932570
  O       -2.4353810    -1.6060190     0.5619510
  C       -0.1069590     0.3116290    -0.0442930
  C        0.5596730    -0.9208470     0.5522810
  C       -1.4701600     0.6204770     0.6141540
  C        0.7459700     1.5647750     0.1124900
  C        1.9236380    -1.1208730    -0.0515330
  C       -2.4761190    -0.4337210     0.2256320
  H       -0.0681530    -1.7945710     0.3697710
  H        0.6733550    -0.8157800     1.6370670
  H       -1.8203350     1.5970450     0.2687060
  H       -1.3720190     0.6392280     1.7041070
  H       -0.0402350     0.8946720    -1.8856460
  H        1.6977260     2.5694770     1.3788080
  H        3.2012140    -2.4469230    -0.4041650
  H       -4.0405490    -0.6812350    -0.7753220
units angstrom
no_reorient  #important for SAPT in psi4, default
symmetry c1  #important for SAPT in psi4, default
}

set PROPERTIES_ORIGIN ["COM"]
properties('MP2/aug-cc-pvtz', properties = ['dipole'])
--------------------------------------------------------------------------

    Molecular point group: c1
  Charge       = 0
  Multiplicity = 1
  Basis Set: AUG-CC-PVTZ
    Blend: AUG-CC-PVTZ
  Basis Set: (AUG-CC-PVTZ AUX)
    Blend: AUG-CC-PVTZ-JKFIT

    Orbital Energies [Eh]
    ---------------------

    Doubly Occupied:

       1A    -20.640017     2A    -20.626628     3A    -20.624881
       4A    -20.577234     5A    -20.571871     6A    -20.562340
       7A    -20.560898     8A    -11.411885     9A    -11.406001
      10A    -11.402225    11A    -11.339757    12A    -11.272957
      13A    -11.261650    14A     -1.486001    15A     -1.472158
      16A     -1.470072    17A     -1.399605    18A     -1.372621
      19A     -1.368481    20A     -1.366280    21A     -1.116541
      22A     -1.038655    23A     -0.952485    24A     -0.853315
      25A     -0.830089    26A     -0.795433    27A     -0.760286
      28A     -0.728629    29A     -0.718327    30A     -0.716013
      31A     -0.704965    32A     -0.690927    33A     -0.668919
      34A     -0.653918    35A     -0.644762    36A     -0.638120
      37A     -0.622705    38A     -0.604313    39A     -0.595159
      40A     -0.580233    41A     -0.561798    42A     -0.558876
      43A     -0.545385    44A     -0.506786    45A     -0.494770
      46A     -0.490470    47A     -0.485892    48A     -0.471503
      49A     -0.465323    50A     -0.452238

  @DF-RHF Final Energy:  -756.25785529731820

   => Energetics <=

    Nuclear Repulsion Energy =            874.8567123660983498
    One-Electron Energy =               -2777.9483352530742195
    Two-Electron Energy =                1146.8337675896577821
    Total Energy =                       -756.2578552973182013
  Basis Set: (AUG-CC-PVTZ AUX)
    Blend: AUG-CC-PVTZ-RI
    Molecular point group: c1

    Geometry (in Angstrom), charge = 0, multiplicity = 1:

       Center              X                  Y                   Z               Mass
    ------------   -----------------  -----------------  -----------------  -----------------
         O           -0.307318503895     0.068876906552    -1.414786463146    15.994914619570
         O            1.179653496105     1.732925906552     1.390202536854    15.994914619570
         O            0.886572096105     2.362918406552    -0.785238263146    15.994914619570
         O            2.291704496105    -2.420944093448    -0.007011463146    15.994914619570
         O           -3.465714503895     0.076847906552    -0.543374463146    15.994914619570
         O            2.628668496105    -0.233023093448    -0.480391463146    15.994914619570
         O           -2.443466503895    -1.605231093448     0.574816536854    15.994914619570
         C           -0.115044503895     0.312416906552    -0.031427463146    12.000000000000
         C            0.551587496105    -0.920059093448     0.565146536854    12.000000000000
         C           -1.478245503895     0.621264906552     0.627019536854    12.000000000000
         C            0.737884496105     1.565562906552     0.125355536854    12.000000000000
         C            1.915552496105    -1.120085093448    -0.038667463146    12.000000000000
         C           -2.484204503895    -0.432933093448     0.238497536854    12.000000000000
         H           -0.076238503895    -1.793783093448     0.382636536854     1.007825032230
         H            0.665269496105    -0.814992093448     1.649932536854     1.007825032230
         H           -1.828420503895     1.597832906552     0.281571536854     1.007825032230
         H           -1.380104503895     0.640015906552     1.716972536854     1.007825032230
         H           -0.048320503895     0.895459906552    -1.872780463146     1.007825032230
         H            1.689640496105     2.570264906552     1.391673536854     1.007825032230
         H            3.193128496105    -2.446135093448    -0.391299463146     1.007825032230
         H           -4.048634503895    -0.680447093448    -0.762456463146     1.007825032230

  Basis Set: AUG-CC-PVTZ
    Blend: AUG-CC-PVTZ
  Basis Set: (AUG-CC-PVTZ AUX)
    Blend: AUG-CC-PVTZ-JKFIT
	 Reference Energy          =    -756.2578552973182013 [Eh]
	 Singles Energy            =      -0.0000000000000000 [Eh]
	 Same-Spin Energy          =      -0.7306270282004349 [Eh]
	 Opposite-Spin Energy      =      -2.1616954520727028 [Eh]
	 Correlation Energy        =      -2.8923224802731378 [Eh]
	 Total Energy              =    -759.1501777775913524 [Eh]

	 ================> DF-SCS-MP2 Energies <==================
	-----------------------------------------------------------
	 SCS Same-Spin Scale       =       0.3333333333333333 [-]
	 SCS Opposite-Spin Scale   =       1.2000000000000000 [-]
	 SCS Same-Spin Energy      =      -0.2435423427334783 [Eh]
	 SCS Opposite-Spin Energy  =      -2.5940345424872433 [Eh]
	 SCS Correlation Energy    =      -2.8375768852207215 [Eh]
	 SCS Total Energy          =    -759.0954321825389570 [Eh]
	-----------------------------------------------------------

  Dipole Moment: [D]
     X:    -0.1285      Y:     0.7881      Z:     1.8914     Total:     2.0531

*** Psi4 exiting successfully. Buy a developer a beer!
