                               Psi4 1.3.2 release

  ==> Input File <==

--------------------------------------------------------------------------
#psi4
#
memory 32 gb

molecule  {
0 1
  O       -0.2992330     0.0680890    -1.4276520
  O        1.1877390     1.7321380     1.3773370
  O        0.9070540     2.3739560    -0.7854760
  O        2.2997900    -2.4217320    -0.0198770
  O       -3.4576290     0.0760600    -0.5562400
  O        2.6367540    -0.2338110    -0.4932570
  O       -2.4353810    -1.6060190     0.5619510
  C       -0.1069590     0.3116290    -0.0442930
  C        0.5596730    -0.9208470     0.5522810
  C       -1.4701600     0.6204770     0.6141540
  C        0.7459700     1.5647750     0.1124900
  C        1.9082398    -1.1681963    -0.0683543
  C       -2.4761190    -0.4337210     0.2256320
  H       -0.0681530    -1.7945710     0.3697710
  H        0.6733550    -0.8157800     1.6370670
  H       -1.8203350     1.5970450     0.2687060
  H       -1.3720190     0.6392280     1.7041070
  H       -0.0402350     0.8946720    -1.8856460
  H        1.6977260     2.5694770     1.3788080
  H        3.2012140    -2.4469230    -0.4041650
  H       -4.0405490    -0.6812350    -0.7753220
units angstrom
no_reorient  #important for SAPT in psi4, default
symmetry c1  #important for SAPT in psi4, default
}

set PROPERTIES_ORIGIN ["COM"]
properties('MP2/aug-cc-pvtz', properties = ['dipole'])
--------------------------------------------------------------------------

    Molecular point group: c1
  Charge       = 0
  Multiplicity = 1
  Basis Set: AUG-CC-PVTZ
    Blend: AUG-CC-PVTZ
  Basis Set: (AUG-CC-PVTZ AUX)
    Blend: AUG-CC-PVTZ-JKFIT

    Orbital Energies [Eh]
    ---------------------

    Doubly Occupied:

       1A    -20.637143     2A    -20.635967     3A    -20.626673
       4A    -20.577249     5A    -20.569072     6A    -20.562375
       7A    -20.552173     8A    -11.409668     9A    -11.406030
      10A    -11.404863    11A    -11.340246    12A    -11.272961
      13A    -11.262361    14A     -1.486091    15A     -1.481738
      16A     -1.472185    17A     -1.397703    18A     -1.370416
      19A     -1.367948    20A     -1.349074    21A     -1.116067
      22A     -1.039082    23A     -0.953524    24A     -0.859611
      25A     -0.834337    26A     -0.797550    27A     -0.759017
      28A     -0.727652    29A     -0.718021    30A     -0.716872
      31A     -0.704400    32A     -0.691925    33A     -0.670225
      34A     -0.657144    35A     -0.643865    36A     -0.637745
      37A     -0.621917    38A     -0.601920    39A     -0.596219
      40A     -0.574205    41A     -0.563388    42A     -0.558659
      43A     -0.545087    44A     -0.503331    45A     -0.494394
      46A     -0.484866    47A     -0.478788    48A     -0.469641
      49A     -0.462873    50A     -0.450715

  @DF-RHF Final Energy:  -756.25312903216991

   => Energetics <=

    Nuclear Repulsion Energy =            874.3326495955034261
    One-Electron Energy =               -2776.9416015906472239
    Two-Electron Energy =                1146.3558229629738889
    Total Energy =                       -756.2531290321699089
  Basis Set: (AUG-CC-PVTZ AUX)
    Blend: AUG-CC-PVTZ-RI
    Molecular point group: c1

    Geometry (in Angstrom), charge = 0, multiplicity = 1:

       Center              X                  Y                   Z               Mass
    ------------   -----------------  -----------------  -----------------  -----------------
         O           -0.307388811505     0.070849190304    -1.414787114007    15.994914619570
         O            1.179583188495     1.734898190304     1.390201885993    15.994914619570
         O            0.898898188495     2.376716190304    -0.772611114007    15.994914619570
         O            2.291634188495    -2.418971809696    -0.007012114007    15.994914619570
         O           -3.465784811505     0.078820190304    -0.543375114007    15.994914619570
         O            2.628598188495    -0.231050809696    -0.480392114007    15.994914619570
         O           -2.443536811505    -1.603258809696     0.574815885993    15.994914619570
         C           -0.115114811505     0.314389190304    -0.031428114007    12.000000000000
         C            0.551517188495    -0.918086809696     0.565145885993    12.000000000000
         C           -1.478315811505     0.623237190304     0.627018885993    12.000000000000
         C            0.737814188495     1.567535190304     0.125354885993    12.000000000000
         C            1.900083988495    -1.165436109696    -0.055489414007    12.000000000000
         C           -2.484274811505    -0.430960809696     0.238496885993    12.000000000000
         H           -0.076308811505    -1.791810809696     0.382635885993     1.007825032230
         H            0.665199188495    -0.813019809696     1.649931885993     1.007825032230
         H           -1.828490811505     1.599805190304     0.281570885993     1.007825032230
         H           -1.380174811505     0.641988190304     1.716971885993     1.007825032230
         H           -0.048390811505     0.897432190304    -1.872781114007     1.007825032230
         H            1.689570188495     2.572237190304     1.391672885993     1.007825032230
         H            3.193058188495    -2.444162809696    -0.391300114007     1.007825032230
         H           -4.048704811505    -0.678474809696    -0.762457114007     1.007825032230

  Basis Set: AUG-CC-PVTZ
    Blend: AUG-CC-PVTZ
  Basis Set: (AUG-CC-PVTZ AUX)
    Blend: AUG-CC-PVTZ-JKFIT
	 Reference Energy          =    -756.2531290321699089 [Eh]
	 Singles Energy            =      -0.0000000000000000 [Eh]
	 Same-Spin Energy          =      -0.7310006109441727 [Eh]
	 Opposite-Spin Energy      =      -2.1622623966638521 [Eh]
	 Correlation Energy        =      -2.8932630076080246 [Eh]
	 Total Energy              =    -759.1463920397778793 [Eh]

	 ================> DF-SCS-MP2 Energies <==================
	-----------------------------------------------------------
	 SCS Same-Spin Scale       =       0.3333333333333333 [-]
	 SCS Opposite-Spin Scale   =       1.2000000000000000 [-]
	 SCS Same-Spin Energy      =      -0.2436668703147242 [Eh]
	 SCS Opposite-Spin Energy  =      -2.5947148759966225 [Eh]
	 SCS Correlation Energy    =      -2.8383817463113470 [Eh]
	 SCS Total Energy          =    -759.0915107784812790 [Eh]
	-----------------------------------------------------------

  Dipole Moment: [D]
     X:    -0.1479      Y:     0.3558      Z:     1.8827     Total:     1.9217

*** Psi4 exiting successfully. Buy a developer a beer!
