                               Psi4 1.3.2 release

  ==> Input File <==

--------------------------------------------------------------------------
#psi4
#
memory 32 gb

molecule  {
0 1
  O       -0.2992330     0.0680890    -1.4276520
  O        1.1877390     1.7321380     1.3773370
  O        0.9070540     2.3739560    -0.7854760
  O        2.2997900    -2.4217320    -0.0198770
  O       -3.4576290     0.0760600    -0.5562400
  O        2.6367540    -0.2338110    -0.4932570
  O       -2.4353810    -1.6060190     0.5619510
  C       -0.1069590     0.3116290    -0.0442930
  C        0.5596730    -0.9208470     0.5522810
  C       -1.4701600     0.6204770     0.6141540
  C        0.7327605     1.4984189     0.1861268
  C        1.9236380    -1.1208730    -0.0515330
  C       -2.4761190    -0.4337210     0.2256320
  H       -0.0681530    -1.7945710     0.3697710
  H        0.6733550    -0.8157800     1.6370670
  H       -1.8203350     1.5970450     0.2687060
  H       -1.3720190     0.6392280     1.7041070
  H       -0.0402350     0.8946720    -1.8856460
  H        1.6977260     2.5694770     1.3788080
  H        3.2012140    -2.4469230    -0.4041650
  H       -4.0405490    -0.6812350    -0.7753220
units angstrom
no_reorient  #important for SAPT in psi4, default
symmetry c1  #important for SAPT in psi4, default
}

set PROPERTIES_ORIGIN ["COM"]
properties('MP2/aug-cc-pvtz', properties = ['dipole'])
--------------------------------------------------------------------------

    Molecular point group: c1
  Charge       = 0
  Multiplicity = 1
  Basis Set: AUG-CC-PVTZ
    Blend: AUG-CC-PVTZ
  Basis Set: (AUG-CC-PVTZ AUX)
    Blend: AUG-CC-PVTZ-JKFIT

    Orbital Energies [Eh]
    ---------------------

    Doubly Occupied:

       1A    -20.654769     2A    -20.628424     3A    -20.626728
       4A    -20.579997     5A    -20.564717     6A    -20.563056
       7A    -20.551317     8A    -11.419097     9A    -11.408584
      10A    -11.404555    11A    -11.343235    12A    -11.277319
      13A    -11.265628    14A     -1.503331    15A     -1.474250
      16A     -1.472384    17A     -1.397495    18A     -1.370769
      19A     -1.368973    20A     -1.317262    21A     -1.127602
      22A     -1.042890    23A     -0.969678    24A     -0.865740
      25A     -0.833611    26A     -0.808249    27A     -0.767658
      28A     -0.728580    29A     -0.720164    30A     -0.718150
      31A     -0.707793    32A     -0.692387    33A     -0.671707
      34A     -0.659031    35A     -0.644476    36A     -0.636821
      37A     -0.613465    38A     -0.605213    39A     -0.596449
      40A     -0.581682    41A     -0.565135    42A     -0.563289
      43A     -0.536620    44A     -0.497517    45A     -0.493329
      46A     -0.480486    47A     -0.477952    48A     -0.472657
      49A     -0.460305    50A     -0.450309

  @DF-RHF Final Energy:  -756.23506927932681

   => Energetics <=

    Nuclear Repulsion Energy =            875.1877808988713241
    One-Electron Energy =               -2778.4840266864948717
    Two-Electron Energy =                1147.0611765082967395
    Total Energy =                       -756.2350692793268081
  Basis Set: (AUG-CC-PVTZ AUX)
    Blend: AUG-CC-PVTZ-RI
    Molecular point group: c1

    Geometry (in Angstrom), charge = 0, multiplicity = 1:

       Center              X                  Y                   Z               Mass
    ------------   -----------------  -----------------  -----------------  -----------------
         O           -0.307525586019     0.072038573031    -1.420439950251    15.994914619570
         O            1.179446413981     1.736087573031     1.384549049749    15.994914619570
         O            0.898761413981     2.377905573031    -0.778263950251    15.994914619570
         O            2.291497413981    -2.417782426969    -0.012664950251    15.994914619570
         O           -3.465921586019     0.080009573031    -0.549027950251    15.994914619570
         O            2.628461413981    -0.229861426969    -0.486044950251    15.994914619570
         O           -2.443673586019    -1.602069426969     0.569163049749    15.994914619570
         C           -0.115251586019     0.315578573031    -0.037080950251    12.000000000000
         C            0.551380413981    -0.916897426969     0.559493049749    12.000000000000
         C           -1.478452586019     0.624426573031     0.621366049749    12.000000000000
         C            0.724467913981     1.502368473031     0.193338849749    12.000000000000
         C            1.915345413981    -1.116923426969    -0.044320950251    12.000000000000
         C           -2.484411586019    -0.429771426969     0.232844049749    12.000000000000
         H           -0.076445586019    -1.790621426969     0.376983049749     1.007825032230
         H            0.665062413981    -0.811830426969     1.644279049749     1.007825032230
         H           -1.828627586019     1.600994573031     0.275918049749     1.007825032230
         H           -1.380311586019     0.643177573031     1.711319049749     1.007825032230
         H           -0.048527586019     0.898621573031    -1.878433950251     1.007825032230
         H            1.689433413981     2.573426573031     1.386020049749     1.007825032230
         H            3.192921413981    -2.442973426969    -0.396952950251     1.007825032230
         H           -4.048841586019    -0.677285426969    -0.768109950251     1.007825032230

  Basis Set: AUG-CC-PVTZ
    Blend: AUG-CC-PVTZ
  Basis Set: (AUG-CC-PVTZ AUX)
    Blend: AUG-CC-PVTZ-JKFIT
	 Reference Energy          =    -756.2350692793268081 [Eh]
	 Singles Energy            =      -0.0000000000000000 [Eh]
	 Same-Spin Energy          =      -0.7329622849983315 [Eh]
	 Opposite-Spin Energy      =      -2.1655724292024248 [Eh]
	 Correlation Energy        =      -2.8985347142007560 [Eh]
	 Total Energy              =    -759.1336039935275721 [Eh]

	 ================> DF-SCS-MP2 Energies <==================
	-----------------------------------------------------------
	 SCS Same-Spin Scale       =       0.3333333333333333 [-]
	 SCS Opposite-Spin Scale   =       1.2000000000000000 [-]
	 SCS Same-Spin Energy      =      -0.2443207616661105 [Eh]
	 SCS Opposite-Spin Energy  =      -2.5986869150429097 [Eh]
	 SCS Correlation Energy    =      -2.8430076767090204 [Eh]
	 SCS Total Energy          =    -759.0780769560358294 [Eh]
	-----------------------------------------------------------

  Dipole Moment: [D]
     X:    -0.1921      Y:     0.4141      Z:     2.3749     Total:     2.4184

*** Psi4 exiting successfully. Buy a developer a beer!
