                               Psi4 1.3.2 release

  ==> Input File <==

--------------------------------------------------------------------------
#psi4
#
memory 32 gb

molecule  {
0 1
  O       -0.2992330     0.0680890    -1.4276520
  O        1.1877390     1.7321380     1.3773370
  O        0.9070540     2.3739560    -0.7854760
  O        2.2997900    -2.4217320    -0.0198770
  O       -3.4576290     0.0760600    -0.5562400
  O        2.6367540    -0.2338110    -0.4932570
  O       -2.4353810    -1.6060190     0.5619510
  C       -0.0933969     0.3288071     0.0532825
  C        0.5596730    -0.9208470     0.5522810
  C       -1.4701600     0.6204770     0.6141540
  C        0.7459700     1.5647750     0.1124900
  C        1.9236380    -1.1208730    -0.0515330
  C       -2.4761190    -0.4337210     0.2256320
  H       -0.0681530    -1.7945710     0.3697710
  H        0.6733550    -0.8157800     1.6370670
  H       -1.8203350     1.5970450     0.2687060
  H       -1.3720190     0.6392280     1.7041070
  H       -0.0402350     0.8946720    -1.8856460
  H        1.6977260     2.5694770     1.3788080
  H        3.2012140    -2.4469230    -0.4041650
  H       -4.0405490    -0.6812350    -0.7753220
units angstrom
no_reorient  #important for SAPT in psi4, default
symmetry c1  #important for SAPT in psi4, default
}

set PROPERTIES_ORIGIN ["COM"]
properties('MP2/aug-cc-pvtz', properties = ['dipole'])
--------------------------------------------------------------------------

    Molecular point group: c1
  Charge       = 0
  Multiplicity = 1
  Basis Set: AUG-CC-PVTZ
    Blend: AUG-CC-PVTZ
  Basis Set: (AUG-CC-PVTZ AUX)
    Blend: AUG-CC-PVTZ-JKFIT

    Orbital Energies [Eh]
    ---------------------

    Doubly Occupied:

       1A    -20.638386     2A    -20.627896     3A    -20.626300
       4A    -20.574310     5A    -20.566684     6A    -20.563933
       7A    -20.561749     8A    -11.414646     9A    -11.408855
      10A    -11.404495    11A    -11.341404    12A    -11.277081
      13A    -11.265224    14A     -1.487739    15A     -1.473445
      16A     -1.471299    17A     -1.386806    18A     -1.370386
      19A     -1.368988    20A     -1.347568    21A     -1.128356
      22A     -1.044420    23A     -0.962346    24A     -0.857239
      25A     -0.834496    26A     -0.789665    27A     -0.750355
      28A     -0.730631    29A     -0.718989    30A     -0.717170
      31A     -0.705492    32A     -0.691722    33A     -0.667434
      34A     -0.656695    35A     -0.640879    36A     -0.637564
      37A     -0.623484    38A     -0.602641    39A     -0.595556
      40A     -0.579693    41A     -0.566577    42A     -0.553129
      43A     -0.531528    44A     -0.507123    45A     -0.493739
      46A     -0.492267    47A     -0.489103    48A     -0.473324
      49A     -0.468210    50A     -0.457048

  @DF-RHF Final Energy:  -756.24576159612695

   => Energetics <=

    Nuclear Repulsion Energy =            874.3798859340886338
    One-Electron Energy =               -2776.9631534958998600
    Two-Electron Energy =                1146.3375059656841586
    Total Energy =                       -756.2457615961270676
  Basis Set: (AUG-CC-PVTZ AUX)
    Blend: AUG-CC-PVTZ-RI
    Molecular point group: c1

    Geometry (in Angstrom), charge = 0, multiplicity = 1:

       Center              X                  Y                   Z               Mass
    ------------   -----------------  -----------------  -----------------  -----------------
         O           -0.309198575733     0.066818419685    -1.421935908611    15.994914619570
         O            1.177773424267     1.730867419685     1.383053091389    15.994914619570
         O            0.897088424267     2.372685419685    -0.779759908611    15.994914619570
         O            2.289824424267    -2.423002580315    -0.014160908611    15.994914619570
         O           -3.467594575733     0.074789419685    -0.550523908611    15.994914619570
         O            2.626788424267    -0.235081580315    -0.487540908611    15.994914619570
         O           -2.445346575733    -1.607289580315     0.567667091389    15.994914619570
         C           -0.103362475733     0.327536519685     0.058998591389    12.000000000000
         C            0.549707424267    -0.922117580315     0.557997091389    12.000000000000
         C           -1.480125575733     0.619206419685     0.619870091389    12.000000000000
         C            0.736004424267     1.563504419685     0.118206091389    12.000000000000
         C            1.913672424267    -1.122143580315    -0.045816908611    12.000000000000
         C           -2.486084575733    -0.434991580315     0.231348091389    12.000000000000
         H           -0.078118575733    -1.795841580315     0.375487091389     1.007825032230
         H            0.663389424267    -0.817050580315     1.642783091389     1.007825032230
         H           -1.830300575733     1.595774419685     0.274422091389     1.007825032230
         H           -1.381984575733     0.637957419685     1.709823091389     1.007825032230
         H           -0.050200575733     0.893401419685    -1.879929908611     1.007825032230
         H            1.687760424267     2.568206419685     1.384524091389     1.007825032230
         H            3.191248424267    -2.448193580315    -0.398448908611     1.007825032230
         H           -4.050514575733    -0.682505580315    -0.769605908611     1.007825032230

  Basis Set: AUG-CC-PVTZ
    Blend: AUG-CC-PVTZ
  Basis Set: (AUG-CC-PVTZ AUX)
    Blend: AUG-CC-PVTZ-JKFIT
	 Reference Energy          =    -756.2457615961269539 [Eh]
	 Singles Energy            =      -0.0000000000000000 [Eh]
	 Same-Spin Energy          =      -0.7314935875490686 [Eh]
	 Opposite-Spin Energy      =      -2.1647245965351494 [Eh]
	 Correlation Energy        =      -2.8962181840842178 [Eh]
	 Total Energy              =    -759.1419797802111589 [Eh]

	 ================> DF-SCS-MP2 Energies <==================
	-----------------------------------------------------------
	 SCS Same-Spin Scale       =       0.3333333333333333 [-]
	 SCS Opposite-Spin Scale   =       1.2000000000000000 [-]
	 SCS Same-Spin Energy      =      -0.2438311958496895 [Eh]
	 SCS Opposite-Spin Energy  =      -2.5976695158421790 [Eh]
	 SCS Correlation Energy    =      -2.8415007116918685 [Eh]
	 SCS Total Energy          =    -759.0872623078188326 [Eh]
	-----------------------------------------------------------

  Dipole Moment: [D]
     X:    -0.1696      Y:     0.7495      Z:     2.1023     Total:     2.2383

*** Psi4 exiting successfully. Buy a developer a beer!
