                               Psi4 1.3.2 release

  ==> Input File <==

--------------------------------------------------------------------------
#psi4
#
memory 32 gb

molecule  {
0 1
  O       -0.2992330     0.0680890    -1.4276520
  O        1.1877390     1.7321380     1.3773370
  O        0.9070540     2.3739560    -0.7854760
  O        2.2790196    -2.4272839    -0.0100464
  O       -3.4576290     0.0760600    -0.5562400
  O        2.6367540    -0.2338110    -0.4932570
  O       -2.4353810    -1.6060190     0.5619510
  C       -0.1069590     0.3116290    -0.0442930
  C        0.5596730    -0.9208470     0.5522810
  C       -1.4701600     0.6204770     0.6141540
  C        0.7459700     1.5647750     0.1124900
  C        1.9236380    -1.1208730    -0.0515330
  C       -2.4761190    -0.4337210     0.2256320
  H       -0.0681530    -1.7945710     0.3697710
  H        0.6733550    -0.8157800     1.6370670
  H       -1.8203350     1.5970450     0.2687060
  H       -1.3720190     0.6392280     1.7041070
  H       -0.0402350     0.8946720    -1.8856460
  H        1.6977260     2.5694770     1.3788080
  H        3.2012140    -2.4469230    -0.4041650
  H       -4.0405490    -0.6812350    -0.7753220
units angstrom
no_reorient  #important for SAPT in psi4, default
symmetry c1  #important for SAPT in psi4, default
}

set PROPERTIES_ORIGIN ["COM"]
properties('MP2/aug-cc-pvtz', properties = ['dipole'])
--------------------------------------------------------------------------

    Molecular point group: c1
  Charge       = 0
  Multiplicity = 1
  Basis Set: AUG-CC-PVTZ
    Blend: AUG-CC-PVTZ
  Basis Set: (AUG-CC-PVTZ AUX)
    Blend: AUG-CC-PVTZ-JKFIT

    Orbital Energies [Eh]
    ---------------------

    Doubly Occupied:

       1A    -20.638091     2A    -20.628089     3A    -20.626726
       4A    -20.578069     5A    -20.571232     6A    -20.562433
       7A    -20.562140     8A    -11.411294     9A    -11.406098
      10A    -11.402441    11A    -11.340254    12A    -11.273043
      13A    -11.261014    14A     -1.485507    15A     -1.472251
      16A     -1.468248    17A     -1.398848    18A     -1.372138
      19A     -1.368564    20A     -1.366469    21A     -1.116562
      22A     -1.038273    23A     -0.952060    24A     -0.851480
      25A     -0.828208    26A     -0.794075    27A     -0.759553
      28A     -0.727990    29A     -0.718237    30A     -0.715326
      31A     -0.704997    32A     -0.690780    33A     -0.668954
      34A     -0.653699    35A     -0.644292    36A     -0.637789
      37A     -0.622125    38A     -0.604798    39A     -0.595045
      40A     -0.580573    41A     -0.561601    42A     -0.558616
      43A     -0.545501    44A     -0.505851    45A     -0.494956
      46A     -0.491313    47A     -0.485736    48A     -0.471930
      49A     -0.465412    50A     -0.452370

  @DF-RHF Final Energy:  -756.25568441683174

   => Energetics <=

    Nuclear Repulsion Energy =            874.6885608112730779
    One-Electron Energy =               -2777.6263938900283392
    Two-Electron Energy =                1146.6821486619237476
    Total Energy =                       -756.2556844168316275
  Basis Set: (AUG-CC-PVTZ AUX)
    Blend: AUG-CC-PVTZ-RI
    Molecular point group: c1

    Geometry (in Angstrom), charge = 0, multiplicity = 1:

       Center              X                  Y                   Z               Mass
    ------------   -----------------  -----------------  -----------------  -----------------
         O           -0.306620990456     0.068354346208    -1.416657138549    15.994914619570
         O            1.180351009544     1.732403346208     1.388331861451    15.994914619570
         O            0.899666009544     2.374221346208    -0.774481138549    15.994914619570
         O            2.271631609544    -2.427018553792     0.000948461451    15.994914619570
         O           -3.465016990456     0.076325346208    -0.545245138549    15.994914619570
         O            2.629366009544    -0.233545653792    -0.482262138549    15.994914619570
         O           -2.442768990456    -1.605753653792     0.572945861451    15.994914619570
         C           -0.114346990456     0.311894346208    -0.033298138549    12.000000000000
         C            0.552285009544    -0.920581653792     0.563275861451    12.000000000000
         C           -1.477547990456     0.620742346208     0.625148861451    12.000000000000
         C            0.738582009544     1.565040346208     0.123484861451    12.000000000000
         C            1.916250009544    -1.120607653792    -0.040538138549    12.000000000000
         C           -2.483506990456    -0.433455653792     0.236626861451    12.000000000000
         H           -0.075540990456    -1.794305653792     0.380765861451     1.007825032230
         H            0.665967009544    -0.815514653792     1.648061861451     1.007825032230
         H           -1.827722990456     1.597310346208     0.279700861451     1.007825032230
         H           -1.379406990456     0.639493346208     1.715101861451     1.007825032230
         H           -0.047622990456     0.894937346208    -1.874651138549     1.007825032230
         H            1.690338009544     2.569742346208     1.389802861451     1.007825032230
         H            3.193826009544    -2.446657653792    -0.393170138549     1.007825032230
         H           -4.047936990456    -0.680969653792    -0.764327138549     1.007825032230

  Basis Set: AUG-CC-PVTZ
    Blend: AUG-CC-PVTZ
  Basis Set: (AUG-CC-PVTZ AUX)
    Blend: AUG-CC-PVTZ-JKFIT
	 Reference Energy          =    -756.2556844168317411 [Eh]
	 Singles Energy            =      -0.0000000000000000 [Eh]
	 Same-Spin Energy          =      -0.7309976469145724 [Eh]
	 Opposite-Spin Energy      =      -2.1625772830076926 [Eh]
	 Correlation Energy        =      -2.8935749299222651 [Eh]
	 Total Energy              =    -759.1492593467539791 [Eh]

	 ================> DF-SCS-MP2 Energies <==================
	-----------------------------------------------------------
	 SCS Same-Spin Scale       =       0.3333333333333333 [-]
	 SCS Opposite-Spin Scale   =       1.2000000000000000 [-]
	 SCS Same-Spin Energy      =      -0.2436658823048574 [Eh]
	 SCS Opposite-Spin Energy  =      -2.5950927396092309 [Eh]
	 SCS Correlation Energy    =      -2.8387586219140886 [Eh]
	 SCS Total Energy          =    -759.0944430387457942 [Eh]
	-----------------------------------------------------------

  Dipole Moment: [D]
     X:    -0.1230      Y:     0.7238      Z:     1.8471     Total:     1.9877

*** Psi4 exiting successfully. Buy a developer a beer!
