                               Psi4 1.3.2 release

  ==> Input File <==

--------------------------------------------------------------------------
#psi4
#
memory 32 gb

molecule  {
0 1
  O       -0.2992330     0.0680890    -1.4276520
  O        1.2096378     1.7715423     1.3635966
  O        0.9070540     2.3739560    -0.7854760
  O        2.2997900    -2.4217320    -0.0198770
  O       -3.4576290     0.0760600    -0.5562400
  O        2.6367540    -0.2338110    -0.4932570
  O       -2.4353810    -1.6060190     0.5619510
  C       -0.1069590     0.3116290    -0.0442930
  C        0.5596730    -0.9208470     0.5522810
  C       -1.4701600     0.6204770     0.6141540
  C        0.7459700     1.5647750     0.1124900
  C        1.9236380    -1.1208730    -0.0515330
  C       -2.4761190    -0.4337210     0.2256320
  H       -0.0681530    -1.7945710     0.3697710
  H        0.6733550    -0.8157800     1.6370670
  H       -1.8203350     1.5970450     0.2687060
  H       -1.3720190     0.6392280     1.7041070
  H       -0.0402350     0.8946720    -1.8856460
  H        1.6977260     2.5694770     1.3788080
  H        3.2012140    -2.4469230    -0.4041650
  H       -4.0405490    -0.6812350    -0.7753220
units angstrom
no_reorient  #important for SAPT in psi4, default
symmetry c1  #important for SAPT in psi4, default
}

set PROPERTIES_ORIGIN ["COM"]
properties('MP2/aug-cc-pvtz', properties = ['dipole'])
--------------------------------------------------------------------------

    Molecular point group: c1
  Charge       = 0
  Multiplicity = 1
  Basis Set: AUG-CC-PVTZ
    Blend: AUG-CC-PVTZ
  Basis Set: (AUG-CC-PVTZ AUX)
    Blend: AUG-CC-PVTZ-JKFIT

    Orbital Energies [Eh]
    ---------------------

    Doubly Occupied:

       1A    -20.631807     2A    -20.627489     3A    -20.625407
       4A    -20.579685     5A    -20.569276     6A    -20.563325
       7A    -20.561426     8A    -11.411555     9A    -11.407032
      10A    -11.402866    11A    -11.343089    12A    -11.274311
      13A    -11.263100    14A     -1.489731    15A     -1.473099
      16A     -1.470741    17A     -1.400907    18A     -1.372156
      19A     -1.369306    20A     -1.366855    21A     -1.118650
      22A     -1.039862    23A     -0.956300    24A     -0.858769
      25A     -0.831208    26A     -0.800564    27A     -0.763470
      28A     -0.727825    29A     -0.719189    30A     -0.716575
      31A     -0.705737    32A     -0.691731    33A     -0.670092
      34A     -0.653973    35A     -0.644440    36A     -0.638160
      37A     -0.622289    38A     -0.605395    39A     -0.595795
      40A     -0.581012    41A     -0.563197    42A     -0.560661
      43A     -0.546671    44A     -0.504531    45A     -0.495706
      46A     -0.490830    47A     -0.485760    48A     -0.472961
      49A     -0.466022    50A     -0.453453

  @DF-RHF Final Energy:  -756.25929013005441

   => Energetics <=

    Nuclear Repulsion Energy =            874.3004414765892989
    One-Electron Energy =               -2776.7514808849241490
    Two-Electron Energy =                1146.1917492782804402
    Total Energy =                       -756.2592901300545236
  Basis Set: (AUG-CC-PVTZ AUX)
    Blend: AUG-CC-PVTZ-RI
    Molecular point group: c1

    Geometry (in Angstrom), charge = 0, multiplicity = 1:

       Center              X                  Y                   Z               Mass
    ------------   -----------------  -----------------  -----------------  -----------------
         O           -0.310175127123     0.064609713574    -1.414693788982    15.994914619570
         O            1.198695672877     1.768063013574     1.376554811018    15.994914619570
         O            0.896111872877     2.370476713574    -0.772517788982    15.994914619570
         O            2.288847872877    -2.425211286426    -0.006918788982    15.994914619570
         O           -3.468571127123     0.072580713574    -0.543281788982    15.994914619570
         O            2.625811872877    -0.237290286426    -0.480298788982    15.994914619570
         O           -2.446323127123    -1.609498286426     0.574909211018    15.994914619570
         C           -0.117901127123     0.308149713574    -0.031334788982    12.000000000000
         C            0.548730872877    -0.924326286426     0.565239211018    12.000000000000
         C           -1.481102127123     0.616997713574     0.627112211018    12.000000000000
         C            0.735027872877     1.561295713574     0.125448211018    12.000000000000
         C            1.912695872877    -1.124352286426    -0.038574788982    12.000000000000
         C           -2.487061127123    -0.437200286426     0.238590211018    12.000000000000
         H           -0.079095127123    -1.798050286426     0.382729211018     1.007825032230
         H            0.662412872877    -0.819259286426     1.650025211018     1.007825032230
         H           -1.831277127123     1.593565713574     0.281664211018     1.007825032230
         H           -1.382961127123     0.635748713574     1.717065211018     1.007825032230
         H           -0.051177127123     0.891192713574    -1.872687788982     1.007825032230
         H            1.686783872877     2.565997713574     1.391766211018     1.007825032230
         H            3.190271872877    -2.450402286426    -0.391206788982     1.007825032230
         H           -4.051491127123    -0.684714286426    -0.762363788982     1.007825032230

  Basis Set: AUG-CC-PVTZ
    Blend: AUG-CC-PVTZ
  Basis Set: (AUG-CC-PVTZ AUX)
    Blend: AUG-CC-PVTZ-JKFIT
	 Reference Energy          =    -756.2592901300544099 [Eh]
	 Singles Energy            =      -0.0000000000000000 [Eh]
	 Same-Spin Energy          =      -0.7296769819332432 [Eh]
	 Opposite-Spin Energy      =      -2.1597777679942869 [Eh]
	 Correlation Energy        =      -2.8894547499275300 [Eh]
	 Total Energy              =    -759.1487448799819049 [Eh]

	 ================> DF-SCS-MP2 Energies <==================
	-----------------------------------------------------------
	 SCS Same-Spin Scale       =       0.3333333333333333 [-]
	 SCS Opposite-Spin Scale   =       1.2000000000000000 [-]
	 SCS Same-Spin Energy      =      -0.2432256606444144 [Eh]
	 SCS Opposite-Spin Energy  =      -2.5917333215931442 [Eh]
	 SCS Correlation Energy    =      -2.8349589822375587 [Eh]
	 SCS Total Energy          =    -759.0942491122920046 [Eh]
	-----------------------------------------------------------

  Dipole Moment: [D]
     X:    -0.2279      Y:     0.6530      Z:     1.8403     Total:     1.9660

*** Psi4 exiting successfully. Buy a developer a beer!
