                               Psi4 1.3.2 release

  ==> Input File <==

--------------------------------------------------------------------------
#psi4
#
memory 32 gb

molecule  {
0 1
  C        2.0758820     0.5154130     0.0236380
  C       -2.0758780     0.5154110    -0.0238690
  C        2.6506230    -0.9041080    -0.0207410
  C       -2.6506290    -0.9041030     0.0208000
  C        0.6115497     0.5160827    -0.0150567
  C       -0.6111930     0.5288790    -0.0068560
  H        2.4483192     1.0267127     0.9183219
  H        2.4505740     1.0933130    -0.8285660
  H       -2.4507270     1.0935130     0.8281640
  H       -2.4301040     1.0298680    -0.9240810
  H        3.7447110    -0.8839500    -0.0072080
  H        2.3293480    -1.4224940    -0.9268010
  H        2.3089360    -1.4861370     0.8379920
  H       -2.3086010    -1.4863500    -0.8376730
  H       -2.3296960    -1.4222450     0.9270980
  H       -3.7447120    -0.8839560     0.0068310
units angstrom
no_reorient  #important for SAPT in psi4, default
symmetry c1  #important for SAPT in psi4, default
}

set PROPERTIES_ORIGIN ["COM"]
properties('MP2/aug-cc-pvtz', properties = ['dipole'])
--------------------------------------------------------------------------

    Molecular point group: c1
  Charge       = 0
  Multiplicity = 1
  Basis Set: AUG-CC-PVTZ
    Blend: AUG-CC-PVTZ
  Basis Set: (AUG-CC-PVTZ AUX)
    Blend: AUG-CC-PVTZ-JKFIT

    Orbital Energies [Eh]
    ---------------------

    Doubly Occupied:

       1A    -11.246772     2A    -11.246569     3A    -11.220279
       4A    -11.219804     5A    -11.219651     6A    -11.216278
       7A     -1.080375     8A     -1.051827     9A     -0.967545
      10A     -0.878265    11A     -0.845417    12A     -0.664500
      13A     -0.627511    14A     -0.624223    15A     -0.615149
      16A     -0.545875    17A     -0.542477    18A     -0.517141
      19A     -0.513688    20A     -0.510008    21A     -0.501430
      22A     -0.356965    23A     -0.355764

  @DF-RHF Final Energy:  -233.05930470475440

   => Energetics <=

    Nuclear Repulsion Energy =            206.8315308568099908
    One-Electron Energy =                -722.6466442871202389
    Two-Electron Energy =                 282.7558087255558803
    Total Energy =                       -233.0593047047543678
  Basis Set: (AUG-CC-PVTZ AUX)
    Blend: AUG-CC-PVTZ-RI
    Molecular point group: c1

    Geometry (in Angstrom), charge = 0, multiplicity = 1:

       Center              X                  Y                   Z               Mass
    ------------   -----------------  -----------------  -----------------  -----------------
         C            2.075608531357     0.517325540869     0.026939542608    12.000000000000
         C           -2.076151468643     0.517323540869    -0.020567457392    12.000000000000
         C            2.650349531357    -0.902195459131    -0.017439457392    12.000000000000
         C           -2.650902468643    -0.902190459131     0.024101542608    12.000000000000
         C            0.611276231357     0.517995240869    -0.011755157392    12.000000000000
         C           -0.611466468643     0.530791540869    -0.003554457392    12.000000000000
         H            2.448045731357     1.028625240869     0.921623442608     1.007825032230
         H            2.450300531357     1.095225540869    -0.825264457392     1.007825032230
         H           -2.451000468643     1.095425540869     0.831465542608     1.007825032230
         H           -2.430377468643     1.031780540869    -0.920779457392     1.007825032230
         H            3.744437531357    -0.882037459131    -0.003906457392     1.007825032230
         H            2.329074531357    -1.420581459131    -0.923499457392     1.007825032230
         H            2.308662531357    -1.484224459131     0.841293542608     1.007825032230
         H           -2.308874468643    -1.484437459131    -0.834371457392     1.007825032230
         H           -2.329969468643    -1.420332459131     0.930399542608     1.007825032230
         H           -3.744985468643    -0.882043459131     0.010132542608     1.007825032230

  Basis Set: AUG-CC-PVTZ
    Blend: AUG-CC-PVTZ
  Basis Set: (AUG-CC-PVTZ AUX)
    Blend: AUG-CC-PVTZ-JKFIT
	 Reference Energy          =    -233.0593047047543962 [Eh]
	 Singles Energy            =      -0.0000000000000000 [Eh]
	 Same-Spin Energy          =      -0.2469932203857906 [Eh]
	 Opposite-Spin Energy      =      -0.8843587888659974 [Eh]
	 Correlation Energy        =      -1.1313520092517879 [Eh]
	 Total Energy              =    -234.1906567140061952 [Eh]

	 ================> DF-SCS-MP2 Energies <==================
	-----------------------------------------------------------
	 SCS Same-Spin Scale       =       0.3333333333333333 [-]
	 SCS Opposite-Spin Scale   =       1.2000000000000000 [-]
	 SCS Same-Spin Energy      =      -0.0823310734619302 [Eh]
	 SCS Opposite-Spin Energy  =      -1.0612305466391969 [Eh]
	 SCS Correlation Energy    =      -1.1435616201011272 [Eh]
	 SCS Total Energy          =    -234.2028663248555347 [Eh]
	-----------------------------------------------------------

  Dipole Moment: [D]
     X:    -0.0093      Y:    -0.0963      Z:     0.0170     Total:     0.0982

*** Psi4 exiting successfully. Buy a developer a beer!
