                               Psi4 1.3.2 release

  ==> Input File <==

--------------------------------------------------------------------------
#psi4
#
memory 32 gb

molecule  {
0 1
  C        2.0758820     0.5154130     0.0236380
  C       -2.0758780     0.5154110    -0.0238690
  C        2.5755129    -0.9321937    -0.0226257
  C       -2.6506290    -0.9041030     0.0208000
  C        0.6125282     0.4522504     0.0043317
  C       -0.6111930     0.5288790    -0.0068560
  H        2.4302800     1.0301000     0.9236910
  H        2.4505740     1.0933130    -0.8285660
  H       -2.4507270     1.0935130     0.8281640
  H       -2.4301040     1.0298680    -0.9240810
  H        3.7447110    -0.8839500    -0.0072080
  H        2.3293480    -1.4224940    -0.9268010
  H        2.3089360    -1.4861370     0.8379920
  H       -2.3086010    -1.4863500    -0.8376730
  H       -2.3296960    -1.4222450     0.9270980
  H       -3.7447120    -0.8839560     0.0068310
units angstrom
no_reorient  #important for SAPT in psi4, default
symmetry c1  #important for SAPT in psi4, default
}

set PROPERTIES_ORIGIN ["COM"]
properties('MP2/aug-cc-pvtz', properties = ['dipole'])
--------------------------------------------------------------------------

    Molecular point group: c1
  Charge       = 0
  Multiplicity = 1
  Basis Set: AUG-CC-PVTZ
    Blend: AUG-CC-PVTZ
  Basis Set: (AUG-CC-PVTZ AUX)
    Blend: AUG-CC-PVTZ-JKFIT

    Orbital Energies [Eh]
    ---------------------

    Doubly Occupied:

       1A    -11.247450     2A    -11.246625     3A    -11.220365
       4A    -11.220001     5A    -11.219515     6A    -11.216170
       7A     -1.081540     8A     -1.052992     9A     -0.965482
      10A     -0.877359    11A     -0.845545    12A     -0.665055
      13A     -0.630583    14A     -0.625352    15A     -0.618324
      16A     -0.546503    17A     -0.537800    18A     -0.521888
      19A     -0.516391    20A     -0.504768    21A     -0.496387
      22A     -0.355335    23A     -0.354370

  @DF-RHF Final Energy:  -233.05037566162878

   => Energetics <=

    Nuclear Repulsion Energy =            207.3320369831237429
    One-Electron Energy =                -723.6332255030083616
    Two-Electron Energy =                 283.2508128582558129
    Total Energy =                       -233.0503756616287774
  Basis Set: (AUG-CC-PVTZ AUX)
    Blend: AUG-CC-PVTZ-RI
    Molecular point group: c1

    Geometry (in Angstrom), charge = 0, multiplicity = 1:

       Center              X                  Y                   Z               Mass
    ------------   -----------------  -----------------  -----------------  -----------------
         C            2.086668215911     0.530722539342     0.024314541313    12.000000000000
         C           -2.065091784089     0.530720539342    -0.023192458687    12.000000000000
         C            2.586299115911    -0.916884160658    -0.021949158687    12.000000000000
         C           -2.639842784089    -0.888793460658     0.021476541313    12.000000000000
         C            0.623314415911     0.467559939342     0.005008241313    12.000000000000
         C           -0.600406784089     0.544188539342    -0.006179458687    12.000000000000
         H            2.441066215911     1.045409539342     0.924367541313     1.007825032230
         H            2.461360215911     1.108622539342    -0.827889458687     1.007825032230
         H           -2.439940784089     1.108822539342     0.828840541313     1.007825032230
         H           -2.419317784089     1.045177539342    -0.923404458687     1.007825032230
         H            3.755497215911    -0.868640460658    -0.006531458687     1.007825032230
         H            2.340134215911    -1.407184460658    -0.926124458687     1.007825032230
         H            2.319722215911    -1.470827460658     0.838668541313     1.007825032230
         H           -2.297814784089    -1.471040460658    -0.836996458687     1.007825032230
         H           -2.318909784089    -1.406935460658     0.927774541313     1.007825032230
         H           -3.733925784089    -0.868646460658     0.007507541313     1.007825032230

  Basis Set: AUG-CC-PVTZ
    Blend: AUG-CC-PVTZ
  Basis Set: (AUG-CC-PVTZ AUX)
    Blend: AUG-CC-PVTZ-JKFIT
	 Reference Energy          =    -233.0503756616287774 [Eh]
	 Singles Energy            =      -0.0000000000000000 [Eh]
	 Same-Spin Energy          =      -0.2474136101373124 [Eh]
	 Opposite-Spin Energy      =      -0.8854166080778596 [Eh]
	 Correlation Energy        =      -1.1328302182151719 [Eh]
	 Total Energy              =    -234.1832058798439391 [Eh]

	 ================> DF-SCS-MP2 Energies <==================
	-----------------------------------------------------------
	 SCS Same-Spin Scale       =       0.3333333333333333 [-]
	 SCS Opposite-Spin Scale   =       1.2000000000000000 [-]
	 SCS Same-Spin Energy      =      -0.0824712033791041 [Eh]
	 SCS Opposite-Spin Energy  =      -1.0624999296934314 [Eh]
	 SCS Correlation Energy    =      -1.1449711330725356 [Eh]
	 SCS Total Energy          =    -234.1953467947013223 [Eh]
	-----------------------------------------------------------

  Dipole Moment: [D]
     X:    -0.0513      Y:    -0.0345      Z:     0.0016     Total:     0.0618

*** Psi4 exiting successfully. Buy a developer a beer!
