                               Psi4 1.4a3.dev225

  ==> Input File <==

--------------------------------------------------------------------------
#psi4
#
memory 32 gb

molecule  {
0 1
  C       -2.0771790    -0.5509460     0.0000070
  C        2.0771780    -0.5509460    -0.0000070
  C       -2.6336780     0.8769070    -0.0000060
  C        2.6336800     0.8769060     0.0000060
  C       -0.6118130    -0.5794080     0.0000030
  C        0.6318120    -0.5794060    -0.0000031
  H       -2.4515650    -1.0921000     0.8772120
  H       -2.4515700    -1.0921170    -0.8771860
  H        2.4515680    -1.0921180     0.8771850
  H        2.4515620    -1.0921010    -0.8772120
  H       -3.7276230     0.8632630    -0.0000030
  H       -2.2941400     1.4208110    -0.8846310
  H       -2.2941360     1.4208280     0.8846080
  H        2.2941380     1.4208280    -0.8846070
  H        2.2941440     1.4208110     0.8846310
  H        3.7276250     0.8632600     0.0000020
units angstrom
no_reorient  #important for SAPT in psi4, default
symmetry c1  #important for SAPT in psi4, default
}

set PROPERTIES_ORIGIN ["COM"]
properties('MP2/aug-cc-pvtz', properties = ['dipole'])
--------------------------------------------------------------------------

    Molecular point group: c1
  Charge       = 0
  Multiplicity = 1
  Basis Set: AUG-CC-PVTZ
    Blend: AUG-CC-PVTZ
  Basis Set: (AUG-CC-PVTZ AUX)
    Blend: AUG-CC-PVTZ-JKFIT

    Orbital Energies [Eh]
    ---------------------

    Doubly Occupied:

       1A    -11.247824     2A    -11.245447     3A    -11.225014
       4A    -11.221895     5A    -11.220635     6A    -11.220556
       7A     -1.081233     8A     -1.053781     9A     -0.963264
      10A     -0.880315    11A     -0.844277    12A     -0.666401
      13A     -0.627941    14A     -0.625364    15A     -0.616192
      16A     -0.546363    17A     -0.543309    18A     -0.517720
      19A     -0.514557    20A     -0.510743    21A     -0.502387
      22A     -0.351768    23A     -0.350656

  @DF-RHF Final Energy:  -233.05518040015019

   => Energetics <=

    Nuclear Repulsion Energy =            206.7869523043985680
    One-Electron Energy =                -722.5289809378882637
    Two-Electron Energy =                 282.6868482333395036
    Total Energy =                       -233.0551804001501637
  Basis Set: (AUG-CC-PVTZ AUX)
    Blend: AUG-CC-PVTZ-RI
    Molecular point group: c1

    Geometry (in Angstrom), charge = 0, multiplicity = 1:

       Center              X                  Y                   Z               Mass
    ------------   -----------------  -----------------  -----------------  -----------------
         C           -2.080103075776    -0.514181665855     0.000007026899    12.000000000000
         C            2.074253924224    -0.514181665855    -0.000006973101    12.000000000000
         C           -2.636602075776     0.913671334145    -0.000005973101    12.000000000000
         C            2.630755924224     0.913670334145     0.000006026899    12.000000000000
         C           -0.614737075776    -0.542643665855     0.000003026899    12.000000000000
         C            0.628887924224    -0.542641665855    -0.000003073101    12.000000000000
         H           -2.454489075776    -1.055335665855     0.877212026899     1.007825032230
         H           -2.454494075776    -1.055352665855    -0.877185973101     1.007825032230
         H            2.448643924224    -1.055353665855     0.877185026899     1.007825032230
         H            2.448637924224    -1.055336665855    -0.877211973101     1.007825032230
         H           -3.730547075776     0.900027334145    -0.000002973101     1.007825032230
         H           -2.297064075776     1.457575334145    -0.884630973101     1.007825032230
         H           -2.297060075776     1.457592334145     0.884608026899     1.007825032230
         H            2.291213924224     1.457592334145    -0.884606973101     1.007825032230
         H            2.291219924224     1.457575334145     0.884631026899     1.007825032230
         H            3.724700924224     0.900024334145     0.000002026899     1.007825032230

  Basis Set: AUG-CC-PVTZ
    Blend: AUG-CC-PVTZ
  Basis Set: (AUG-CC-PVTZ AUX)
    Blend: AUG-CC-PVTZ-JKFIT
	 Reference Energy          =    -233.0551804001501921 [Eh]
	 Singles Energy            =      -0.0000000000000000 [Eh]
	 Same-Spin Energy          =      -0.2481330628270106 [Eh]
	 Opposite-Spin Energy      =      -0.8863385062570969 [Eh]
	 Correlation Energy        =      -1.1344715690841074 [Eh]
	 Total Energy              =    -234.1896519692342906 [Eh]

	 ================> DF-SCS-MP2 Energies <==================
	-----------------------------------------------------------
	 SCS Same-Spin Scale       =       0.3333333333333333 [-]
	 SCS Opposite-Spin Scale   =       1.2000000000000000 [-]
	 SCS Same-Spin Energy      =      -0.0827110209423369 [Eh]
	 SCS Opposite-Spin Energy  =      -1.0636062075085162 [Eh]
	 SCS Correlation Energy    =      -1.1463172284508532 [Eh]
	 SCS Total Energy          =    -234.2014976286010324 [Eh]
	-----------------------------------------------------------

  Dipole Moment: [D]
     X:    -0.0049      Y:     0.1403      Z:    -0.0000     Total:     0.1404

*** Psi4 exiting successfully. Buy a developer a beer!
