                               Psi4 1.3.2 release

  ==> Input File <==

--------------------------------------------------------------------------
#psi4
#
memory 32 gb

molecule  {
0 1
  C        2.0758820     0.5154130     0.0236380
  C       -2.0758780     0.5154110    -0.0238690
  C        2.6506230    -0.9041080    -0.0207410
  C       -2.6506290    -0.9041030     0.0208000
  C        0.6111940     0.5288800     0.0070730
  C       -0.8111711     0.5270402    -0.0091788
  H        2.4302800     1.0301000     0.9236910
  H        2.4505740     1.0933130    -0.8285660
  H       -2.4507270     1.0935130     0.8281640
  H       -2.4301040     1.0298680    -0.9240810
  H        3.7447110    -0.8839500    -0.0072080
  H        2.3293480    -1.4224940    -0.9268010
  H        2.3089360    -1.4861370     0.8379920
  H       -2.3086010    -1.4863500    -0.8376730
  H       -2.3296960    -1.4222450     0.9270980
  H       -3.7447120    -0.8839560     0.0068310
units angstrom
no_reorient  #important for SAPT in psi4, default
symmetry c1  #important for SAPT in psi4, default
}

set PROPERTIES_ORIGIN ["COM"]
properties('MP2/aug-cc-pvtz', properties = ['dipole'])
--------------------------------------------------------------------------

    Molecular point group: c1
  Charge       = 0
  Multiplicity = 1
  Basis Set: AUG-CC-PVTZ
    Blend: AUG-CC-PVTZ
  Basis Set: (AUG-CC-PVTZ AUX)
    Blend: AUG-CC-PVTZ-JKFIT

    Orbital Energies [Eh]
    ---------------------

    Doubly Occupied:

       1A    -11.266662     2A    -11.259215     3A    -11.253652
       4A    -11.233182     5A    -11.225284     6A    -11.221290
       7A     -1.120482     8A     -1.062784     9A     -0.939545
      10A     -0.897580    11A     -0.823198    12A     -0.690195
      13A     -0.640562    14A     -0.630765    15A     -0.620350
      16A     -0.564935    17A     -0.545264    18A     -0.526350
      19A     -0.518817    20A     -0.517154    21A     -0.505519
      22A     -0.310009    23A     -0.308666

  @DF-RHF Final Energy:  -232.94123520471635

   => Energetics <=

    Nuclear Repulsion Energy =            206.6676320206928210
    One-Electron Energy =                -721.8548223824228671
    Two-Electron Energy =                 282.2459551570136682
    Total Energy =                       -232.9412352047163495
  Basis Set: (AUG-CC-PVTZ AUX)
    Blend: AUG-CC-PVTZ-RI
    Molecular point group: c1

    Geometry (in Angstrom), charge = 0, multiplicity = 1:

       Center              X                  Y                   Z               Mass
    ------------   -----------------  -----------------  -----------------  -----------------
         C            2.105119223261     0.515681794746     0.023977808989    12.000000000000
         C           -2.046640776739     0.515679794746    -0.023529191011    12.000000000000
         C            2.679860223261    -0.903839205254    -0.020401191011    12.000000000000
         C           -2.621391776739    -0.903834205254     0.021139808989    12.000000000000
         C            0.640431223261     0.529148794746     0.007412808989    12.000000000000
         C           -0.781933876739     0.527308994746    -0.008838991011    12.000000000000
         H            2.459517223261     1.030368794746     0.924030808989     1.007825032230
         H            2.479811223261     1.093581794746    -0.828226191011     1.007825032230
         H           -2.421489776739     1.093781794746     0.828503808989     1.007825032230
         H           -2.400866776739     1.030136794746    -0.923741191011     1.007825032230
         H            3.773948223261    -0.883681205254    -0.006868191011     1.007825032230
         H            2.358585223261    -1.422225205254    -0.926461191011     1.007825032230
         H            2.338173223261    -1.485868205254     0.838331808989     1.007825032230
         H           -2.279363776739    -1.486081205254    -0.837333191011     1.007825032230
         H           -2.300458776739    -1.421976205254     0.927437808989     1.007825032230
         H           -3.715474776739    -0.883687205254     0.007170808989     1.007825032230

  Basis Set: AUG-CC-PVTZ
    Blend: AUG-CC-PVTZ
  Basis Set: (AUG-CC-PVTZ AUX)
    Blend: AUG-CC-PVTZ-JKFIT
	 Reference Energy          =    -232.9412352047163495 [Eh]
	 Singles Energy            =      -0.0000000000000000 [Eh]
	 Same-Spin Energy          =      -0.2606862773042449 [Eh]
	 Opposite-Spin Energy      =      -0.9076453469010981 [Eh]
	 Correlation Energy        =      -1.1683316242053430 [Eh]
	 Total Energy              =    -234.1095668289216860 [Eh]

	 ================> DF-SCS-MP2 Energies <==================
	-----------------------------------------------------------
	 SCS Same-Spin Scale       =       0.3333333333333333 [-]
	 SCS Opposite-Spin Scale   =       1.2000000000000000 [-]
	 SCS Same-Spin Energy      =      -0.0868954257680816 [Eh]
	 SCS Opposite-Spin Energy  =      -1.0891744162813177 [Eh]
	 SCS Correlation Energy    =      -1.1760698420493993 [Eh]
	 SCS Total Energy          =    -234.1173050467657504 [Eh]
	-----------------------------------------------------------

  Dipole Moment: [D]
     X:    -0.1150      Y:    -0.1052      Z:    -0.0023     Total:     0.1559

*** Psi4 exiting successfully. Buy a developer a beer!
