                               Psi4 1.3.2 release

  ==> Input File <==

--------------------------------------------------------------------------
#psi4
#
memory 32 gb

molecule  {
0 1
  C        2.0758820     0.5154130     0.0236380
  C       -2.0758780     0.5154110    -0.0238690
  C        2.6506230    -0.9041080    -0.0207410
  C       -2.6506290    -0.9041030     0.0208000
  C        0.7111834     0.5279607     0.0082038
  C       -0.6111930     0.5288790    -0.0068560
  H        2.4302800     1.0301000     0.9236910
  H        2.4505740     1.0933130    -0.8285660
  H       -2.4507270     1.0935130     0.8281640
  H       -2.4301040     1.0298680    -0.9240810
  H        3.7447110    -0.8839500    -0.0072080
  H        2.3293480    -1.4224940    -0.9268010
  H        2.3089360    -1.4861370     0.8379920
  H       -2.3086010    -1.4863500    -0.8376730
  H       -2.3296960    -1.4222450     0.9270980
  H       -3.7447120    -0.8839560     0.0068310
units angstrom
no_reorient  #important for SAPT in psi4, default
symmetry c1  #important for SAPT in psi4, default
}

set PROPERTIES_ORIGIN ["COM"]
properties('MP2/aug-cc-pvtz', properties = ['dipole'])
--------------------------------------------------------------------------

    Molecular point group: c1
  Charge       = 0
  Multiplicity = 1
  Basis Set: AUG-CC-PVTZ
    Blend: AUG-CC-PVTZ
  Basis Set: (AUG-CC-PVTZ AUX)
    Blend: AUG-CC-PVTZ-JKFIT

    Orbital Energies [Eh]
    ---------------------

    Doubly Occupied:

       1A    -11.250883     2A    -11.245123     3A    -11.240781
       4A    -11.239234     5A    -11.221806     6A    -11.221285
       7A     -1.092399     8A     -1.060315     9A     -0.949139
      10A     -0.889669    11A     -0.838297    12A     -0.677027
      13A     -0.630637    14A     -0.630021    15A     -0.618843
      16A     -0.553679    17A     -0.545305    18A     -0.520811
      19A     -0.516371    20A     -0.513109    21A     -0.504450
      22A     -0.333098    23A     -0.331719

  @DF-RHF Final Energy:  -233.02113757984478

   => Energetics <=

    Nuclear Repulsion Energy =            206.5544682075422429
    One-Electron Energy =                -721.9032097135159347
    Two-Electron Energy =                 282.3276039261289725
    Total Energy =                       -233.0211375798447762
  Basis Set: (AUG-CC-PVTZ AUX)
    Blend: AUG-CC-PVTZ-RI
    Molecular point group: c1

    Geometry (in Angstrom), charge = 0, multiplicity = 1:

       Center              X                  Y                   Z               Mass
    ------------   -----------------  -----------------  -----------------  -----------------
         C            2.061263390737     0.515547362056     0.023472885945    12.000000000000
         C           -2.090496609263     0.515545362056    -0.024034114055    12.000000000000
         C            2.636004390737    -0.903973637944    -0.020906114055    12.000000000000
         C           -2.665247609263    -0.903968637944     0.020634885945    12.000000000000
         C            0.696564790737     0.528095062056     0.008038685945    12.000000000000
         C           -0.625811609263     0.529013362056    -0.007021114055    12.000000000000
         H            2.415661390737     1.030234362056     0.923525885945     1.007825032230
         H            2.435955390737     1.093447362056    -0.828731114055     1.007825032230
         H           -2.465345609263     1.093647362056     0.827998885945     1.007825032230
         H           -2.444722609263     1.030002362056    -0.924246114055     1.007825032230
         H            3.730092390737    -0.883815637944    -0.007373114055     1.007825032230
         H            2.314729390737    -1.422359637944    -0.926966114055     1.007825032230
         H            2.294317390737    -1.486002637944     0.837826885945     1.007825032230
         H           -2.323219609263    -1.486215637944    -0.837838114055     1.007825032230
         H           -2.344314609263    -1.422110637944     0.926932885945     1.007825032230
         H           -3.759330609263    -0.883821637944     0.006665885945     1.007825032230

  Basis Set: AUG-CC-PVTZ
    Blend: AUG-CC-PVTZ
  Basis Set: (AUG-CC-PVTZ AUX)
    Blend: AUG-CC-PVTZ-JKFIT
	 Reference Energy          =    -233.0211375798447762 [Eh]
	 Singles Energy            =      -0.0000000000000000 [Eh]
	 Same-Spin Energy          =      -0.2531406213657084 [Eh]
	 Opposite-Spin Energy      =      -0.8947622070365375 [Eh]
	 Correlation Energy        =      -1.1479028284022459 [Eh]
	 Total Energy              =    -234.1690404082470138 [Eh]

	 ================> DF-SCS-MP2 Energies <==================
	-----------------------------------------------------------
	 SCS Same-Spin Scale       =       0.3333333333333333 [-]
	 SCS Opposite-Spin Scale   =       1.2000000000000000 [-]
	 SCS Same-Spin Energy      =      -0.0843802071219028 [Eh]
	 SCS Opposite-Spin Energy  =      -1.0737146484438449 [Eh]
	 SCS Correlation Energy    =      -1.1580948555657478 [Eh]
	 SCS Total Energy          =    -234.1792324354105119 [Eh]
	-----------------------------------------------------------

  Dipole Moment: [D]
     X:     0.0121      Y:    -0.1074      Z:     0.0002     Total:     0.1081

*** Psi4 exiting successfully. Buy a developer a beer!
