                               Psi4 1.3.2 release

  ==> Input File <==

--------------------------------------------------------------------------
#psi4
#
memory 32 gb

molecule  {
0 1
  C        2.0758820     0.5154130     0.0236380
  C       -2.0758780     0.5154110    -0.0238690
  C        2.6506230    -0.9041080    -0.0207410
  C       -2.6506290    -0.9041030     0.0208000
  C        0.6111940     0.5288800     0.0070730
  C       -0.8111800     0.5288788    -0.0091348
  H        2.4302800     1.0301000     0.9236910
  H        2.4505740     1.0933130    -0.8285660
  H       -2.4507270     1.0935130     0.8281640
  H       -2.4301040     1.0298680    -0.9240810
  H        3.7447110    -0.8839500    -0.0072080
  H        2.3293480    -1.4224940    -0.9268010
  H        2.3089360    -1.4861370     0.8379920
  H       -2.3086010    -1.4863500    -0.8376730
  H       -2.3296960    -1.4222450     0.9270980
  H       -3.7447120    -0.8839560     0.0068310
units angstrom
no_reorient  #important for SAPT in psi4, default
symmetry c1  #important for SAPT in psi4, default
}

set PROPERTIES_ORIGIN ["COM"]
properties('MP2/aug-cc-pvtz', properties = ['dipole'])
--------------------------------------------------------------------------

    Molecular point group: c1
  Charge       = 0
  Multiplicity = 1
  Basis Set: AUG-CC-PVTZ
    Blend: AUG-CC-PVTZ
  Basis Set: (AUG-CC-PVTZ AUX)
    Blend: AUG-CC-PVTZ-JKFIT

    Orbital Energies [Eh]
    ---------------------

    Doubly Occupied:

       1A    -11.266662     2A    -11.259222     3A    -11.253648
       4A    -11.233189     5A    -11.225297     6A    -11.221303
       7A     -1.120453     8A     -1.062783     9A     -0.939588
      10A     -0.897616    11A     -0.823199    12A     -0.690095
      13A     -0.640566    14A     -0.630741    15A     -0.620352
      16A     -0.565037    17A     -0.545256    18A     -0.526313
      19A     -0.518841    20A     -0.517167    21A     -0.505523
      22A     -0.310021    23A     -0.308645

  @DF-RHF Final Energy:  -232.94124435409185

   => Energetics <=

    Nuclear Repulsion Energy =            206.6615651060639891
    One-Electron Energy =                -721.8425883073502973
    Two-Electron Energy =                 282.2397788471944295
    Total Energy =                       -232.9412443540918503
  Basis Set: (AUG-CC-PVTZ AUX)
    Blend: AUG-CC-PVTZ-RI
    Molecular point group: c1

    Geometry (in Angstrom), charge = 0, multiplicity = 1:

       Center              X                  Y                   Z               Mass
    ------------   -----------------  -----------------  -----------------  -----------------
         C            2.105120524459     0.515412987846     0.023971376103    12.000000000000
         C           -2.046639475541     0.515410987846    -0.023535623897    12.000000000000
         C            2.679861524459    -0.904108012154    -0.020407623897    12.000000000000
         C           -2.621390475541    -0.904103012154     0.021133376103    12.000000000000
         C            0.640432524459     0.528879987846     0.007406376103    12.000000000000
         C           -0.781941475541     0.528878787846    -0.008801423897    12.000000000000
         H            2.459518524459     1.030099987846     0.924024376103     1.007825032230
         H            2.479812524459     1.093312987846    -0.828232623897     1.007825032230
         H           -2.421488475541     1.093512987846     0.828497376103     1.007825032230
         H           -2.400865475541     1.029867987846    -0.923747623897     1.007825032230
         H            3.773949524459    -0.883950012154    -0.006874623897     1.007825032230
         H            2.358586524459    -1.422494012154    -0.926467623897     1.007825032230
         H            2.338174524459    -1.486137012154     0.838325376103     1.007825032230
         H           -2.279362475541    -1.486350012154    -0.837339623897     1.007825032230
         H           -2.300457475541    -1.422245012154     0.927431376103     1.007825032230
         H           -3.715473475541    -0.883956012154     0.007164376103     1.007825032230

  Basis Set: AUG-CC-PVTZ
    Blend: AUG-CC-PVTZ
  Basis Set: (AUG-CC-PVTZ AUX)
    Blend: AUG-CC-PVTZ-JKFIT
	 Reference Energy          =    -232.9412443540918503 [Eh]
	 Singles Energy            =      -0.0000000000000000 [Eh]
	 Same-Spin Energy          =      -0.2606830720233417 [Eh]
	 Opposite-Spin Energy      =      -0.9076410129053789 [Eh]
	 Correlation Energy        =      -1.1683240849287206 [Eh]
	 Total Energy              =    -234.1095684390205633 [Eh]

	 ================> DF-SCS-MP2 Energies <==================
	-----------------------------------------------------------
	 SCS Same-Spin Scale       =       0.3333333333333333 [-]
	 SCS Opposite-Spin Scale   =       1.2000000000000000 [-]
	 SCS Same-Spin Energy      =      -0.0868943573411139 [Eh]
	 SCS Opposite-Spin Energy  =      -1.0891692154864547 [Eh]
	 SCS Correlation Energy    =      -1.1760635728275686 [Eh]
	 SCS Total Energy          =    -234.1173079269194091 [Eh]
	-----------------------------------------------------------

  Dipole Moment: [D]
     X:    -0.1155      Y:    -0.1068      Z:    -0.0023     Total:     0.1574

*** Psi4 exiting successfully. Buy a developer a beer!
