                               Psi4 1.3.2 release

  ==> Input File <==

--------------------------------------------------------------------------
#psi4
#
memory 32 gb

molecule  {
0 1
  C        2.0758820     0.5154130     0.0236380
  C       -2.0758780     0.5154110    -0.0238690
  C        2.7241578    -0.8721315    -0.0187346
  C       -2.6506290    -0.9041030     0.0208000
  C        0.6138744     0.6054727     0.0098597
  C       -0.6111930     0.5288790    -0.0068560
  H        2.4302800     1.0301000     0.9236910
  H        2.4505740     1.0933130    -0.8285660
  H       -2.4507270     1.0935130     0.8281640
  H       -2.4301040     1.0298680    -0.9240810
  H        3.7447110    -0.8839500    -0.0072080
  H        2.3293480    -1.4224940    -0.9268010
  H        2.3089360    -1.4861370     0.8379920
  H       -2.3086010    -1.4863500    -0.8376730
  H       -2.3296960    -1.4222450     0.9270980
  H       -3.7447120    -0.8839560     0.0068310
units angstrom
no_reorient  #important for SAPT in psi4, default
symmetry c1  #important for SAPT in psi4, default
}

set PROPERTIES_ORIGIN ["COM"]
properties('MP2/aug-cc-pvtz', properties = ['dipole'])
--------------------------------------------------------------------------

    Molecular point group: c1
  Charge       = 0
  Multiplicity = 1
  Basis Set: AUG-CC-PVTZ
    Blend: AUG-CC-PVTZ
  Basis Set: (AUG-CC-PVTZ AUX)
    Blend: AUG-CC-PVTZ-JKFIT

    Orbital Energies [Eh]
    ---------------------

    Doubly Occupied:

       1A    -11.247429     2A    -11.246678     3A    -11.222420
       4A    -11.222376     5A    -11.221082     6A    -11.219103
       7A     -1.079924     8A     -1.051602     9A     -0.968960
      10A     -0.881753    11A     -0.846109    12A     -0.662194
      13A     -0.628179    14A     -0.623246    15A     -0.611095
      16A     -0.568963    17A     -0.544890    18A     -0.516990
      19A     -0.509749    20A     -0.507750    21A     -0.488235
      22A     -0.357488    23A     -0.354494

  @DF-RHF Final Energy:  -233.04941370504625

   => Energetics <=

    Nuclear Repulsion Energy =            206.2096981589109532
    One-Electron Energy =                -721.3568007896750487
    Two-Electron Energy =                 282.0976889257178186
    Total Energy =                       -233.0494137050462200
  Basis Set: (AUG-CC-PVTZ AUX)
    Blend: AUG-CC-PVTZ-RI
    Molecular point group: c1

    Geometry (in Angstrom), charge = 0, multiplicity = 1:

       Center              X                  Y                   Z               Mass
    ------------   -----------------  -----------------  -----------------  -----------------
         C            2.064739225065     0.499539930186     0.022937450554    12.000000000000
         C           -2.087020774935     0.499537930186    -0.024569549446    12.000000000000
         C            2.713015025065    -0.888004569814    -0.019435149446    12.000000000000
         C           -2.661771774935    -0.919976069814     0.020099450554    12.000000000000
         C            0.602731625065     0.589599630186     0.009159150554    12.000000000000
         C           -0.622335774935     0.513005930186    -0.007556549446    12.000000000000
         H            2.419137225065     1.014226930186     0.922990450554     1.007825032230
         H            2.439431225065     1.077439930186    -0.829266549446     1.007825032230
         H           -2.461869774935     1.077639930186     0.827463450554     1.007825032230
         H           -2.441246774935     1.013994930186    -0.924781549446     1.007825032230
         H            3.733568225065    -0.899823069814    -0.007908549446     1.007825032230
         H            2.318205225065    -1.438367069814    -0.927501549446     1.007825032230
         H            2.297793225065    -1.502010069814     0.837291450554     1.007825032230
         H           -2.319743774935    -1.502223069814    -0.838373549446     1.007825032230
         H           -2.340838774935    -1.438118069814     0.926397450554     1.007825032230
         H           -3.755854774935    -0.899829069814     0.006130450554     1.007825032230

  Basis Set: AUG-CC-PVTZ
    Blend: AUG-CC-PVTZ
  Basis Set: (AUG-CC-PVTZ AUX)
    Blend: AUG-CC-PVTZ-JKFIT
	 Reference Energy          =    -233.0494137050462484 [Eh]
	 Singles Energy            =      -0.0000000000000000 [Eh]
	 Same-Spin Energy          =      -0.2473018627759339 [Eh]
	 Opposite-Spin Energy      =      -0.8853365342906734 [Eh]
	 Correlation Energy        =      -1.1326383970666072 [Eh]
	 Total Energy              =    -234.1820521021128627 [Eh]

	 ================> DF-SCS-MP2 Energies <==================
	-----------------------------------------------------------
	 SCS Same-Spin Scale       =       0.3333333333333333 [-]
	 SCS Opposite-Spin Scale   =       1.2000000000000000 [-]
	 SCS Same-Spin Energy      =      -0.0824339542586446 [Eh]
	 SCS Opposite-Spin Energy  =      -1.0624038411488079 [Eh]
	 SCS Correlation Energy    =      -1.1448377954074527 [Eh]
	 SCS Total Energy          =    -234.1942515004537029 [Eh]
	-----------------------------------------------------------

  Dipole Moment: [D]
     X:    -0.0198      Y:    -0.1699      Z:    -0.0023     Total:     0.1711

*** Psi4 exiting successfully. Buy a developer a beer!
