                               Psi4 1.3.2 release

  ==> Input File <==

--------------------------------------------------------------------------
#psi4
#
memory 32 gb

molecule  {
0 1
  C        2.0758820     0.5154130     0.0236380
  C       -2.0758780     0.5154110    -0.0238690
  C        2.6506230    -0.9041080    -0.0207410
  C       -2.6506290    -0.9041030     0.0208000
  C        0.6111940     0.5288800     0.0070730
  C       -0.4112149     0.5307178    -0.0045332
  H        2.4302800     1.0301000     0.9236910
  H        2.4505740     1.0933130    -0.8285660
  H       -2.4507270     1.0935130     0.8281640
  H       -2.4301040     1.0298680    -0.9240810
  H        3.7447110    -0.8839500    -0.0072080
  H        2.3293480    -1.4224940    -0.9268010
  H        2.3089360    -1.4861370     0.8379920
  H       -2.3086010    -1.4863500    -0.8376730
  H       -2.3296960    -1.4222450     0.9270980
  H       -3.7447120    -0.8839560     0.0068310
units angstrom
no_reorient  #important for SAPT in psi4, default
symmetry c1  #important for SAPT in psi4, default
}

set PROPERTIES_ORIGIN ["COM"]
properties('MP2/aug-cc-pvtz', properties = ['dipole'])
--------------------------------------------------------------------------

    Molecular point group: c1
  Charge       = 0
  Multiplicity = 1
  Basis Set: AUG-CC-PVTZ
    Blend: AUG-CC-PVTZ
  Basis Set: (AUG-CC-PVTZ AUX)
    Blend: AUG-CC-PVTZ-JKFIT

    Orbital Energies [Eh]
    ---------------------

    Doubly Occupied:

       1A    -11.259724     2A    -11.235208     3A    -11.220262
       4A    -11.216300     5A    -11.168566     6A    -11.151997
       7A     -1.086797     8A     -1.032770     9A     -1.000537
      10A     -0.862324    11A     -0.842232    12A     -0.639612
      13A     -0.619572    14A     -0.609661    15A     -0.607089
      16A     -0.543264    17A     -0.529090    18A     -0.511548
      19A     -0.509546    20A     -0.500796    21A     -0.497393
      22A     -0.410377    23A     -0.408644

  @DF-RHF Final Energy:  -232.96517333125058

   => Energetics <=

    Nuclear Repulsion Energy =            208.5199674047205178
    One-Electron Energy =                -726.0436642077839906
    Two-Electron Energy =                 284.5585234718128618
    Total Energy =                       -232.9651733312505826
  Basis Set: (AUG-CC-PVTZ AUX)
    Blend: AUG-CC-PVTZ-RI
    Molecular point group: c1

    Geometry (in Angstrom), charge = 0, multiplicity = 1:

       Center              X                  Y                   Z               Mass
    ------------   -----------------  -----------------  -----------------  -----------------
         C            2.046644848124     0.515144122466     0.023298613224    12.000000000000
         C           -2.105115151876     0.515142122466    -0.024208386776    12.000000000000
         C            2.621385848124    -0.904376877534    -0.021080386776    12.000000000000
         C           -2.679866151876    -0.904371877534     0.020460613224    12.000000000000
         C            0.581956848124     0.528611122466     0.006733613224    12.000000000000
         C           -0.440452051876     0.530448922466    -0.004872586776    12.000000000000
         H            2.401042848124     1.029831122466     0.923351613224     1.007825032230
         H            2.421336848124     1.093044122466    -0.828905386776     1.007825032230
         H           -2.479964151876     1.093244122466     0.827824613224     1.007825032230
         H           -2.459341151876     1.029599122466    -0.924420386776     1.007825032230
         H            3.715473848124    -0.884218877534    -0.007547386776     1.007825032230
         H            2.300110848124    -1.422762877534    -0.927140386776     1.007825032230
         H            2.279698848124    -1.486405877534     0.837652613224     1.007825032230
         H           -2.337838151876    -1.486618877534    -0.838012386776     1.007825032230
         H           -2.358933151876    -1.422513877534     0.926758613224     1.007825032230
         H           -3.773949151876    -0.884224877534     0.006491613224     1.007825032230

  Basis Set: AUG-CC-PVTZ
    Blend: AUG-CC-PVTZ
  Basis Set: (AUG-CC-PVTZ AUX)
    Blend: AUG-CC-PVTZ-JKFIT
	 Reference Energy          =    -232.9651733312505826 [Eh]
	 Singles Energy            =      -0.0000000000000000 [Eh]
	 Same-Spin Energy          =      -0.2384581266614828 [Eh]
	 Opposite-Spin Energy      =      -0.8697697149814547 [Eh]
	 Correlation Energy        =      -1.1082278416429374 [Eh]
	 Total Energy              =    -234.0734011728935116 [Eh]

	 ================> DF-SCS-MP2 Energies <==================
	-----------------------------------------------------------
	 SCS Same-Spin Scale       =       0.3333333333333333 [-]
	 SCS Opposite-Spin Scale   =       1.2000000000000000 [-]
	 SCS Same-Spin Energy      =      -0.0794860422204943 [Eh]
	 SCS Opposite-Spin Energy  =      -1.0437236579777456 [Eh]
	 SCS Correlation Energy    =      -1.1232097001982400 [Eh]
	 SCS Total Energy          =    -234.0883830314488137 [Eh]
	-----------------------------------------------------------

  Dipole Moment: [D]
     X:    -0.1947      Y:    -0.1167      Z:    -0.0007     Total:     0.2270

*** Psi4 exiting successfully. Buy a developer a beer!
