                               Psi4 1.4a3.dev225

  ==> Input File <==

--------------------------------------------------------------------------
#psi4
#
memory 32 gb

molecule  {
0 1
  C       -2.0771790    -0.5509460     0.0000070
  C        2.0771780    -0.5509460    -0.0000070
  C       -2.6336780     0.8769070    -0.0000060
  C        2.6336800     0.8769060     0.0000060
  C       -0.6118130    -0.5794080     0.0000030
  C        0.6318082    -0.5790176    -0.0000031
  H       -2.4515650    -1.0921000     0.8772120
  H       -2.4515700    -1.0921170    -0.8771860
  H        2.4515680    -1.0921180     0.8771850
  H        2.4515620    -1.0921010    -0.8772120
  H       -3.7276230     0.8632630    -0.0000030
  H       -2.2941400     1.4208110    -0.8846310
  H       -2.2941360     1.4208280     0.8846080
  H        2.2941380     1.4208280    -0.8846070
  H        2.2941440     1.4208110     0.8846310
  H        3.7276250     0.8632600     0.0000020
units angstrom
no_reorient  #important for SAPT in psi4, default
symmetry c1  #important for SAPT in psi4, default
}

set PROPERTIES_ORIGIN ["COM"]
properties('MP2/aug-cc-pvtz', properties = ['dipole'])
--------------------------------------------------------------------------

    Molecular point group: c1
  Charge       = 0
  Multiplicity = 1
  Basis Set: AUG-CC-PVTZ
    Blend: AUG-CC-PVTZ
  Basis Set: (AUG-CC-PVTZ AUX)
    Blend: AUG-CC-PVTZ-JKFIT

    Orbital Energies [Eh]
    ---------------------

    Doubly Occupied:

       1A    -11.247824     2A    -11.245447     3A    -11.225013
       4A    -11.221893     5A    -11.220634     6A    -11.220549
       7A     -1.081236     8A     -1.053784     9A     -0.963262
      10A     -0.880307    11A     -0.844275    12A     -0.666413
      13A     -0.627949    14A     -0.625364    15A     -0.616192
      16A     -0.546349    17A     -0.543303    18A     -0.517724
      19A     -0.514558    20A     -0.510740    21A     -0.502386
      22A     -0.351767    23A     -0.350660

  @DF-RHF Final Energy:  -233.05518033163932

   => Energetics <=

    Nuclear Repulsion Energy =            206.7882168903746276
    One-Electron Energy =                -722.5315363895845167
    Two-Electron Energy =                 282.6881391675705117
    Total Energy =                       -233.0551803316393489
  Basis Set: (AUG-CC-PVTZ AUX)
    Blend: AUG-CC-PVTZ-RI
    Molecular point group: c1

    Geometry (in Angstrom), charge = 0, multiplicity = 1:

       Center              X                  Y                   Z               Mass
    ------------   -----------------  -----------------  -----------------  -----------------
         C           -2.080102520208    -0.514238450692     0.000007026899    12.000000000000
         C            2.074254479792    -0.514238450692    -0.000006973101    12.000000000000
         C           -2.636601520208     0.913614549308    -0.000005973101    12.000000000000
         C            2.630756479792     0.913613549308     0.000006026899    12.000000000000
         C           -0.614736520208    -0.542700450692     0.000003026899    12.000000000000
         C            0.628884679792    -0.542310050692    -0.000003073101    12.000000000000
         H           -2.454488520208    -1.055392450692     0.877212026899     1.007825032230
         H           -2.454493520208    -1.055409450692    -0.877185973101     1.007825032230
         H            2.448644479792    -1.055410450692     0.877185026899     1.007825032230
         H            2.448638479792    -1.055393450692    -0.877211973101     1.007825032230
         H           -3.730546520208     0.899970549308    -0.000002973101     1.007825032230
         H           -2.297063520208     1.457518549308    -0.884630973101     1.007825032230
         H           -2.297059520208     1.457535549308     0.884608026899     1.007825032230
         H            2.291214479792     1.457535549308    -0.884606973101     1.007825032230
         H            2.291220479792     1.457518549308     0.884631026899     1.007825032230
         H            3.724701479792     0.899967549308     0.000002026899     1.007825032230

  Basis Set: AUG-CC-PVTZ
    Blend: AUG-CC-PVTZ
  Basis Set: (AUG-CC-PVTZ AUX)
    Blend: AUG-CC-PVTZ-JKFIT
	 Reference Energy          =    -233.0551803316393205 [Eh]
	 Singles Energy            =      -0.0000000000000000 [Eh]
	 Same-Spin Energy          =      -0.2481333557271940 [Eh]
	 Opposite-Spin Energy      =      -0.8863387166896064 [Eh]
	 Correlation Energy        =      -1.1344720724168005 [Eh]
	 Total Energy              =    -234.1896524040561189 [Eh]

	 ================> DF-SCS-MP2 Energies <==================
	-----------------------------------------------------------
	 SCS Same-Spin Scale       =       0.3333333333333333 [-]
	 SCS Opposite-Spin Scale   =       1.2000000000000000 [-]
	 SCS Same-Spin Energy      =      -0.0827111185757313 [Eh]
	 SCS Opposite-Spin Energy  =      -1.0636064600275277 [Eh]
	 SCS Correlation Energy    =      -1.1463175786032591 [Eh]
	 SCS Total Energy          =    -234.2014979102425798 [Eh]
	-----------------------------------------------------------

  Dipole Moment: [D]
     X:    -0.0050      Y:     0.1399      Z:    -0.0000     Total:     0.1400

*** Psi4 exiting successfully. Buy a developer a beer!
