                               Psi4 1.3.2 release

  ==> Input File <==

--------------------------------------------------------------------------
#psi4
#
memory 32 gb

molecule  {
0 1
  C        2.0758820     0.5154130     0.0236380
  C       -2.0758780     0.5154110    -0.0238690
  C        2.6506230    -0.9041080    -0.0207410
  C       -2.6506290    -0.9041030     0.0208000
  C        0.6118210     0.5544585     0.0513408
  C       -0.6111930     0.5288790    -0.0068560
  H        2.3938833     1.0364033     0.9336052
  H        2.4505740     1.0933130    -0.8285660
  H       -2.4507270     1.0935130     0.8281640
  H       -2.4301040     1.0298680    -0.9240810
  H        3.7447110    -0.8839500    -0.0072080
  H        2.3293480    -1.4224940    -0.9268010
  H        2.3089360    -1.4861370     0.8379920
  H       -2.3086010    -1.4863500    -0.8376730
  H       -2.3296960    -1.4222450     0.9270980
  H       -3.7447120    -0.8839560     0.0068310
units angstrom
no_reorient  #important for SAPT in psi4, default
symmetry c1  #important for SAPT in psi4, default
}

set PROPERTIES_ORIGIN ["COM"]
properties('MP2/aug-cc-pvtz', properties = ['dipole'])
--------------------------------------------------------------------------

    Molecular point group: c1
  Charge       = 0
  Multiplicity = 1
  Basis Set: AUG-CC-PVTZ
    Blend: AUG-CC-PVTZ
  Basis Set: (AUG-CC-PVTZ AUX)
    Blend: AUG-CC-PVTZ-JKFIT

    Orbital Energies [Eh]
    ---------------------

    Doubly Occupied:

       1A    -11.246641     2A    -11.246487     3A    -11.220990
       4A    -11.220210     5A    -11.219462     6A    -11.216128
       7A     -1.080106     8A     -1.051630     9A     -0.967092
      10A     -0.879697    11A     -0.845708    12A     -0.661491
      13A     -0.626897    14A     -0.623491    15A     -0.615243
      16A     -0.547510    17A     -0.543640    18A     -0.516929
      19A     -0.512965    20A     -0.510921    21A     -0.502289
      22A     -0.356364    23A     -0.354412

  @DF-RHF Final Energy:  -233.05848076298801

   => Energetics <=

    Nuclear Repulsion Energy =            206.7255937595939770
    One-Electron Energy =                -722.4355411016906601
    Two-Electron Energy =                 282.6514665791086713
    Total Energy =                       -233.0584807629880402
  Basis Set: (AUG-CC-PVTZ AUX)
    Blend: AUG-CC-PVTZ-RI
    Molecular point group: c1

    Geometry (in Angstrom), charge = 0, multiplicity = 1:

       Center              X                  Y                   Z               Mass
    ------------   -----------------  -----------------  -----------------  -----------------
         C            2.076237276030     0.511595934945     0.017044437764    12.000000000000
         C           -2.075522723970     0.511593934945    -0.030462562236    12.000000000000
         C            2.650978276030    -0.907925065055    -0.027334562236    12.000000000000
         C           -2.650273723970    -0.907920065055     0.014206437764    12.000000000000
         C            0.612176276030     0.550641434945     0.044747237764    12.000000000000
         C           -0.610837723970     0.525061934945    -0.013449562236    12.000000000000
         H            2.394238576030     1.032586234945     0.927011637764     1.007825032230
         H            2.450929276030     1.089495934945    -0.835159562236     1.007825032230
         H           -2.450371723970     1.089695934945     0.821570437764     1.007825032230
         H           -2.429748723970     1.026050934945    -0.930674562236     1.007825032230
         H            3.745066276030    -0.887767065055    -0.013801562236     1.007825032230
         H            2.329703276030    -1.426311065055    -0.933394562236     1.007825032230
         H            2.309291276030    -1.489954065055     0.831398437764     1.007825032230
         H           -2.308245723970    -1.490167065055    -0.844266562236     1.007825032230
         H           -2.329340723970    -1.426062065055     0.920504437764     1.007825032230
         H           -3.744356723970    -0.887773065055     0.000237437764     1.007825032230

  Basis Set: AUG-CC-PVTZ
    Blend: AUG-CC-PVTZ
  Basis Set: (AUG-CC-PVTZ AUX)
    Blend: AUG-CC-PVTZ-JKFIT
	 Reference Energy          =    -233.0584807629880117 [Eh]
	 Singles Energy            =      -0.0000000000000000 [Eh]
	 Same-Spin Energy          =      -0.2470555610501715 [Eh]
	 Opposite-Spin Energy      =      -0.8845478890228765 [Eh]
	 Correlation Energy        =      -1.1316034500730481 [Eh]
	 Total Energy              =    -234.1900842130610556 [Eh]

	 ================> DF-SCS-MP2 Energies <==================
	-----------------------------------------------------------
	 SCS Same-Spin Scale       =       0.3333333333333333 [-]
	 SCS Opposite-Spin Scale   =       1.2000000000000000 [-]
	 SCS Same-Spin Energy      =      -0.0823518536833905 [Eh]
	 SCS Opposite-Spin Energy  =      -1.0614574668274517 [Eh]
	 SCS Correlation Energy    =      -1.1438093205108422 [Eh]
	 SCS Total Energy          =    -234.2022900834988661 [Eh]
	-----------------------------------------------------------

  Dipole Moment: [D]
     X:     0.0069      Y:    -0.1397      Z:    -0.0355     Total:     0.1443

*** Psi4 exiting successfully. Buy a developer a beer!
