                               Psi4 1.3.2 release

  ==> Input File <==

--------------------------------------------------------------------------
#psi4
#
memory 32 gb

molecule  {
0 1
  C        2.0754543     0.5665391     0.0241076
  C       -2.0758780     0.5154110    -0.0238690
  C        2.6506230    -0.9041080    -0.0207410
  C       -2.6506290    -0.9041030     0.0208000
  C        0.6111940     0.5288800     0.0070730
  C       -0.6104529     0.5715406    -0.0064516
  H        2.4302800     1.0301000     0.9236910
  H        2.4505740     1.0933130    -0.8285660
  H       -2.4507270     1.0935130     0.8281640
  H       -2.4301040     1.0298680    -0.9240810
  H        3.7447110    -0.8839500    -0.0072080
  H        2.3293480    -1.4224940    -0.9268010
  H        2.3089360    -1.4861370     0.8379920
  H       -2.3086010    -1.4863500    -0.8376730
  H       -2.3296960    -1.4222450     0.9270980
  H       -3.7447120    -0.8839560     0.0068310
units angstrom
no_reorient  #important for SAPT in psi4, default
symmetry c1  #important for SAPT in psi4, default
}

set PROPERTIES_ORIGIN ["COM"]
properties('MP2/aug-cc-pvtz', properties = ['dipole'])
--------------------------------------------------------------------------

    Molecular point group: c1
  Charge       = 0
  Multiplicity = 1
  Basis Set: AUG-CC-PVTZ
    Blend: AUG-CC-PVTZ
  Basis Set: (AUG-CC-PVTZ AUX)
    Blend: AUG-CC-PVTZ-JKFIT

    Orbital Energies [Eh]
    ---------------------

    Doubly Occupied:

       1A    -11.246603     2A    -11.244665     3A    -11.222204
       4A    -11.220695     5A    -11.219218     6A    -11.215841
       7A     -1.078215     8A     -1.048101     9A     -0.965446
      10A     -0.879871    11A     -0.847914    12A     -0.662936
      13A     -0.627380    14A     -0.624384    15A     -0.616983
      16A     -0.546851    17A     -0.533571    18A     -0.516176
      19A     -0.515148    20A     -0.512441    21A     -0.504911
      22A     -0.356765    23A     -0.355090

  @DF-RHF Final Energy:  -233.05747306619074

   => Energetics <=

    Nuclear Repulsion Energy =            206.3290325621940440
    One-Electron Energy =                -721.6501951150402192
    Two-Electron Energy =                 282.2636894866554371
    Total Energy =                       -233.0574730661907665
  Basis Set: (AUG-CC-PVTZ AUX)
    Blend: AUG-CC-PVTZ-RI
    Molecular point group: c1

    Geometry (in Angstrom), charge = 0, multiplicity = 1:

       Center              X                  Y                   Z               Mass
    ------------   -----------------  -----------------  -----------------  -----------------
         C            2.075408662204     0.552827114265     0.023980030605    12.000000000000
         C           -2.075923637796     0.501699014265    -0.023996569395    12.000000000000
         C            2.650577362204    -0.917819985735    -0.020868569395    12.000000000000
         C           -2.650674637796    -0.917814985735     0.020672430605    12.000000000000
         C            0.611148362204     0.515168014265     0.006945430605    12.000000000000
         C           -0.610498537796     0.557828614265    -0.006579169395    12.000000000000
         H            2.430234362204     1.016388014265     0.923563430605     1.007825032230
         H            2.450528362204     1.079601014265    -0.828693569395     1.007825032230
         H           -2.450772637796     1.079801014265     0.828036430605     1.007825032230
         H           -2.430149637796     1.016156014265    -0.924208569395     1.007825032230
         H            3.744665362204    -0.897661985735    -0.007335569395     1.007825032230
         H            2.329302362204    -1.436205985735    -0.926928569395     1.007825032230
         H            2.308890362204    -1.499848985735     0.837864430605     1.007825032230
         H           -2.308646637796    -1.500061985735    -0.837800569395     1.007825032230
         H           -2.329741637796    -1.435956985735     0.926970430605     1.007825032230
         H           -3.744757637796    -0.897667985735     0.006703430605     1.007825032230

  Basis Set: AUG-CC-PVTZ
    Blend: AUG-CC-PVTZ
  Basis Set: (AUG-CC-PVTZ AUX)
    Blend: AUG-CC-PVTZ-JKFIT
	 Reference Energy          =    -233.0574730661907381 [Eh]
	 Singles Energy            =      -0.0000000000000000 [Eh]
	 Same-Spin Energy          =      -0.2467270308824719 [Eh]
	 Opposite-Spin Energy      =      -0.8842312438905102 [Eh]
	 Correlation Energy        =      -1.1309582747729821 [Eh]
	 Total Energy              =    -234.1884313409637173 [Eh]

	 ================> DF-SCS-MP2 Energies <==================
	-----------------------------------------------------------
	 SCS Same-Spin Scale       =       0.3333333333333333 [-]
	 SCS Opposite-Spin Scale   =       1.2000000000000000 [-]
	 SCS Same-Spin Energy      =      -0.0822423436274906 [Eh]
	 SCS Opposite-Spin Energy  =      -1.0610774926686122 [Eh]
	 SCS Correlation Energy    =      -1.1433198362961028 [Eh]
	 SCS Total Energy          =    -234.2007929024868531 [Eh]
	-----------------------------------------------------------

  Dipole Moment: [D]
     X:    -0.0053      Y:    -0.1189      Z:    -0.0004     Total:     0.1190

*** Psi4 exiting successfully. Buy a developer a beer!
