                               Psi4 1.3.2 release

  ==> Input File <==

--------------------------------------------------------------------------
#psi4
#
memory 32 gb

molecule  {
0 1
  C        2.0758820     0.5154130     0.0236380
  C       -2.0758780     0.5154110    -0.0238690
  C        2.6506230    -0.9041080    -0.0207410
  C       -2.6506290    -0.9041030     0.0208000
  C        0.6111940     0.5288800     0.0070730
  C       -0.7111865     0.5288789    -0.0079954
  H        2.4302800     1.0301000     0.9236910
  H        2.4505740     1.0933130    -0.8285660
  H       -2.4507270     1.0935130     0.8281640
  H       -2.4301040     1.0298680    -0.9240810
  H        3.7447110    -0.8839500    -0.0072080
  H        2.3293480    -1.4224940    -0.9268010
  H        2.3089360    -1.4861370     0.8379920
  H       -2.3086010    -1.4863500    -0.8376730
  H       -2.3296960    -1.4222450     0.9270980
  H       -3.7447120    -0.8839560     0.0068310
units angstrom
no_reorient  #important for SAPT in psi4, default
symmetry c1  #important for SAPT in psi4, default
}

set PROPERTIES_ORIGIN ["COM"]
properties('MP2/aug-cc-pvtz', properties = ['dipole'])
--------------------------------------------------------------------------

    Molecular point group: c1
  Charge       = 0
  Multiplicity = 1
  Basis Set: AUG-CC-PVTZ
    Blend: AUG-CC-PVTZ
  Basis Set: (AUG-CC-PVTZ AUX)
    Blend: AUG-CC-PVTZ-JKFIT

    Orbital Energies [Eh]
    ---------------------

    Doubly Occupied:

       1A    -11.250882     2A    -11.245123     3A    -11.240783
       4A    -11.239236     5A    -11.221819     6A    -11.221289
       7A     -1.092386     8A     -1.060313     9A     -0.949150
      10A     -0.889692    11A     -0.838300    12A     -0.676987
      13A     -0.630618    14A     -0.630026    15A     -0.618843
      16A     -0.553729    17A     -0.545303    18A     -0.520794
      19A     -0.516375    20A     -0.513120    21A     -0.504452
      22A     -0.333102    23A     -0.331709

  @DF-RHF Final Energy:  -233.02113983530955

   => Energetics <=

    Nuclear Repulsion Energy =            206.5515701965976518
    One-Electron Energy =                -721.8973558093880456
    Two-Electron Energy =                 282.3246457774808960
    Total Energy =                       -233.0211398353095547
  Basis Set: (AUG-CC-PVTZ AUX)
    Blend: AUG-CC-PVTZ-RI
    Molecular point group: c1

    Geometry (in Angstrom), charge = 0, multiplicity = 1:

       Center              X                  Y                   Z               Mass
    ------------   -----------------  -----------------  -----------------  -----------------
         C            2.090501280076     0.515412973226     0.023804793605    12.000000000000
         C           -2.061258719924     0.515410973226    -0.023702206395    12.000000000000
         C            2.665242280076    -0.904108026774    -0.020574206395    12.000000000000
         C           -2.636009719924    -0.904103026774     0.020966793605    12.000000000000
         C            0.625813280076     0.528879973226     0.007239793605    12.000000000000
         C           -0.696567219924     0.528878873226    -0.007828606395    12.000000000000
         H            2.444899280076     1.030099973226     0.923857793605     1.007825032230
         H            2.465193280076     1.093312973226    -0.828399206395     1.007825032230
         H           -2.436107719924     1.093512973226     0.828330793605     1.007825032230
         H           -2.415484719924     1.029867973226    -0.923914206395     1.007825032230
         H            3.759330280076    -0.883950026774    -0.007041206395     1.007825032230
         H            2.343967280076    -1.422494026774    -0.926634206395     1.007825032230
         H            2.323555280076    -1.486137026774     0.838158793605     1.007825032230
         H           -2.293981719924    -1.486350026774    -0.837506206395     1.007825032230
         H           -2.315076719924    -1.422245026774     0.927264793605     1.007825032230
         H           -3.730092719924    -0.883956026774     0.006997793605     1.007825032230

  Basis Set: AUG-CC-PVTZ
    Blend: AUG-CC-PVTZ
  Basis Set: (AUG-CC-PVTZ AUX)
    Blend: AUG-CC-PVTZ-JKFIT
	 Reference Energy          =    -233.0211398353095547 [Eh]
	 Singles Energy            =      -0.0000000000000000 [Eh]
	 Same-Spin Energy          =      -0.2531395088960997 [Eh]
	 Opposite-Spin Energy      =      -0.8947607888346658 [Eh]
	 Correlation Energy        =      -1.1479002977307655 [Eh]
	 Total Energy              =    -234.1690401330403120 [Eh]

	 ================> DF-SCS-MP2 Energies <==================
	-----------------------------------------------------------
	 SCS Same-Spin Scale       =       0.3333333333333333 [-]
	 SCS Opposite-Spin Scale   =       1.2000000000000000 [-]
	 SCS Same-Spin Energy      =      -0.0843798362986999 [Eh]
	 SCS Opposite-Spin Energy  =      -1.0737129466015989 [Eh]
	 SCS Correlation Energy    =      -1.1580927829002987 [Eh]
	 SCS Total Energy          =    -234.1792326182098520 [Eh]
	-----------------------------------------------------------

  Dipole Moment: [D]
     X:    -0.0124      Y:    -0.1083      Z:    -0.0011     Total:     0.1090

*** Psi4 exiting successfully. Buy a developer a beer!
