                               Psi4 1.3.2 release

  ==> Input File <==

--------------------------------------------------------------------------
#psi4
#
memory 32 gb

molecule  {
0 1
  C        2.0754266     0.4898522     0.0233956
  C       -2.0758780     0.5154110    -0.0238690
  C        2.6506230    -0.9041080    -0.0207410
  C       -2.6506290    -0.9041030     0.0208000
  C        0.6111940     0.5288800     0.0070730
  C       -0.6110046     0.5075449    -0.0070519
  H        2.4302800     1.0301000     0.9236910
  H        2.4505740     1.0933130    -0.8285660
  H       -2.4507270     1.0935130     0.8281640
  H       -2.4301040     1.0298680    -0.9240810
  H        3.7447110    -0.8839500    -0.0072080
  H        2.3293480    -1.4224940    -0.9268010
  H        2.3089360    -1.4861370     0.8379920
  H       -2.3086010    -1.4863500    -0.8376730
  H       -2.3296960    -1.4222450     0.9270980
  H       -3.7447120    -0.8839560     0.0068310
units angstrom
no_reorient  #important for SAPT in psi4, default
symmetry c1  #important for SAPT in psi4, default
}

set PROPERTIES_ORIGIN ["COM"]
properties('MP2/aug-cc-pvtz', properties = ['dipole'])
--------------------------------------------------------------------------

    Molecular point group: c1
  Charge       = 0
  Multiplicity = 1
  Basis Set: AUG-CC-PVTZ
    Blend: AUG-CC-PVTZ
  Basis Set: (AUG-CC-PVTZ AUX)
    Blend: AUG-CC-PVTZ-JKFIT

    Orbital Energies [Eh]
    ---------------------

    Doubly Occupied:

       1A    -11.247801     2A    -11.246697     3A    -11.220001
       4A    -11.219408     5A    -11.219210     6A    -11.216029
       7A     -1.081558     8A     -1.053601     9A     -0.968737
      10A     -0.878007    11A     -0.844322    12A     -0.663532
      13A     -0.627412    14A     -0.623880    15A     -0.614660
      16A     -0.551819    17A     -0.543151    18A     -0.517494
      19A     -0.512221    20A     -0.508916    21A     -0.498880
      22A     -0.357791    23A     -0.354902

  @DF-RHF Final Energy:  -233.05862058425680

   => Energetics <=

    Nuclear Repulsion Energy =            207.0480723247845276
    One-Electron Energy =                -723.0733249892650747
    Two-Electron Energy =                 282.9666320802238033
    Total Energy =                       -233.0586205842568006
  Basis Set: (AUG-CC-PVTZ AUX)
    Blend: AUG-CC-PVTZ-RI
    Molecular point group: c1

    Geometry (in Angstrom), charge = 0, multiplicity = 1:

       Center              X                  Y                   Z               Mass
    ------------   -----------------  -----------------  -----------------  -----------------
         C            2.075465671612     0.496708284288     0.023459891420    12.000000000000
         C           -2.075838928388     0.522267084288    -0.023804708580    12.000000000000
         C            2.650662071612    -0.897251915712    -0.020676708580    12.000000000000
         C           -2.650589928388    -0.897246915712     0.020864291420    12.000000000000
         C            0.611233071612     0.535736084288     0.007137291420    12.000000000000
         C           -0.610965528388     0.514400984288    -0.006987608580    12.000000000000
         H            2.430319071612     1.036956084288     0.923755291420     1.007825032230
         H            2.450613071612     1.100169084288    -0.828501708580     1.007825032230
         H           -2.450687928388     1.100369084288     0.828228291420     1.007825032230
         H           -2.430064928388     1.036724084288    -0.924016708580     1.007825032230
         H            3.744750071612    -0.877093915712    -0.007143708580     1.007825032230
         H            2.329387071612    -1.415637915712    -0.926736708580     1.007825032230
         H            2.308975071612    -1.479280915712     0.838056291420     1.007825032230
         H           -2.308561928388    -1.479493915712    -0.837608708580     1.007825032230
         H           -2.329656928388    -1.415388915712     0.927162291420     1.007825032230
         H           -3.744672928388    -0.877099915712     0.006895291420     1.007825032230

  Basis Set: AUG-CC-PVTZ
    Blend: AUG-CC-PVTZ
  Basis Set: (AUG-CC-PVTZ AUX)
    Blend: AUG-CC-PVTZ-JKFIT
	 Reference Energy          =    -233.0586205842568006 [Eh]
	 Singles Energy            =      -0.0000000000000000 [Eh]
	 Same-Spin Energy          =      -0.2471239873644311 [Eh]
	 Opposite-Spin Energy      =      -0.8844913230060819 [Eh]
	 Correlation Energy        =      -1.1316153103705129 [Eh]
	 Total Energy              =    -234.1902358946273068 [Eh]

	 ================> DF-SCS-MP2 Energies <==================
	-----------------------------------------------------------
	 SCS Same-Spin Scale       =       0.3333333333333333 [-]
	 SCS Opposite-Spin Scale   =       1.2000000000000000 [-]
	 SCS Same-Spin Energy      =      -0.0823746624548103 [Eh]
	 SCS Opposite-Spin Energy  =      -1.0613895876072983 [Eh]
	 SCS Correlation Energy    =      -1.1437642500621086 [Eh]
	 SCS Total Energy          =    -234.2023848343189059 [Eh]
	-----------------------------------------------------------

  Dipole Moment: [D]
     X:     0.0027      Y:    -0.1097      Z:    -0.0004     Total:     0.1098

*** Psi4 exiting successfully. Buy a developer a beer!
