                               Psi4 1.3.2 release

  ==> Input File <==

--------------------------------------------------------------------------
#psi4
#
memory 32 gb

molecule  {
0 1
  C        2.0758820     0.5154130     0.0236380
  C       -2.0758780     0.5154110    -0.0238690
  C        2.6506230    -0.9041080    -0.0207410
  C       -2.6506290    -0.9041030     0.0208000
  C        0.6135991     0.4904913    -0.0592740
  C       -0.6111930     0.5288790    -0.0068560
  H        2.4840517     1.0194719     0.9067678
  H        2.4505740     1.0933130    -0.8285660
  H       -2.4507270     1.0935130     0.8281640
  H       -2.4301040     1.0298680    -0.9240810
  H        3.7447110    -0.8839500    -0.0072080
  H        2.3293480    -1.4224940    -0.9268010
  H        2.3089360    -1.4861370     0.8379920
  H       -2.3086010    -1.4863500    -0.8376730
  H       -2.3296960    -1.4222450     0.9270980
  H       -3.7447120    -0.8839560     0.0068310
units angstrom
no_reorient  #important for SAPT in psi4, default
symmetry c1  #important for SAPT in psi4, default
}

set PROPERTIES_ORIGIN ["COM"]
properties('MP2/aug-cc-pvtz', properties = ['dipole'])
--------------------------------------------------------------------------

    Molecular point group: c1
  Charge       = 0
  Multiplicity = 1
  Basis Set: AUG-CC-PVTZ
    Blend: AUG-CC-PVTZ
  Basis Set: (AUG-CC-PVTZ AUX)
    Blend: AUG-CC-PVTZ-JKFIT

    Orbital Energies [Eh]
    ---------------------

    Doubly Occupied:

       1A    -11.247305     2A    -11.246451     3A    -11.221404
       4A    -11.220507     5A    -11.218925     6A    -11.218060
       7A     -1.080627     8A     -1.052230     9A     -0.967084
      10A     -0.877651    11A     -0.844790    12A     -0.667452
      13A     -0.629690    14A     -0.623542    15A     -0.613905
      16A     -0.545848    17A     -0.540860    18A     -0.517284
      19A     -0.514095    20A     -0.509404    21A     -0.500056
      22A     -0.356695    23A     -0.355534

  @DF-RHF Final Energy:  -233.05682881872772

   => Energetics <=

    Nuclear Repulsion Energy =            206.8334470789700958
    One-Electron Energy =                -722.6417500857950245
    Two-Electron Energy =                 282.7514741880971201
    Total Energy =                       -233.0568288187277517
  Basis Set: (AUG-CC-PVTZ AUX)
    Blend: AUG-CC-PVTZ-RI
    Molecular point group: c1

    Geometry (in Angstrom), charge = 0, multiplicity = 1:

       Center              X                  Y                   Z               Mass
    ------------   -----------------  -----------------  -----------------  -----------------
         C            2.074870151729     0.521155961940     0.033546068808    12.000000000000
         C           -2.076889848271     0.521153961940    -0.013960931192    12.000000000000
         C            2.649611151729    -0.898365038060    -0.010832931192    12.000000000000
         C           -2.651640848271    -0.898360038060     0.030708068808    12.000000000000
         C            0.612587251729     0.496234261940    -0.049365931192    12.000000000000
         C           -0.612204848271     0.534621961940     0.003052068808    12.000000000000
         H            2.483039851729     1.025214861940     0.916675868808     1.007825032230
         H            2.449562151729     1.099055961940    -0.818657931192     1.007825032230
         H           -2.451738848271     1.099255961940     0.838072068808     1.007825032230
         H           -2.431115848271     1.035610961940    -0.914172931192     1.007825032230
         H            3.743699151729    -0.878207038060     0.002700068808     1.007825032230
         H            2.328336151729    -1.416751038060    -0.916892931192     1.007825032230
         H            2.307924151729    -1.480394038060     0.847900068808     1.007825032230
         H           -2.309612848271    -1.480607038060    -0.827764931192     1.007825032230
         H           -2.330707848271    -1.416502038060     0.937006068808     1.007825032230
         H           -3.745723848271    -0.878213038060     0.016739068808     1.007825032230

  Basis Set: AUG-CC-PVTZ
    Blend: AUG-CC-PVTZ
  Basis Set: (AUG-CC-PVTZ AUX)
    Blend: AUG-CC-PVTZ-JKFIT
	 Reference Energy          =    -233.0568288187277233 [Eh]
	 Singles Energy            =      -0.0000000000000000 [Eh]
	 Same-Spin Energy          =      -0.2472775826844286 [Eh]
	 Opposite-Spin Energy      =      -0.8850524224329192 [Eh]
	 Correlation Energy        =      -1.1323300051173477 [Eh]
	 Total Energy              =    -234.1891588238450765 [Eh]

	 ================> DF-SCS-MP2 Energies <==================
	-----------------------------------------------------------
	 SCS Same-Spin Scale       =       0.3333333333333333 [-]
	 SCS Opposite-Spin Scale   =       1.2000000000000000 [-]
	 SCS Same-Spin Energy      =      -0.0824258608948095 [Eh]
	 SCS Opposite-Spin Energy  =      -1.0620629069195029 [Eh]
	 SCS Correlation Energy    =      -1.1444887678143125 [Eh]
	 SCS Total Energy          =    -234.2013175865420465 [Eh]
	-----------------------------------------------------------

  Dipole Moment: [D]
     X:    -0.0389      Y:    -0.0678      Z:     0.0516     Total:     0.0937

*** Psi4 exiting successfully. Buy a developer a beer!
