                               Psi4 1.3.2 release

  ==> Input File <==

--------------------------------------------------------------------------
#psi4
#
memory 32 gb

molecule  {
0 1
  C        2.0759424     0.5281954     0.0237573
  C       -2.0758780     0.5154110    -0.0238690
  C        2.6506230    -0.9041080    -0.0207410
  C       -2.6506290    -0.9041030     0.0208000
  C        0.6111940     0.5288800     0.0070730
  C       -0.6111476     0.5395464    -0.0067565
  H        2.4302800     1.0301000     0.9236910
  H        2.4505740     1.0933130    -0.8285660
  H       -2.4507270     1.0935130     0.8281640
  H       -2.4301040     1.0298680    -0.9240810
  H        3.7447110    -0.8839500    -0.0072080
  H        2.3293480    -1.4224940    -0.9268010
  H        2.3089360    -1.4861370     0.8379920
  H       -2.3086010    -1.4863500    -0.8376730
  H       -2.3296960    -1.4222450     0.9270980
  H       -3.7447120    -0.8839560     0.0068310
units angstrom
no_reorient  #important for SAPT in psi4, default
symmetry c1  #important for SAPT in psi4, default
}

set PROPERTIES_ORIGIN ["COM"]
properties('MP2/aug-cc-pvtz', properties = ['dipole'])
--------------------------------------------------------------------------

    Molecular point group: c1
  Charge       = 0
  Multiplicity = 1
  Basis Set: AUG-CC-PVTZ
    Blend: AUG-CC-PVTZ
  Basis Set: (AUG-CC-PVTZ AUX)
    Blend: AUG-CC-PVTZ-JKFIT

    Orbital Energies [Eh]
    ---------------------

    Doubly Occupied:

       1A    -11.246586     2A    -11.246066     3A    -11.220720
       4A    -11.220333     5A    -11.219222     6A    -11.215843
       7A     -1.079699     8A     -1.050776     9A     -0.966984
      10A     -0.878991    11A     -0.846209    12A     -0.663186
      13A     -0.626010    14A     -0.625130    15A     -0.615882
      16A     -0.545703    17A     -0.540895    18A     -0.516837
      19A     -0.513730    20A     -0.511351    21A     -0.502958
      22A     -0.356472    23A     -0.355833

  @DF-RHF Final Energy:  -233.05961155515251

   => Energetics <=

    Nuclear Repulsion Energy =            206.6903352230089297
    One-Electron Energy =                -722.3690598085297552
    Two-Electron Energy =                 282.6191130303683394
    Total Energy =                       -233.0596115551525145
  Basis Set: (AUG-CC-PVTZ AUX)
    Blend: AUG-CC-PVTZ-RI
    Molecular point group: c1

    Geometry (in Angstrom), charge = 0, multiplicity = 1:

       Center              X                  Y                   Z               Mass
    ------------   -----------------  -----------------  -----------------  -----------------
         C            2.075926967526     0.524766952190     0.023725522120    12.000000000000
         C           -2.075893432474     0.511982552190    -0.023900777880    12.000000000000
         C            2.650607567526    -0.907536447810    -0.020772777880    12.000000000000
         C           -2.650644432474    -0.907531447810     0.020768222120    12.000000000000
         C            0.611178567526     0.525451552190     0.007041222120    12.000000000000
         C           -0.611163032474     0.536117952190    -0.006788277880    12.000000000000
         H            2.430264567526     1.026671552190     0.923659222120     1.007825032230
         H            2.450558567526     1.089884552190    -0.828597777880     1.007825032230
         H           -2.450742432474     1.090084552190     0.828132222120     1.007825032230
         H           -2.430119432474     1.026439552190    -0.924112777880     1.007825032230
         H            3.744695567526    -0.887378447810    -0.007239777880     1.007825032230
         H            2.329332567526    -1.425922447810    -0.926832777880     1.007825032230
         H            2.308920567526    -1.489565447810     0.837960222120     1.007825032230
         H           -2.308616432474    -1.489778447810    -0.837704777880     1.007825032230
         H           -2.329711432474    -1.425673447810     0.927066222120     1.007825032230
         H           -3.744727432474    -0.887384447810     0.006799222120     1.007825032230

  Basis Set: AUG-CC-PVTZ
    Blend: AUG-CC-PVTZ
  Basis Set: (AUG-CC-PVTZ AUX)
    Blend: AUG-CC-PVTZ-JKFIT
	 Reference Energy          =    -233.0596115551525145 [Eh]
	 Singles Energy            =      -0.0000000000000000 [Eh]
	 Same-Spin Energy          =      -0.2468764164546113 [Eh]
	 Opposite-Spin Energy      =      -0.8841952273660169 [Eh]
	 Correlation Energy        =      -1.1310716438206281 [Eh]
	 Total Energy              =    -234.1906831989731472 [Eh]

	 ================> DF-SCS-MP2 Energies <==================
	-----------------------------------------------------------
	 SCS Same-Spin Scale       =       0.3333333333333333 [-]
	 SCS Opposite-Spin Scale   =       1.2000000000000000 [-]
	 SCS Same-Spin Energy      =      -0.0822921388182038 [Eh]
	 SCS Opposite-Spin Energy  =      -1.0610342728392201 [Eh]
	 SCS Correlation Energy    =      -1.1433264116574240 [Eh]
	 SCS Total Energy          =    -234.2029379668099409 [Eh]
	-----------------------------------------------------------

  Dipole Moment: [D]
     X:    -0.0014      Y:    -0.1120      Z:    -0.0004     Total:     0.1120

*** Psi4 exiting successfully. Buy a developer a beer!
