                               Psi4 1.3.2 release

  ==> Input File <==

--------------------------------------------------------------------------
#psi4
#
memory 32 gb

molecule  {
0 1
  C        2.0758820     0.5154130     0.0236380
  C       -2.0758780     0.5154110    -0.0238690
  C        2.6506230    -0.9041080    -0.0207410
  C       -2.6506290    -0.9041030     0.0208000
  C        0.6113161     0.5224816    -0.0039929
  C       -0.6111930     0.5288790    -0.0068560
  H        2.4393134     1.0284259     0.9210406
  H        2.4505740     1.0933130    -0.8285660
  H       -2.4507270     1.0935130     0.8281640
  H       -2.4301040     1.0298680    -0.9240810
  H        3.7447110    -0.8839500    -0.0072080
  H        2.3293480    -1.4224940    -0.9268010
  H        2.3089360    -1.4861370     0.8379920
  H       -2.3086010    -1.4863500    -0.8376730
  H       -2.3296960    -1.4222450     0.9270980
  H       -3.7447120    -0.8839560     0.0068310
units angstrom
no_reorient  #important for SAPT in psi4, default
symmetry c1  #important for SAPT in psi4, default
}

set PROPERTIES_ORIGIN ["COM"]
properties('MP2/aug-cc-pvtz', properties = ['dipole'])
--------------------------------------------------------------------------

    Molecular point group: c1
  Charge       = 0
  Multiplicity = 1
  Basis Set: AUG-CC-PVTZ
    Blend: AUG-CC-PVTZ
  Basis Set: (AUG-CC-PVTZ AUX)
    Blend: AUG-CC-PVTZ-JKFIT

    Orbital Energies [Eh]
    ---------------------

    Doubly Occupied:

       1A    -11.246681     2A    -11.246590     3A    -11.220245
       4A    -11.220014     5A    -11.219417     6A    -11.216039
       7A     -1.080320     8A     -1.051760     9A     -0.967564
      10A     -0.878461    11A     -0.845519    12A     -0.663871
      13A     -0.626969    14A     -0.624444    15A     -0.615338
      16A     -0.546002    17A     -0.542791    18A     -0.517096
      19A     -0.513571    20A     -0.510184    21A     -0.501665
      22A     -0.356955    23A     -0.355676

  @DF-RHF Final Energy:  -233.05954848998434

   => Energetics <=

    Nuclear Repulsion Energy =            206.8224648746532353
    One-Electron Energy =                -722.6296861557233342
    Two-Electron Energy =                 282.7476727910857335
    Total Energy =                       -233.0595484899843086
  Basis Set: (AUG-CC-PVTZ AUX)
    Blend: AUG-CC-PVTZ-RI
    Molecular point group: c1

    Geometry (in Angstrom), charge = 0, multiplicity = 1:

       Center              X                  Y                   Z               Mass
    ------------   -----------------  -----------------  -----------------  -----------------
         C            2.075753264835     0.516368973136     0.025288611047    12.000000000000
         C           -2.076006735165     0.516366973136    -0.022218388953    12.000000000000
         C            2.650494264835    -0.903152026864    -0.019090388953    12.000000000000
         C           -2.650757735165    -0.903147026864     0.022450611047    12.000000000000
         C            0.611187364835     0.523437573136    -0.002342288953    12.000000000000
         C           -0.611321735165     0.529834973136    -0.005205388953    12.000000000000
         H            2.439184664835     1.029381873136     0.922691211047     1.007825032230
         H            2.450445264835     1.094268973136    -0.826915388953     1.007825032230
         H           -2.450855735165     1.094468973136     0.829814611047     1.007825032230
         H           -2.430232735165     1.030823973136    -0.922430388953     1.007825032230
         H            3.744582264835    -0.882994026864    -0.005557388953     1.007825032230
         H            2.329219264835    -1.421538026864    -0.925150388953     1.007825032230
         H            2.308807264835    -1.485181026864     0.839642611047     1.007825032230
         H           -2.308729735165    -1.485394026864    -0.836022388953     1.007825032230
         H           -2.329824735165    -1.421289026864     0.928748611047     1.007825032230
         H           -3.744840735165    -0.883000026864     0.008481611047     1.007825032230

  Basis Set: AUG-CC-PVTZ
    Blend: AUG-CC-PVTZ
  Basis Set: (AUG-CC-PVTZ AUX)
    Blend: AUG-CC-PVTZ-JKFIT
	 Reference Energy          =    -233.0595484899843370 [Eh]
	 Singles Energy            =      -0.0000000000000000 [Eh]
	 Same-Spin Energy          =      -0.2469623954184644 [Eh]
	 Opposite-Spin Energy      =      -0.8842868601489937 [Eh]
	 Correlation Energy        =      -1.1312492555674580 [Eh]
	 Total Energy              =    -234.1907977455518051 [Eh]

	 ================> DF-SCS-MP2 Energies <==================
	-----------------------------------------------------------
	 SCS Same-Spin Scale       =       0.3333333333333333 [-]
	 SCS Opposite-Spin Scale   =       1.2000000000000000 [-]
	 SCS Same-Spin Energy      =      -0.0823207984728214 [Eh]
	 SCS Opposite-Spin Energy  =      -1.0611442321787925 [Eh]
	 SCS Correlation Energy    =      -1.1434650306516139 [Eh]
	 SCS Total Energy          =    -234.2030135206359489 [Eh]
	-----------------------------------------------------------

  Dipole Moment: [D]
     X:    -0.0042      Y:    -0.1035      Z:     0.0083     Total:     0.1039

*** Psi4 exiting successfully. Buy a developer a beer!
