                               Psi4 1.3.2 release

  ==> Input File <==

--------------------------------------------------------------------------
#psi4
#
memory 32 gb

molecule  {
0 1
  C        2.0758820     0.5154130     0.0236380
  C       -2.0758780     0.5154110    -0.0238690
  C        2.6506230    -0.9041080    -0.0207410
  C       -2.6506290    -0.9041030     0.0208000
  C        0.4112152     0.5307187     0.0048113
  C       -0.6111930     0.5288790    -0.0068560
  H        2.4302800     1.0301000     0.9236910
  H        2.4505740     1.0933130    -0.8285660
  H       -2.4507270     1.0935130     0.8281640
  H       -2.4301040     1.0298680    -0.9240810
  H        3.7447110    -0.8839500    -0.0072080
  H        2.3293480    -1.4224940    -0.9268010
  H        2.3089360    -1.4861370     0.8379920
  H       -2.3086010    -1.4863500    -0.8376730
  H       -2.3296960    -1.4222450     0.9270980
  H       -3.7447120    -0.8839560     0.0068310
units angstrom
no_reorient  #important for SAPT in psi4, default
symmetry c1  #important for SAPT in psi4, default
}

set PROPERTIES_ORIGIN ["COM"]
properties('MP2/aug-cc-pvtz', properties = ['dipole'])
--------------------------------------------------------------------------

    Molecular point group: c1
  Charge       = 0
  Multiplicity = 1
  Basis Set: AUG-CC-PVTZ
    Blend: AUG-CC-PVTZ
  Basis Set: (AUG-CC-PVTZ AUX)
    Blend: AUG-CC-PVTZ-JKFIT

    Orbital Energies [Eh]
    ---------------------

    Doubly Occupied:

       1A    -11.259724     2A    -11.235208     3A    -11.220261
       4A    -11.216300     5A    -11.168566     6A    -11.151997
       7A     -1.086797     8A     -1.032770     9A     -1.000537
      10A     -0.862324    11A     -0.842232    12A     -0.639611
      13A     -0.619572    14A     -0.609662    15A     -0.607089
      16A     -0.543262    17A     -0.529092    18A     -0.511549
      19A     -0.509545    20A     -0.500796    21A     -0.497392
      22A     -0.410377    23A     -0.408644

  @DF-RHF Final Energy:  -232.96517363503372

   => Energetics <=

    Nuclear Repulsion Energy =            208.5199628485889036
    One-Electron Energy =                -726.0436557065427223
    Two-Electron Energy =                 284.5585192229201539
    Total Energy =                       -232.9651736350336932
  Basis Set: (AUG-CC-PVTZ AUX)
    Blend: AUG-CC-PVTZ-RI
    Molecular point group: c1

    Geometry (in Angstrom), charge = 0, multiplicity = 1:

       Center              X                  Y                   Z               Mass
    ------------   -----------------  -----------------  -----------------  -----------------
         C            2.105119325603     0.515144137086     0.023968876050    12.000000000000
         C           -2.046640674397     0.515142137086    -0.023538123950    12.000000000000
         C            2.679860325603    -0.904376862914    -0.020410123950    12.000000000000
         C           -2.621391674397    -0.904371862914     0.021130876050    12.000000000000
         C            0.440452525603     0.530449837086     0.005142176050    12.000000000000
         C           -0.581955674397     0.528610137086    -0.006525123950    12.000000000000
         H            2.459517325603     1.029831137086     0.924021876050     1.007825032230
         H            2.479811325603     1.093044137086    -0.828235123950     1.007825032230
         H           -2.421489674397     1.093244137086     0.828494876050     1.007825032230
         H           -2.400866674397     1.029599137086    -0.923750123950     1.007825032230
         H            3.773948325603    -0.884218862914    -0.006877123950     1.007825032230
         H            2.358585325603    -1.422762862914    -0.926470123950     1.007825032230
         H            2.338173325603    -1.486405862914     0.838322876050     1.007825032230
         H           -2.279363674397    -1.486618862914    -0.837342123950     1.007825032230
         H           -2.300458674397    -1.422513862914     0.927428876050     1.007825032230
         H           -3.715474674397    -0.884224862914     0.007161876050     1.007825032230

  Basis Set: AUG-CC-PVTZ
    Blend: AUG-CC-PVTZ
  Basis Set: (AUG-CC-PVTZ AUX)
    Blend: AUG-CC-PVTZ-JKFIT
	 Reference Energy          =    -232.9651736350337217 [Eh]
	 Singles Energy            =      -0.0000000000000000 [Eh]
	 Same-Spin Energy          =      -0.2384581232444823 [Eh]
	 Opposite-Spin Energy      =      -0.8697696810547667 [Eh]
	 Correlation Energy        =      -1.1082278042992491 [Eh]
	 Total Energy              =    -234.0734014393329687 [Eh]

	 ================> DF-SCS-MP2 Energies <==================
	-----------------------------------------------------------
	 SCS Same-Spin Scale       =       0.3333333333333333 [-]
	 SCS Opposite-Spin Scale   =       1.2000000000000000 [-]
	 SCS Same-Spin Energy      =      -0.0794860410814941 [Eh]
	 SCS Opposite-Spin Energy  =      -1.0437236172657200 [Eh]
	 SCS Correlation Energy    =      -1.1232096583472142 [Eh]
	 SCS Total Energy          =    -234.0883832933809288 [Eh]
	-----------------------------------------------------------

  Dipole Moment: [D]
     X:     0.1947      Y:    -0.1167      Z:    -0.0001     Total:     0.2270

*** Psi4 exiting successfully. Buy a developer a beer!
