                               Psi4 1.3.2 release

  ==> Input File <==

--------------------------------------------------------------------------
#psi4
#
memory 32 gb

molecule  {
0 1
  C        2.0758820     0.5154130     0.0236380
  C       -2.0758780     0.5154110    -0.0238690
  C        2.6506230    -0.9041080    -0.0207410
  C       -2.6506290    -0.9041030     0.0208000
  C        0.6111940     0.5288800     0.0070730
  C       -0.7111820     0.5279596    -0.0080174
  H        2.4302800     1.0301000     0.9236910
  H        2.4505740     1.0933130    -0.8285660
  H       -2.4507270     1.0935130     0.8281640
  H       -2.4301040     1.0298680    -0.9240810
  H        3.7447110    -0.8839500    -0.0072080
  H        2.3293480    -1.4224940    -0.9268010
  H        2.3089360    -1.4861370     0.8379920
  H       -2.3086010    -1.4863500    -0.8376730
  H       -2.3296960    -1.4222450     0.9270980
  H       -3.7447120    -0.8839560     0.0068310
units angstrom
no_reorient  #important for SAPT in psi4, default
symmetry c1  #important for SAPT in psi4, default
}

set PROPERTIES_ORIGIN ["COM"]
properties('MP2/aug-cc-pvtz', properties = ['dipole'])
--------------------------------------------------------------------------

    Molecular point group: c1
  Charge       = 0
  Multiplicity = 1
  Basis Set: AUG-CC-PVTZ
    Blend: AUG-CC-PVTZ
  Basis Set: (AUG-CC-PVTZ AUX)
    Blend: AUG-CC-PVTZ-JKFIT

    Orbital Energies [Eh]
    ---------------------

    Doubly Occupied:

       1A    -11.250883     2A    -11.245123     3A    -11.240781
       4A    -11.239234     5A    -11.221807     6A    -11.221285
       7A     -1.092398     8A     -1.060316     9A     -0.949139
      10A     -0.889669    11A     -0.838297    12A     -0.677027
      13A     -0.630634    14A     -0.630025    15A     -0.618842
      16A     -0.553677    17A     -0.545307    18A     -0.520811
      19A     -0.516370    20A     -0.513110    21A     -0.504449
      22A     -0.333098    23A     -0.331719

  @DF-RHF Final Energy:  -233.02113794300044

   => Energetics <=

    Nuclear Repulsion Energy =            206.5544649355544777
    One-Electron Energy =                -721.9032038886682585
    Two-Electron Energy =                 282.3276010101133124
    Total Energy =                       -233.0211379430004399
  Basis Set: (AUG-CC-PVTZ AUX)
    Blend: AUG-CC-PVTZ-RI
    Molecular point group: c1

    Geometry (in Angstrom), charge = 0, multiplicity = 1:

       Center              X                  Y                   Z               Mass
    ------------   -----------------  -----------------  -----------------  -----------------
         C            2.090500622167     0.515547376676     0.023808010048    12.000000000000
         C           -2.061259377833     0.515545376676    -0.023698989952    12.000000000000
         C            2.665241622167    -0.903973623324    -0.020570989952    12.000000000000
         C           -2.636010377833    -0.903968623324     0.020970010048    12.000000000000
         C            0.625812622167     0.529014376676     0.007243010048    12.000000000000
         C           -0.696563377833     0.528093976676    -0.007847389952    12.000000000000
         H            2.444898622167     1.030234376676     0.923861010048     1.007825032230
         H            2.465192622167     1.093447376676    -0.828395989952     1.007825032230
         H           -2.436108377833     1.093647376676     0.828334010048     1.007825032230
         H           -2.415485377833     1.030002376676    -0.923910989952     1.007825032230
         H            3.759329622167    -0.883815623324    -0.007037989952     1.007825032230
         H            2.343966622167    -1.422359623324    -0.926630989952     1.007825032230
         H            2.323554622167    -1.486002623324     0.838162010048     1.007825032230
         H           -2.293982377833    -1.486215623324    -0.837502989952     1.007825032230
         H           -2.315077377833    -1.422110623324     0.927268010048     1.007825032230
         H           -3.730093377833    -0.883821623324     0.007001010048     1.007825032230

  Basis Set: AUG-CC-PVTZ
    Blend: AUG-CC-PVTZ
  Basis Set: (AUG-CC-PVTZ AUX)
    Blend: AUG-CC-PVTZ-JKFIT
	 Reference Energy          =    -233.0211379430004399 [Eh]
	 Singles Energy            =      -0.0000000000000000 [Eh]
	 Same-Spin Energy          =      -0.2531406126539218 [Eh]
	 Opposite-Spin Energy      =      -0.8947621846789326 [Eh]
	 Correlation Energy        =      -1.1479027973328546 [Eh]
	 Total Energy              =    -234.1690407403332870 [Eh]

	 ================> DF-SCS-MP2 Energies <==================
	-----------------------------------------------------------
	 SCS Same-Spin Scale       =       0.3333333333333333 [-]
	 SCS Opposite-Spin Scale   =       1.2000000000000000 [-]
	 SCS Same-Spin Energy      =      -0.0843802042179739 [Eh]
	 SCS Opposite-Spin Energy  =      -1.0737146216147191 [Eh]
	 SCS Correlation Energy    =      -1.1580948258326931 [Eh]
	 SCS Total Energy          =    -234.1792327688331454 [Eh]
	-----------------------------------------------------------

  Dipole Moment: [D]
     X:    -0.0121      Y:    -0.1074      Z:    -0.0010     Total:     0.1081

*** Psi4 exiting successfully. Buy a developer a beer!
