                               Psi4 1.3.2 release

  ==> Input File <==

--------------------------------------------------------------------------
#psi4
#
memory 32 gb

molecule  {
0 1
  C        2.0758820     0.5154130     0.0236380
  C       -2.0758780     0.5154110    -0.0238690
  C        2.6753197    -0.8938774    -0.0200855
  C       -2.6506290    -0.9041030     0.0208000
  C        0.6116415     0.5544254     0.0079972
  C       -0.6111930     0.5288790    -0.0068560
  H        2.4302800     1.0301000     0.9236910
  H        2.4505740     1.0933130    -0.8285660
  H       -2.4507270     1.0935130     0.8281640
  H       -2.4301040     1.0298680    -0.9240810
  H        3.7447110    -0.8839500    -0.0072080
  H        2.3293480    -1.4224940    -0.9268010
  H        2.3089360    -1.4861370     0.8379920
  H       -2.3086010    -1.4863500    -0.8376730
  H       -2.3296960    -1.4222450     0.9270980
  H       -3.7447120    -0.8839560     0.0068310
units angstrom
no_reorient  #important for SAPT in psi4, default
symmetry c1  #important for SAPT in psi4, default
}

set PROPERTIES_ORIGIN ["COM"]
properties('MP2/aug-cc-pvtz', properties = ['dipole'])
--------------------------------------------------------------------------

    Molecular point group: c1
  Charge       = 0
  Multiplicity = 1
  Basis Set: AUG-CC-PVTZ
    Blend: AUG-CC-PVTZ
  Basis Set: (AUG-CC-PVTZ AUX)
    Blend: AUG-CC-PVTZ-JKFIT

    Orbital Energies [Eh]
    ---------------------

    Doubly Occupied:

       1A    -11.246790     2A    -11.246524     3A    -11.220705
       4A    -11.220435     5A    -11.219936     6A    -11.216572
       7A     -1.080062     8A     -1.051540     9A     -0.968077
      10A     -0.879484    11A     -0.845712    12A     -0.662861
      13A     -0.627002    14A     -0.623785    15A     -0.614050
      16A     -0.551376    17A     -0.544941    18A     -0.516258
      19A     -0.514395    20A     -0.508557    21A     -0.498417
      22A     -0.357298    23A     -0.355326

  @DF-RHF Final Energy:  -233.05854653297979

   => Energetics <=

    Nuclear Repulsion Energy =            206.6182374833466042
    One-Electron Energy =                -722.2133607650353042
    Two-Electron Energy =                 282.5365767487089670
    Total Energy =                       -233.0585465329797898
  Basis Set: (AUG-CC-PVTZ AUX)
    Blend: AUG-CC-PVTZ-RI
    Molecular point group: c1

    Geometry (in Angstrom), charge = 0, multiplicity = 1:

       Center              X                  Y                   Z               Mass
    ------------   -----------------  -----------------  -----------------  -----------------
         C            2.072205904698     0.510182437752     0.023407255891    12.000000000000
         C           -2.079554095302     0.510180437752    -0.024099744109    12.000000000000
         C            2.671643604698    -0.899107962248    -0.020316244109    12.000000000000
         C           -2.654305095302    -0.909333562248     0.020569255891    12.000000000000
         C            0.607965404698     0.549194837752     0.007766455891    12.000000000000
         C           -0.614869095302     0.523648437752    -0.007086744109    12.000000000000
         H            2.426603904698     1.024869437752     0.923460255891     1.007825032230
         H            2.446897904698     1.088082437752    -0.828796744109     1.007825032230
         H           -2.454403095302     1.088282437752     0.827933255891     1.007825032230
         H           -2.433780095302     1.024637437752    -0.924311744109     1.007825032230
         H            3.741034904698    -0.889180562248    -0.007438744109     1.007825032230
         H            2.325671904698    -1.427724562248    -0.927031744109     1.007825032230
         H            2.305259904698    -1.491367562248     0.837761255891     1.007825032230
         H           -2.312277095302    -1.491580562248    -0.837903744109     1.007825032230
         H           -2.333372095302    -1.427475562248     0.926867255891     1.007825032230
         H           -3.748388095302    -0.889186562248     0.006600255891     1.007825032230

  Basis Set: AUG-CC-PVTZ
    Blend: AUG-CC-PVTZ
  Basis Set: (AUG-CC-PVTZ AUX)
    Blend: AUG-CC-PVTZ-JKFIT
	 Reference Energy          =    -233.0585465329797898 [Eh]
	 Singles Energy            =      -0.0000000000000000 [Eh]
	 Same-Spin Energy          =      -0.2469765950137772 [Eh]
	 Opposite-Spin Energy      =      -0.8843689391104501 [Eh]
	 Correlation Energy        =      -1.1313455341242273 [Eh]
	 Total Energy              =    -234.1898920671040116 [Eh]

	 ================> DF-SCS-MP2 Energies <==================
	-----------------------------------------------------------
	 SCS Same-Spin Scale       =       0.3333333333333333 [-]
	 SCS Opposite-Spin Scale   =       1.2000000000000000 [-]
	 SCS Same-Spin Energy      =      -0.0823255316712591 [Eh]
	 SCS Opposite-Spin Energy  =      -1.0612427269325402 [Eh]
	 SCS Correlation Energy    =      -1.1435682586037992 [Eh]
	 SCS Total Energy          =    -234.2021147915835968 [Eh]
	-----------------------------------------------------------

  Dipole Moment: [D]
     X:     0.0011      Y:    -0.1325      Z:    -0.0011     Total:     0.1325

*** Psi4 exiting successfully. Buy a developer a beer!
