                               Psi4 1.3.2 release

  ==> Input File <==

--------------------------------------------------------------------------
#psi4
#
memory 32 gb

molecule  {
0 1
  C        2.0758820     0.5154130     0.0236380
  C       -2.0758780     0.5154110    -0.0238690
  C        2.6629937    -0.8990465    -0.0204149
  C       -2.6506290    -0.9041030     0.0208000
  C        0.6113620     0.5416537     0.0075345
  C       -0.6111930     0.5288790    -0.0068560
  H        2.4302800     1.0301000     0.9236910
  H        2.4505740     1.0933130    -0.8285660
  H       -2.4507270     1.0935130     0.8281640
  H       -2.4301040     1.0298680    -0.9240810
  H        3.7447110    -0.8839500    -0.0072080
  H        2.3293480    -1.4224940    -0.9268010
  H        2.3089360    -1.4861370     0.8379920
  H       -2.3086010    -1.4863500    -0.8376730
  H       -2.3296960    -1.4222450     0.9270980
  H       -3.7447120    -0.8839560     0.0068310
units angstrom
no_reorient  #important for SAPT in psi4, default
symmetry c1  #important for SAPT in psi4, default
}

set PROPERTIES_ORIGIN ["COM"]
properties('MP2/aug-cc-pvtz', properties = ['dipole'])
--------------------------------------------------------------------------

    Molecular point group: c1
  Charge       = 0
  Multiplicity = 1
  Basis Set: AUG-CC-PVTZ
    Blend: AUG-CC-PVTZ
  Basis Set: (AUG-CC-PVTZ AUX)
    Blend: AUG-CC-PVTZ-JKFIT

    Orbital Energies [Eh]
    ---------------------

    Doubly Occupied:

       1A    -11.246688     2A    -11.246553     3A    -11.220430
       4A    -11.220318     5A    -11.219554     6A    -11.216180
       7A     -1.080153     8A     -1.051606     9A     -0.967820
      10A     -0.879054    11A     -0.845649    12A     -0.663067
      13A     -0.626742    14A     -0.624144    15A     -0.614777
      16A     -0.547895    17A     -0.544631    18A     -0.516673
      19A     -0.514188    20A     -0.509266    21A     -0.500355
      22A     -0.357130    23A     -0.355446

  @DF-RHF Final Energy:  -233.05937151634643

   => Energetics <=

    Nuclear Repulsion Energy =            206.7151735643661254
    One-Electron Energy =                -722.4124568332350691
    Two-Electron Energy =                 282.6379117525224274
    Total Energy =                       -233.0593715163464594
  Basis Set: (AUG-CC-PVTZ AUX)
    Blend: AUG-CC-PVTZ-RI
    Molecular point group: c1

    Geometry (in Angstrom), charge = 0, multiplicity = 1:

       Center              X                  Y                   Z               Mass
    ------------   -----------------  -----------------  -----------------  -----------------
         C            2.074048853340     0.512805417642     0.023523062453    12.000000000000
         C           -2.077711146660     0.512803417642    -0.023983937547    12.000000000000
         C            2.661160553340    -0.901654082358    -0.020529837547    12.000000000000
         C           -2.652462146660    -0.906710582358     0.020685062453    12.000000000000
         C            0.609528853340     0.539046117642     0.007419562453    12.000000000000
         C           -0.613026146660     0.526271417642    -0.006970937547    12.000000000000
         H            2.428446853340     1.027492417642     0.923576062453     1.007825032230
         H            2.448740853340     1.090705417642    -0.828680937547     1.007825032230
         H           -2.452560146660     1.090905417642     0.828049062453     1.007825032230
         H           -2.431937146660     1.027260417642    -0.924195937547     1.007825032230
         H            3.742877853340    -0.886557582358    -0.007322937547     1.007825032230
         H            2.327514853340    -1.425101582358    -0.926915937547     1.007825032230
         H            2.307102853340    -1.488744582358     0.837877062453     1.007825032230
         H           -2.310434146660    -1.488957582358    -0.837787937547     1.007825032230
         H           -2.331529146660    -1.424852582358     0.926983062453     1.007825032230
         H           -3.746545146660    -0.886563582358     0.006716062453     1.007825032230

  Basis Set: AUG-CC-PVTZ
    Blend: AUG-CC-PVTZ
  Basis Set: (AUG-CC-PVTZ AUX)
    Blend: AUG-CC-PVTZ-JKFIT
	 Reference Energy          =    -233.0593715163464310 [Eh]
	 Singles Energy            =      -0.0000000000000000 [Eh]
	 Same-Spin Energy          =      -0.2469509612598158 [Eh]
	 Opposite-Spin Energy      =      -0.8842809777968224 [Eh]
	 Correlation Energy        =      -1.1312319390566381 [Eh]
	 Total Energy              =    -234.1906034554030782 [Eh]

	 ================> DF-SCS-MP2 Energies <==================
	-----------------------------------------------------------
	 SCS Same-Spin Scale       =       0.3333333333333333 [-]
	 SCS Opposite-Spin Scale   =       1.2000000000000000 [-]
	 SCS Same-Spin Energy      =      -0.0823169870866053 [Eh]
	 SCS Opposite-Spin Energy  =      -1.0611371733561867 [Eh]
	 SCS Correlation Energy    =      -1.1434541604427919 [Eh]
	 SCS Total Energy          =    -234.2028256767892174 [Eh]
	-----------------------------------------------------------

  Dipole Moment: [D]
     X:     0.0015      Y:    -0.1218      Z:    -0.0007     Total:     0.1218

*** Psi4 exiting successfully. Buy a developer a beer!
