                               Psi4 1.3.2 release

  ==> Input File <==

--------------------------------------------------------------------------
#psi4
#
memory 32 gb

molecule  {
0 1
  C        2.0758820     0.5154130     0.0236380
  C       -2.0758780     0.5154110    -0.0238690
  C        2.6506230    -0.9041080    -0.0207410
  C       -2.6506290    -0.9041030     0.0208000
  C        0.6123515     0.5032851    -0.0371746
  C       -0.6111930     0.5288790    -0.0068560
  H        2.4662449     1.0231696     0.9126802
  H        2.4505740     1.0933130    -0.8285660
  H       -2.4507270     1.0935130     0.8281640
  H       -2.4301040     1.0298680    -0.9240810
  H        3.7447110    -0.8839500    -0.0072080
  H        2.3293480    -1.4224940    -0.9268010
  H        2.3089360    -1.4861370     0.8379920
  H       -2.3086010    -1.4863500    -0.8376730
  H       -2.3296960    -1.4222450     0.9270980
  H       -3.7447120    -0.8839560     0.0068310
units angstrom
no_reorient  #important for SAPT in psi4, default
symmetry c1  #important for SAPT in psi4, default
}

set PROPERTIES_ORIGIN ["COM"]
properties('MP2/aug-cc-pvtz', properties = ['dipole'])
--------------------------------------------------------------------------

    Molecular point group: c1
  Charge       = 0
  Multiplicity = 1
  Basis Set: AUG-CC-PVTZ
    Blend: AUG-CC-PVTZ
  Basis Set: (AUG-CC-PVTZ AUX)
    Blend: AUG-CC-PVTZ-JKFIT

    Orbital Energies [Eh]
    ---------------------

    Doubly Occupied:

       1A    -11.247005     2A    -11.246516     3A    -11.220378
       4A    -11.220362     5A    -11.219372     6A    -11.217007
       7A     -1.080494     8A     -1.052002     9A     -0.967392
      10A     -0.877923    11A     -0.845147    12A     -0.665894
      13A     -0.628626    14A     -0.623822    15A     -0.614615
      16A     -0.545781    17A     -0.541722    18A     -0.517223
      19A     -0.513902    20A     -0.509680    21A     -0.500834
      22A     -0.356891    23A     -0.355765

  @DF-RHF Final Energy:  -233.05836689225578

   => Energetics <=

    Nuclear Repulsion Energy =            206.8393324709975047
    One-Electron Energy =                -722.6586841858172647
    Two-Electron Energy =                 282.7609848225639553
    Total Energy =                       -233.0583668922557763
  Basis Set: (AUG-CC-PVTZ AUX)
    Blend: AUG-CC-PVTZ-RI
    Molecular point group: c1

    Geometry (in Angstrom), charge = 0, multiplicity = 1:

       Center              X                  Y                   Z               Mass
    ------------   -----------------  -----------------  -----------------  -----------------
         C            2.075271199980     0.519240080034     0.030242496136    12.000000000000
         C           -2.076488800020     0.519238080034    -0.017264503864    12.000000000000
         C            2.650012199980    -0.900280919966    -0.014136503864    12.000000000000
         C           -2.651239800020    -0.900275919966     0.027404496136    12.000000000000
         C            0.611740699980     0.507112180034    -0.030570103864    12.000000000000
         C           -0.611803800020     0.532706080034    -0.000251503864    12.000000000000
         H            2.465634099980     1.026996680034     0.919284696136     1.007825032230
         H            2.449963199980     1.097140080034    -0.821961503864     1.007825032230
         H           -2.451337800020     1.097340080034     0.834768496136     1.007825032230
         H           -2.430714800020     1.033695080034    -0.917476503864     1.007825032230
         H            3.744100199980    -0.880122919966    -0.000603503864     1.007825032230
         H            2.328737199980    -1.418666919966    -0.920196503864     1.007825032230
         H            2.308325199980    -1.482309919966     0.844596496136     1.007825032230
         H           -2.309211800020    -1.482522919966    -0.831068503864     1.007825032230
         H           -2.330306800020    -1.418417919966     0.933702496136     1.007825032230
         H           -3.745322800020    -0.880128919966     0.013435496136     1.007825032230

  Basis Set: AUG-CC-PVTZ
    Blend: AUG-CC-PVTZ
  Basis Set: (AUG-CC-PVTZ AUX)
    Blend: AUG-CC-PVTZ-JKFIT
	 Reference Energy          =    -233.0583668922557763 [Eh]
	 Singles Energy            =      -0.0000000000000000 [Eh]
	 Same-Spin Energy          =      -0.2471034700064168 [Eh]
	 Opposite-Spin Energy      =      -0.8846256929244736 [Eh]
	 Correlation Energy        =      -1.1317291629308903 [Eh]
	 Total Energy              =    -234.1900960551866717 [Eh]

	 ================> DF-SCS-MP2 Energies <==================
	-----------------------------------------------------------
	 SCS Same-Spin Scale       =       0.3333333333333333 [-]
	 SCS Opposite-Spin Scale   =       1.2000000000000000 [-]
	 SCS Same-Spin Energy      =      -0.0823678233354723 [Eh]
	 SCS Opposite-Spin Energy  =      -1.0615508315093682 [Eh]
	 SCS Correlation Energy    =      -1.1439186548448406 [Eh]
	 SCS Total Energy          =    -234.2022855471006153 [Eh]
	-----------------------------------------------------------

  Dipole Moment: [D]
     X:    -0.0223      Y:    -0.0820      Z:     0.0344     Total:     0.0917

*** Psi4 exiting successfully. Buy a developer a beer!
