                               Psi4 1.3.2 release

  ==> Input File <==

--------------------------------------------------------------------------
#psi4
#
memory 32 gb

molecule  {
0 1
  C        2.0758820     0.5154130     0.0236380
  C       -2.0758780     0.5154110    -0.0238690
  C        2.6257513    -0.9139062    -0.0213830
  C       -2.6506290    -0.9041030     0.0208000
  C        0.6111926     0.5033305     0.0061538
  C       -0.6111930     0.5288790    -0.0068560
  H        2.4302800     1.0301000     0.9236910
  H        2.4505740     1.0933130    -0.8285660
  H       -2.4507270     1.0935130     0.8281640
  H       -2.4301040     1.0298680    -0.9240810
  H        3.7447110    -0.8839500    -0.0072080
  H        2.3293480    -1.4224940    -0.9268010
  H        2.3089360    -1.4861370     0.8379920
  H       -2.3086010    -1.4863500    -0.8376730
  H       -2.3296960    -1.4222450     0.9270980
  H       -3.7447120    -0.8839560     0.0068310
units angstrom
no_reorient  #important for SAPT in psi4, default
symmetry c1  #important for SAPT in psi4, default
}

set PROPERTIES_ORIGIN ["COM"]
properties('MP2/aug-cc-pvtz', properties = ['dipole'])
--------------------------------------------------------------------------

    Molecular point group: c1
  Charge       = 0
  Multiplicity = 1
  Basis Set: AUG-CC-PVTZ
    Blend: AUG-CC-PVTZ
  Basis Set: (AUG-CC-PVTZ AUX)
    Blend: AUG-CC-PVTZ-JKFIT

    Orbital Energies [Eh]
    ---------------------

    Doubly Occupied:

       1A    -11.246795     2A    -11.246519     3A    -11.220075
       4A    -11.219992     5A    -11.218964     6A    -11.215588
       7A     -1.080578     8A     -1.052004     9A     -0.966940
      10A     -0.878063    11A     -0.845539    12A     -0.663791
      13A     -0.626076    14A     -0.625984    15A     -0.616674
      16A     -0.545957    17A     -0.538930    18A     -0.517138
      19A     -0.513661    20A     -0.510304    21A     -0.503604
      22A     -0.356306    23A     -0.355596

  @DF-RHF Final Energy:  -233.05857205213852

   => Energetics <=

    Nuclear Repulsion Energy =            206.9929153460679458
    One-Electron Energy =                -722.9728181014264692
    Two-Electron Energy =                 282.9213307032200646
    Total Energy =                       -233.0585720521385156
  Basis Set: (AUG-CC-PVTZ AUX)
    Blend: AUG-CC-PVTZ-RI
    Molecular point group: c1

    Geometry (in Angstrom), charge = 0, multiplicity = 1:

       Center              X                  Y                   Z               Mass
    ------------   -----------------  -----------------  -----------------  -----------------
         C            2.079518531339     0.520580861166     0.023866461586    12.000000000000
         C           -2.072241468661     0.520578861166    -0.023640538414    12.000000000000
         C            2.629387831339    -0.908738338834    -0.021154538414    12.000000000000
         C           -2.646992468661    -0.898935138834     0.021028461586    12.000000000000
         C            0.614829131339     0.508498361166     0.006382261586    12.000000000000
         C           -0.607556468661     0.534046861166    -0.006627538414    12.000000000000
         H            2.433916531339     1.035267861166     0.923919461586     1.007825032230
         H            2.454210531339     1.098480861166    -0.828337538414     1.007825032230
         H           -2.447090468661     1.098680861166     0.828392461586     1.007825032230
         H           -2.426467468661     1.035035861166    -0.923852538414     1.007825032230
         H            3.748347531339    -0.878782138834    -0.006979538414     1.007825032230
         H            2.332984531339    -1.417326138834    -0.926572538414     1.007825032230
         H            2.312572531339    -1.480969138834     0.838220461586     1.007825032230
         H           -2.304964468661    -1.481182138834    -0.837444538414     1.007825032230
         H           -2.326059468661    -1.417077138834     0.927326461586     1.007825032230
         H           -3.741075468661    -0.878788138834     0.007059461586     1.007825032230

  Basis Set: AUG-CC-PVTZ
    Blend: AUG-CC-PVTZ
  Basis Set: (AUG-CC-PVTZ AUX)
    Blend: AUG-CC-PVTZ-JKFIT
	 Reference Energy          =    -233.0585720521385156 [Eh]
	 Singles Energy            =      -0.0000000000000000 [Eh]
	 Same-Spin Energy          =      -0.2470102754871733 [Eh]
	 Opposite-Spin Energy      =      -0.8843971611667241 [Eh]
	 Correlation Energy        =      -1.1314074366538973 [Eh]
	 Total Energy              =    -234.1899794887924031 [Eh]

	 ================> DF-SCS-MP2 Energies <==================
	-----------------------------------------------------------
	 SCS Same-Spin Scale       =       0.3333333333333333 [-]
	 SCS Opposite-Spin Scale   =       1.2000000000000000 [-]
	 SCS Same-Spin Energy      =      -0.0823367584957244 [Eh]
	 SCS Opposite-Spin Energy  =      -1.0612765934000687 [Eh]
	 SCS Correlation Energy    =      -1.1436133518957932 [Eh]
	 SCS Total Energy          =    -234.2021854040343101 [Eh]
	-----------------------------------------------------------

  Dipole Moment: [D]
     X:    -0.0090      Y:    -0.0870      Z:     0.0003     Total:     0.0875

*** Psi4 exiting successfully. Buy a developer a beer!
