                               Psi4 1.3.2 release

  ==> Input File <==

--------------------------------------------------------------------------
#psi4
#
memory 32 gb

molecule  {
0 1
  C        2.0758820     0.5154130     0.0236380
  C       -2.0758780     0.5154110    -0.0238690
  C        2.6007120    -0.9232691    -0.0220113
  C       -2.6506290    -0.9041030     0.0208000
  C        0.6116374     0.4777847     0.0052399
  C       -0.6111930     0.5288790    -0.0068560
  H        2.4302800     1.0301000     0.9236910
  H        2.4505740     1.0933130    -0.8285660
  H       -2.4507270     1.0935130     0.8281640
  H       -2.4301040     1.0298680    -0.9240810
  H        3.7447110    -0.8839500    -0.0072080
  H        2.3293480    -1.4224940    -0.9268010
  H        2.3089360    -1.4861370     0.8379920
  H       -2.3086010    -1.4863500    -0.8376730
  H       -2.3296960    -1.4222450     0.9270980
  H       -3.7447120    -0.8839560     0.0068310
units angstrom
no_reorient  #important for SAPT in psi4, default
symmetry c1  #important for SAPT in psi4, default
}

set PROPERTIES_ORIGIN ["COM"]
properties('MP2/aug-cc-pvtz', properties = ['dipole'])
--------------------------------------------------------------------------

    Molecular point group: c1
  Charge       = 0
  Multiplicity = 1
  Basis Set: AUG-CC-PVTZ
    Blend: AUG-CC-PVTZ
  Basis Set: (AUG-CC-PVTZ AUX)
    Blend: AUG-CC-PVTZ-JKFIT

    Orbital Energies [Eh]
    ---------------------

    Doubly Occupied:

       1A    -11.247078     2A    -11.246524     3A    -11.220038
       4A    -11.220002     5A    -11.219045     6A    -11.215684
       7A     -1.080998     8A     -1.052434     9A     -0.966254
      10A     -0.877629    11A     -0.845524    12A     -0.664373
      13A     -0.628029    14A     -0.625649    15A     -0.617612
      16A     -0.546189    17A     -0.537441    18A     -0.517762
      19A     -0.516712    20A     -0.504466    21A     -0.504274
      22A     -0.355551    23A     -0.355444

  @DF-RHF Final Energy:  -233.05544777749628

   => Energetics <=

    Nuclear Repulsion Energy =            207.1669663377083452
    One-Electron Energy =                -723.3154031437642288
    Two-Electron Energy =                 283.0929890285596002
    Total Energy =                       -233.0554477774962834
  Basis Set: (AUG-CC-PVTZ AUX)
    Blend: AUG-CC-PVTZ-RI
    Molecular point group: c1

    Geometry (in Angstrom), charge = 0, multiplicity = 1:

       Center              X                  Y                   Z               Mass
    ------------   -----------------  -----------------  -----------------  -----------------
         C            2.083114295124     0.525684581072     0.024091934229    12.000000000000
         C           -2.068645704876     0.525682581072    -0.023415065771    12.000000000000
         C            2.607944295124    -0.912997518928    -0.021557365771    12.000000000000
         C           -2.643396704876    -0.893831418928     0.021253934229    12.000000000000
         C            0.618869695124     0.488056281072     0.005693834229    12.000000000000
         C           -0.603960704876     0.539150581072    -0.006402065771    12.000000000000
         H            2.437512295124     1.040371581072     0.924144934229     1.007825032230
         H            2.457806295124     1.103584581072    -0.828112065771     1.007825032230
         H           -2.443494704876     1.103784581072     0.828617934229     1.007825032230
         H           -2.422871704876     1.040139581072    -0.923627065771     1.007825032230
         H            3.751943295124    -0.873678418928    -0.006754065771     1.007825032230
         H            2.336580295124    -1.412222418928    -0.926347065771     1.007825032230
         H            2.316168295124    -1.475865418928     0.838445934229     1.007825032230
         H           -2.301368704876    -1.476078418928    -0.837219065771     1.007825032230
         H           -2.322463704876    -1.411973418928     0.927551934229     1.007825032230
         H           -3.737479704876    -0.873684418928     0.007284934229     1.007825032230

  Basis Set: AUG-CC-PVTZ
    Blend: AUG-CC-PVTZ
  Basis Set: (AUG-CC-PVTZ AUX)
    Blend: AUG-CC-PVTZ-JKFIT
	 Reference Energy          =    -233.0554477774962834 [Eh]
	 Singles Energy            =      -0.0000000000000000 [Eh]
	 Same-Spin Energy          =      -0.2471649835608229 [Eh]
	 Opposite-Spin Energy      =      -0.8847868335271173 [Eh]
	 Correlation Energy        =      -1.1319518170879403 [Eh]
	 Total Energy              =    -234.1873995945842353 [Eh]

	 ================> DF-SCS-MP2 Energies <==================
	-----------------------------------------------------------
	 SCS Same-Spin Scale       =       0.3333333333333333 [-]
	 SCS Opposite-Spin Scale   =       1.2000000000000000 [-]
	 SCS Same-Spin Energy      =      -0.0823883278536076 [Eh]
	 SCS Opposite-Spin Energy  =      -1.0617442002325408 [Eh]
	 SCS Correlation Energy    =      -1.1441325280861485 [Eh]
	 SCS Total Energy          =    -234.1995803055824297 [Eh]
	-----------------------------------------------------------

  Dipole Moment: [D]
     X:    -0.0260      Y:    -0.0616      Z:     0.0009     Total:     0.0669

*** Psi4 exiting successfully. Buy a developer a beer!
