                               Psi4 1.3.2 release

  ==> Input File <==

--------------------------------------------------------------------------
#psi4
#
memory 32 gb

molecule  {
0 1
  C        2.0758820     0.5154130     0.0236380
  C       -2.0758780     0.5154110    -0.0238690
  C        2.6506230    -0.9041080    -0.0207410
  C       -2.6506290    -0.9041030     0.0208000
  C        0.6111834     0.5352774     0.0181402
  C       -0.6111930     0.5288790    -0.0068560
  H        2.4212196     1.0317349     0.9262728
  H        2.4505740     1.0933130    -0.8285660
  H       -2.4507270     1.0935130     0.8281640
  H       -2.4301040     1.0298680    -0.9240810
  H        3.7447110    -0.8839500    -0.0072080
  H        2.3293480    -1.4224940    -0.9268010
  H        2.3089360    -1.4861370     0.8379920
  H       -2.3086010    -1.4863500    -0.8376730
  H       -2.3296960    -1.4222450     0.9270980
  H       -3.7447120    -0.8839560     0.0068310
units angstrom
no_reorient  #important for SAPT in psi4, default
symmetry c1  #important for SAPT in psi4, default
}

set PROPERTIES_ORIGIN ["COM"]
properties('MP2/aug-cc-pvtz', properties = ['dipole'])
--------------------------------------------------------------------------

    Molecular point group: c1
  Charge       = 0
  Multiplicity = 1
  Basis Set: AUG-CC-PVTZ
    Blend: AUG-CC-PVTZ
  Basis Set: (AUG-CC-PVTZ AUX)
    Blend: AUG-CC-PVTZ-JKFIT

    Orbital Energies [Eh]
    ---------------------

    Doubly Occupied:

       1A    -11.246623     2A    -11.246552     3A    -11.220419
       4A    -11.220202     5A    -11.219191     6A    -11.215816
       7A     -1.080222     8A     -1.051666     9A     -0.967488
      10A     -0.878906    11A     -0.845659    12A     -0.662761
      13A     -0.626210    14A     -0.624652    15A     -0.615531
      16A     -0.546446    17A     -0.543262    18A     -0.517010
      19A     -0.513321    20A     -0.510532    21A     -0.502020
      22A     -0.356830    23A     -0.355331

  @DF-RHF Final Energy:  -233.05958275768748

   => Energetics <=

    Nuclear Repulsion Energy =            206.7939917939444285
    One-Electron Energy =                -722.5738506998466164
    Two-Electron Energy =                 282.7202761482147366
    Total Energy =                       -233.0595827576874512
  Basis Set: (AUG-CC-PVTZ AUX)
    Blend: AUG-CC-PVTZ-RI
    Molecular point group: c1

    Geometry (in Angstrom), charge = 0, multiplicity = 1:

       Center              X                  Y                   Z               Mass
    ------------   -----------------  -----------------  -----------------  -----------------
         C            2.075994836561     0.514457571608     0.021988463431    12.000000000000
         C           -2.075765163439     0.514455571608    -0.025518536569    12.000000000000
         C            2.650735836561    -0.905063428392    -0.022390536569    12.000000000000
         C           -2.650516163439    -0.905058428392     0.019150463431    12.000000000000
         C            0.611296236561     0.534321971608     0.016490663431    12.000000000000
         C           -0.611080163439     0.527923571608    -0.008505536569    12.000000000000
         H            2.421332436561     1.030779471608     0.924623263431     1.007825032230
         H            2.450686836561     1.092357571608    -0.830215536569     1.007825032230
         H           -2.450614163439     1.092557571608     0.826514463431     1.007825032230
         H           -2.429991163439     1.028912571608    -0.925730536569     1.007825032230
         H            3.744823836561    -0.884905428392    -0.008857536569     1.007825032230
         H            2.329460836561    -1.423449428392    -0.928450536569     1.007825032230
         H            2.309048836561    -1.487092428392     0.836342463431     1.007825032230
         H           -2.308488163439    -1.487305428392    -0.839322536569     1.007825032230
         H           -2.329583163439    -1.423200428392     0.925448463431     1.007825032230
         H           -3.744599163439    -0.884911428392     0.005181463431     1.007825032230

  Basis Set: AUG-CC-PVTZ
    Blend: AUG-CC-PVTZ
  Basis Set: (AUG-CC-PVTZ AUX)
    Blend: AUG-CC-PVTZ-JKFIT
	 Reference Energy          =    -233.0595827576874797 [Eh]
	 Singles Energy            =      -0.0000000000000000 [Eh]
	 Same-Spin Energy          =      -0.2469499113021439 [Eh]
	 Opposite-Spin Energy      =      -0.8842673774859938 [Eh]
	 Correlation Energy        =      -1.1312172887881378 [Eh]
	 Total Energy              =    -234.1908000464756299 [Eh]

	 ================> DF-SCS-MP2 Energies <==================
	-----------------------------------------------------------
	 SCS Same-Spin Scale       =       0.3333333333333333 [-]
	 SCS Opposite-Spin Scale   =       1.2000000000000000 [-]
	 SCS Same-Spin Energy      =      -0.0823166371007146 [Eh]
	 SCS Opposite-Spin Energy  =      -1.0611208529831926 [Eh]
	 SCS Correlation Energy    =      -1.1434374900839073 [Eh]
	 SCS Total Energy          =    -234.2030202477713772 [Eh]
	-----------------------------------------------------------

  Dipole Moment: [D]
     X:     0.0032      Y:    -0.1179      Z:    -0.0092     Total:     0.1183

*** Psi4 exiting successfully. Buy a developer a beer!
