                               Psi4 1.4a3.dev225

  ==> Input File <==

--------------------------------------------------------------------------
#psi4
#
memory 32 gb

molecule  {
0 1
  C       -2.0771790    -0.5509460     0.0000070
  C        2.0771780    -0.5509460    -0.0000070
  C       -2.6336780     0.8769070    -0.0000060
  C        2.6336800     0.8769060     0.0000060
  C       -0.6118130    -0.5794080     0.0000030
  C        0.5918158    -0.5797944    -0.0000029
  H       -2.4515650    -1.0921000     0.8772120
  H       -2.4515700    -1.0921170    -0.8771860
  H        2.4515680    -1.0921180     0.8771850
  H        2.4515620    -1.0921010    -0.8772120
  H       -3.7276230     0.8632630    -0.0000030
  H       -2.2941400     1.4208110    -0.8846310
  H       -2.2941360     1.4208280     0.8846080
  H        2.2941380     1.4208280    -0.8846070
  H        2.2941440     1.4208110     0.8846310
  H        3.7276250     0.8632600     0.0000020
units angstrom
no_reorient  #important for SAPT in psi4, default
symmetry c1  #important for SAPT in psi4, default
}

set PROPERTIES_ORIGIN ["COM"]
properties('MP2/aug-cc-pvtz', properties = ['dipole'])
--------------------------------------------------------------------------

    Molecular point group: c1
  Charge       = 0
  Multiplicity = 1
  Basis Set: AUG-CC-PVTZ
    Blend: AUG-CC-PVTZ
  Basis Set: (AUG-CC-PVTZ AUX)
    Blend: AUG-CC-PVTZ-JKFIT

    Orbital Energies [Eh]
    ---------------------

    Doubly Occupied:

       1A    -11.248297     2A    -11.245881     3A    -11.220206
       4A    -11.220043     5A    -11.214493     6A    -11.210592
       7A     -1.079408     8A     -1.049407     9A     -0.971388
      10A     -0.875993    11A     -0.845660    12A     -0.660958
      13A     -0.625509    14A     -0.623843    15A     -0.614741
      16A     -0.544588    17A     -0.541322    18A     -0.516507
      19A     -0.512981    20A     -0.510013    21A     -0.501278
      22A     -0.361532    23A     -0.360415

  @DF-RHF Final Energy:  -233.06161672069211

   => Energetics <=

    Nuclear Repulsion Energy =            206.9645650451137726
    One-Electron Energy =                -722.9422477656294177
    Two-Electron Energy =                 282.9160659998235019
    Total Energy =                       -233.0616167206921432
  Basis Set: (AUG-CC-PVTZ AUX)
    Blend: AUG-CC-PVTZ-RI
    Molecular point group: c1

    Geometry (in Angstrom), charge = 0, multiplicity = 1:

       Center              X                  Y                   Z               Mass
    ------------   -----------------  -----------------  -----------------  -----------------
         C           -2.074255553465    -0.514124881019     0.000006997659    12.000000000000
         C            2.080101446535    -0.514124881019    -0.000007002341    12.000000000000
         C           -2.630754553465     0.913728118981    -0.000006002341    12.000000000000
         C            2.636603446535     0.913727118981     0.000005997659    12.000000000000
         C           -0.608889553465    -0.542586881019     0.000002997659    12.000000000000
         C            0.594739246535    -0.542973281019    -0.000002902341    12.000000000000
         H           -2.448641553465    -1.055278881019     0.877211997659     1.007825032230
         H           -2.448646553465    -1.055295881019    -0.877186002341     1.007825032230
         H            2.454491446535    -1.055296881019     0.877184997659     1.007825032230
         H            2.454485446535    -1.055279881019    -0.877212002341     1.007825032230
         H           -3.724699553465     0.900084118981    -0.000003002341     1.007825032230
         H           -2.291216553465     1.457632118981    -0.884631002341     1.007825032230
         H           -2.291212553465     1.457649118981     0.884607997659     1.007825032230
         H            2.297061446535     1.457649118981    -0.884607002341     1.007825032230
         H            2.297067446535     1.457632118981     0.884630997659     1.007825032230
         H            3.730548446535     0.900081118981     0.000001997659     1.007825032230

  Basis Set: AUG-CC-PVTZ
    Blend: AUG-CC-PVTZ
  Basis Set: (AUG-CC-PVTZ AUX)
    Blend: AUG-CC-PVTZ-JKFIT
	 Reference Energy          =    -233.0616167206921148 [Eh]
	 Singles Energy            =      -0.0000000000000000 [Eh]
	 Same-Spin Energy          =      -0.2459245488067274 [Eh]
	 Opposite-Spin Energy      =      -0.8826088468490423 [Eh]
	 Correlation Energy        =      -1.1285333956557697 [Eh]
	 Total Energy              =    -234.1901501163478940 [Eh]

	 ================> DF-SCS-MP2 Energies <==================
	-----------------------------------------------------------
	 SCS Same-Spin Scale       =       0.3333333333333333 [-]
	 SCS Opposite-Spin Scale   =       1.2000000000000000 [-]
	 SCS Same-Spin Energy      =      -0.0819748496022425 [Eh]
	 SCS Opposite-Spin Energy  =      -1.0591306162188507 [Eh]
	 SCS Correlation Energy    =      -1.1411054658210933 [Eh]
	 SCS Total Energy          =    -234.2027221865131992 [Eh]
	-----------------------------------------------------------

  Dipole Moment: [D]
     X:     0.0083      Y:     0.1408      Z:    -0.0000     Total:     0.1410

*** Psi4 exiting successfully. Buy a developer a beer!
