                               Psi4 1.4a3.dev225

  ==> Input File <==

--------------------------------------------------------------------------
#psi4
#
memory 32 gb

molecule  {
0 1
  C       -2.0771790    -0.5509460     0.0000070
  C        2.0771780    -0.5509460    -0.0000070
  C       -2.6336780     0.8769070    -0.0000060
  C        2.6336800     0.8769060     0.0000060
  C       -0.6118130    -0.5794080     0.0000030
  C        0.5618120    -0.5794061    -0.0000028
  H       -2.4515650    -1.0921000     0.8772120
  H       -2.4515700    -1.0921170    -0.8771860
  H        2.4515680    -1.0921180     0.8771850
  H        2.4515620    -1.0921010    -0.8772120
  H       -3.7276230     0.8632630    -0.0000030
  H       -2.2941400     1.4208110    -0.8846310
  H       -2.2941360     1.4208280     0.8846080
  H        2.2941380     1.4208280    -0.8846070
  H        2.2941440     1.4208110     0.8846310
  H        3.7276250     0.8632600     0.0000020
units angstrom
no_reorient  #important for SAPT in psi4, default
symmetry c1  #important for SAPT in psi4, default
}

set PROPERTIES_ORIGIN ["COM"]
properties('MP2/aug-cc-pvtz', properties = ['dipole'])
--------------------------------------------------------------------------

    Molecular point group: c1
  Charge       = 0
  Multiplicity = 1
  Basis Set: AUG-CC-PVTZ
    Blend: AUG-CC-PVTZ
  Basis Set: (AUG-CC-PVTZ AUX)
    Blend: AUG-CC-PVTZ-JKFIT

    Orbital Energies [Eh]
    ---------------------

    Doubly Occupied:

       1A    -11.250412     2A    -11.244319     3A    -11.220053
       4A    -11.219530     5A    -11.206600     6A    -11.201451
       7A     -1.079167     8A     -1.046089     9A     -0.977449
      10A     -0.872976    11A     -0.845997    12A     -0.656997
      13A     -0.623271    14A     -0.622888    15A     -0.613702
      16A     -0.543878    17A     -0.539228    18A     -0.515677
      19A     -0.511623    20A     -0.509598    21A     -0.500478
      22A     -0.369041    23A     -0.367920

  @DF-RHF Final Energy:  -233.06106361335335

   => Energetics <=

    Nuclear Repulsion Energy =            207.1406489897649976
    One-Electron Energy =                -723.3267403060422112
    Two-Electron Energy =                 283.1250277029239442
    Total Energy =                       -233.0610636133533262
  Basis Set: (AUG-CC-PVTZ AUX)
    Blend: AUG-CC-PVTZ-RI
    Molecular point group: c1

    Geometry (in Angstrom), charge = 0, multiplicity = 1:

       Center              X                  Y                   Z               Mass
    ------------   -----------------  -----------------  -----------------  -----------------
         C           -2.069868939489    -0.514181651235     0.000006983038    12.000000000000
         C            2.084488060511    -0.514181651235    -0.000007016962    12.000000000000
         C           -2.626367939489     0.913671348765    -0.000006016962    12.000000000000
         C            2.640990060511     0.913670348765     0.000005983038    12.000000000000
         C           -0.604502939489    -0.542643651235     0.000002983038    12.000000000000
         C            0.569122060511    -0.542641751235    -0.000002816962    12.000000000000
         H           -2.444254939489    -1.055335651235     0.877211983038     1.007825032230
         H           -2.444259939489    -1.055352651235    -0.877186016962     1.007825032230
         H            2.458878060511    -1.055353651235     0.877184983038     1.007825032230
         H            2.458872060511    -1.055336651235    -0.877212016962     1.007825032230
         H           -3.720312939489     0.900027348765    -0.000003016962     1.007825032230
         H           -2.286829939489     1.457575348765    -0.884631016962     1.007825032230
         H           -2.286825939489     1.457592348765     0.884607983038     1.007825032230
         H            2.301448060511     1.457592348765    -0.884607016962     1.007825032230
         H            2.301454060511     1.457575348765     0.884630983038     1.007825032230
         H            3.734935060511     0.900024348765     0.000001983038     1.007825032230

  Basis Set: AUG-CC-PVTZ
    Blend: AUG-CC-PVTZ
  Basis Set: (AUG-CC-PVTZ AUX)
    Blend: AUG-CC-PVTZ-JKFIT
	 Reference Energy          =    -233.0610636133533546 [Eh]
	 Singles Energy            =      -0.0000000000000000 [Eh]
	 Same-Spin Energy          =      -0.2444094976598511 [Eh]
	 Opposite-Spin Energy      =      -0.8800455238721223 [Eh]
	 Correlation Energy        =      -1.1244550215319735 [Eh]
	 Total Energy              =    -234.1855186348853408 [Eh]

	 ================> DF-SCS-MP2 Energies <==================
	-----------------------------------------------------------
	 SCS Same-Spin Scale       =       0.3333333333333333 [-]
	 SCS Opposite-Spin Scale   =       1.2000000000000000 [-]
	 SCS Same-Spin Energy      =      -0.0814698325532837 [Eh]
	 SCS Opposite-Spin Energy  =      -1.0560546286465466 [Eh]
	 SCS Correlation Energy    =      -1.1375244611998303 [Eh]
	 SCS Total Energy          =    -234.1985880745531858 [Eh]
	-----------------------------------------------------------

  Dipole Moment: [D]
     X:     0.0266      Y:     0.1404      Z:    -0.0000     Total:     0.1429

*** Psi4 exiting successfully. Buy a developer a beer!
