                               Psi4 1.3.2 release

  ==> Input File <==

--------------------------------------------------------------------------
#psi4
#
memory 32 gb

molecule  {
0 1
  C        2.0758820     0.5154130     0.0236380
  C       -2.0758780     0.5154110    -0.0238690
  C        2.6506230    -0.9041080    -0.0207410
  C       -2.6506290    -0.9041030     0.0208000
  C        0.8111728     0.5270413     0.0093347
  C       -0.6111930     0.5288790    -0.0068560
  H        2.4302800     1.0301000     0.9236910
  H        2.4505740     1.0933130    -0.8285660
  H       -2.4507270     1.0935130     0.8281640
  H       -2.4301040     1.0298680    -0.9240810
  H        3.7447110    -0.8839500    -0.0072080
  H        2.3293480    -1.4224940    -0.9268010
  H        2.3089360    -1.4861370     0.8379920
  H       -2.3086010    -1.4863500    -0.8376730
  H       -2.3296960    -1.4222450     0.9270980
  H       -3.7447120    -0.8839560     0.0068310
units angstrom
no_reorient  #important for SAPT in psi4, default
symmetry c1  #important for SAPT in psi4, default
}

set PROPERTIES_ORIGIN ["COM"]
properties('MP2/aug-cc-pvtz', properties = ['dipole'])
--------------------------------------------------------------------------

    Molecular point group: c1
  Charge       = 0
  Multiplicity = 1
  Basis Set: AUG-CC-PVTZ
    Blend: AUG-CC-PVTZ
  Basis Set: (AUG-CC-PVTZ AUX)
    Blend: AUG-CC-PVTZ-JKFIT

    Orbital Energies [Eh]
    ---------------------

    Doubly Occupied:

       1A    -11.266662     2A    -11.259215     3A    -11.253652
       4A    -11.233182     5A    -11.225284     6A    -11.221290
       7A     -1.120483     8A     -1.062783     9A     -0.939545
      10A     -0.897579    11A     -0.823198    12A     -0.690195
      13A     -0.640561    14A     -0.630764    15A     -0.620352
      16A     -0.564938    17A     -0.545262    18A     -0.526349
      19A     -0.518817    20A     -0.517153    21A     -0.505520
      22A     -0.310009    23A     -0.308666

  @DF-RHF Final Energy:  -232.94123433257886

   => Energetics <=

    Nuclear Repulsion Energy =            206.6676399696608541
    One-Electron Energy =                -721.8548367676681892
    Two-Electron Energy =                 282.2459624654284767
    Total Energy =                       -232.9412343325788584
  Basis Set: (AUG-CC-PVTZ AUX)
    Blend: AUG-CC-PVTZ-RI
    Molecular point group: c1

    Geometry (in Angstrom), charge = 0, multiplicity = 1:

       Center              X                  Y                   Z               Mass
    ------------   -----------------  -----------------  -----------------  -----------------
         C            2.046644745782     0.515681780126     0.023307546163    12.000000000000
         C           -2.105115254218     0.515679780126    -0.024199453837    12.000000000000
         C            2.621385745782    -0.903839219874    -0.021071453837    12.000000000000
         C           -2.679866254218    -0.903834219874     0.020469546163    12.000000000000
         C            0.781935545782     0.527310080126     0.009004246163    12.000000000000
         C           -0.640430254218     0.529147780126    -0.007186453837    12.000000000000
         H            2.401042745782     1.030368780126     0.923360546163     1.007825032230
         H            2.421336745782     1.093581780126    -0.828896453837     1.007825032230
         H           -2.479964254218     1.093781780126     0.827833546163     1.007825032230
         H           -2.459341254218     1.030136780126    -0.924411453837     1.007825032230
         H            3.715473745782    -0.883681219874    -0.007538453837     1.007825032230
         H            2.300110745782    -1.422225219874    -0.927131453837     1.007825032230
         H            2.279698745782    -1.485868219874     0.837661546163     1.007825032230
         H           -2.337838254218    -1.486081219874    -0.838003453837     1.007825032230
         H           -2.358933254218    -1.421976219874     0.926767546163     1.007825032230
         H           -3.773949254218    -0.883687219874     0.006500546163     1.007825032230

  Basis Set: AUG-CC-PVTZ
    Blend: AUG-CC-PVTZ
  Basis Set: (AUG-CC-PVTZ AUX)
    Blend: AUG-CC-PVTZ-JKFIT
	 Reference Energy          =    -232.9412343325788584 [Eh]
	 Singles Energy            =      -0.0000000000000000 [Eh]
	 Same-Spin Energy          =      -0.2606862916253215 [Eh]
	 Opposite-Spin Energy      =      -0.9076453721967686 [Eh]
	 Correlation Energy        =      -1.1683316638220900 [Eh]
	 Total Energy              =    -234.1095659964009599 [Eh]

	 ================> DF-SCS-MP2 Energies <==================
	-----------------------------------------------------------
	 SCS Same-Spin Scale       =       0.3333333333333333 [-]
	 SCS Opposite-Spin Scale   =       1.2000000000000000 [-]
	 SCS Same-Spin Energy      =      -0.0868954305417738 [Eh]
	 SCS Opposite-Spin Energy  =      -1.0891744466361222 [Eh]
	 SCS Correlation Energy    =      -1.1760698771778959 [Eh]
	 SCS Total Energy          =    -234.1173042097567532 [Eh]
	-----------------------------------------------------------

  Dipole Moment: [D]
     X:     0.1150      Y:    -0.1052      Z:     0.0014     Total:     0.1559

*** Psi4 exiting successfully. Buy a developer a beer!
