                               Psi4 1.3.2 release

  ==> Input File <==

--------------------------------------------------------------------------
#psi4
#
memory 32 gb

molecule  {
0 1
  C        2.0758820     0.5154130     0.0236380
  C       -2.0758780     0.5154110    -0.0238690
  C        2.6506230    -0.9041080    -0.0207410
  C       -2.6506290    -0.9041030     0.0208000
  C        0.6128035     0.5672318     0.0734654
  C       -0.6111930     0.5288790    -0.0068560
  H        2.3755369     1.0393174     0.9381472
  H        2.4505740     1.0933130    -0.8285660
  H       -2.4507270     1.0935130     0.8281640
  H       -2.4301040     1.0298680    -0.9240810
  H        3.7447110    -0.8839500    -0.0072080
  H        2.3293480    -1.4224940    -0.9268010
  H        2.3089360    -1.4861370     0.8379920
  H       -2.3086010    -1.4863500    -0.8376730
  H       -2.3296960    -1.4222450     0.9270980
  H       -3.7447120    -0.8839560     0.0068310
units angstrom
no_reorient  #important for SAPT in psi4, default
symmetry c1  #important for SAPT in psi4, default
}

set PROPERTIES_ORIGIN ["COM"]
properties('MP2/aug-cc-pvtz', properties = ['dipole'])
--------------------------------------------------------------------------

    Molecular point group: c1
  Charge       = 0
  Multiplicity = 1
  Basis Set: AUG-CC-PVTZ
    Blend: AUG-CC-PVTZ
  Basis Set: (AUG-CC-PVTZ AUX)
    Blend: AUG-CC-PVTZ-JKFIT

    Orbital Energies [Eh]
    ---------------------

    Doubly Occupied:

       1A    -11.246629     2A    -11.246530     3A    -11.221345
       4A    -11.220264     5A    -11.220050     6A    -11.216767
       7A     -1.080054     8A     -1.051677     9A     -0.966646
      10A     -0.880306    11A     -0.845633    12A     -0.660919
      13A     -0.627814    14A     -0.622613    15A     -0.614551
      16A     -0.548369    17A     -0.543780    18A     -0.516932
      19A     -0.512867    20A     -0.510932    21A     -0.502293
      22A     -0.355861    23A     -0.353548

  @DF-RHF Final Energy:  -233.05695346118591

   => Energetics <=

    Nuclear Repulsion Energy =            206.6631498917888621
    One-Electron Energy =                -722.3074409031681853
    Two-Electron Energy =                 282.5873375501934106
    Total Energy =                       -233.0569534611859126
  Basis Set: (AUG-CC-PVTZ AUX)
    Blend: AUG-CC-PVTZ-RI
    Molecular point group: c1

    Geometry (in Angstrom), charge = 0, multiplicity = 1:

       Center              X                  Y                   Z               Mass
    ------------   -----------------  -----------------  -----------------  -----------------
         C            2.076318904977     0.509692671872     0.013754007715    12.000000000000
         C           -2.075441095023     0.509690671872    -0.033752992285    12.000000000000
         C            2.651059904977    -0.909828328128    -0.030624992285    12.000000000000
         C           -2.650192095023    -0.909823328128     0.010916007715    12.000000000000
         C            0.613240404977     0.561511471872     0.063581407715    12.000000000000
         C           -0.610756095023     0.523158671872    -0.016739992285    12.000000000000
         H            2.375973804977     1.033597071872     0.928263207715     1.007825032230
         H            2.451010904977     1.087592671872    -0.838449992285     1.007825032230
         H           -2.450290095023     1.087792671872     0.818280007715     1.007825032230
         H           -2.429667095023     1.024147671872    -0.933964992285     1.007825032230
         H            3.745147904977    -0.889670328128    -0.017091992285     1.007825032230
         H            2.329784904977    -1.428214328128    -0.936684992285     1.007825032230
         H            2.309372904977    -1.491857328128     0.828108007715     1.007825032230
         H           -2.308164095023    -1.492070328128    -0.847556992285     1.007825032230
         H           -2.329259095023    -1.427965328128     0.917214007715     1.007825032230
         H           -3.744275095023    -0.889676328128    -0.003052992285     1.007825032230

  Basis Set: AUG-CC-PVTZ
    Blend: AUG-CC-PVTZ
  Basis Set: (AUG-CC-PVTZ AUX)
    Blend: AUG-CC-PVTZ-JKFIT
	 Reference Energy          =    -233.0569534611859126 [Eh]
	 Singles Energy            =      -0.0000000000000000 [Eh]
	 Same-Spin Energy          =      -0.2472098658571956 [Eh]
	 Opposite-Spin Energy      =      -0.8849379780568254 [Eh]
	 Correlation Energy        =      -1.1321478439140209 [Eh]
	 Total Energy              =    -234.1891013050999391 [Eh]

	 ================> DF-SCS-MP2 Energies <==================
	-----------------------------------------------------------
	 SCS Same-Spin Scale       =       0.3333333333333333 [-]
	 SCS Opposite-Spin Scale   =       1.2000000000000000 [-]
	 SCS Same-Spin Energy      =      -0.0824032886190652 [Eh]
	 SCS Opposite-Spin Energy  =      -1.0619255736681905 [Eh]
	 SCS Correlation Energy    =      -1.1443288622872556 [Eh]
	 SCS Total Energy          =    -234.2012823234731798 [Eh]
	-----------------------------------------------------------

  Dipole Moment: [D]
     X:     0.0043      Y:    -0.1543      Z:    -0.0533     Total:     0.1633

*** Psi4 exiting successfully. Buy a developer a beer!
