                               Psi4 1.3.2 release

  ==> Input File <==

--------------------------------------------------------------------------
#psi4
#
memory 32 gb

molecule  {
0 1
  C        2.0758820     0.5154130     0.0236380
  C       -2.0758780     0.5154110    -0.0238690
  C        2.6506230    -0.9041080    -0.0207410
  C       -2.6506290    -0.9041030     0.0208000
  C        0.5112046     0.5297993     0.0059422
  C       -0.6111930     0.5288790    -0.0068560
  H        2.4302800     1.0301000     0.9236910
  H        2.4505740     1.0933130    -0.8285660
  H       -2.4507270     1.0935130     0.8281640
  H       -2.4301040     1.0298680    -0.9240810
  H        3.7447110    -0.8839500    -0.0072080
  H        2.3293480    -1.4224940    -0.9268010
  H        2.3089360    -1.4861370     0.8379920
  H       -2.3086010    -1.4863500    -0.8376730
  H       -2.3296960    -1.4222450     0.9270980
  H       -3.7447120    -0.8839560     0.0068310
units angstrom
no_reorient  #important for SAPT in psi4, default
symmetry c1  #important for SAPT in psi4, default
}

set PROPERTIES_ORIGIN ["COM"]
properties('MP2/aug-cc-pvtz', properties = ['dipole'])
--------------------------------------------------------------------------

    Molecular point group: c1
  Charge       = 0
  Multiplicity = 1
  Basis Set: AUG-CC-PVTZ
    Blend: AUG-CC-PVTZ
  Basis Set: (AUG-CC-PVTZ AUX)
    Blend: AUG-CC-PVTZ-JKFIT

    Orbital Energies [Eh]
    ---------------------

    Doubly Occupied:

       1A    -11.253559     2A    -11.241273     3A    -11.219890
       4A    -11.218445     5A    -11.192947     6A    -11.184921
       7A     -1.080556     8A     -1.040962     9A     -0.987036
      10A     -0.869146    11A     -0.846006    12A     -0.650309
      13A     -0.621579    14A     -0.618279    15A     -0.612113
      16A     -0.543910    17A     -0.536285    18A     -0.514271
      19A     -0.509188    20A     -0.508598    21A     -0.499307
      22A     -0.382342    23A     -0.380902

  @DF-RHF Final Energy:  -233.04820555589674

   => Energetics <=

    Nuclear Repulsion Energy =            207.4512253494510787
    One-Electron Energy =                -723.9752168277400415
    Two-Electron Energy =                 283.4757859223922196
    Total Energy =                       -233.0482055558967431
  Basis Set: (AUG-CC-PVTZ AUX)
    Blend: AUG-CC-PVTZ-RI
    Molecular point group: c1

    Geometry (in Angstrom), charge = 0, multiplicity = 1:

       Center              X                  Y                   Z               Mass
    ------------   -----------------  -----------------  -----------------  -----------------
         C            2.090500680648     0.515278555156     0.023803536268    12.000000000000
         C           -2.061259319352     0.515276555156    -0.023703463732    12.000000000000
         C            2.665241680648    -0.904242444844    -0.020575463732    12.000000000000
         C           -2.636010319352    -0.904237444844     0.020965536268    12.000000000000
         C            0.525823280648     0.529664855156     0.006107736268    12.000000000000
         C           -0.596574319352     0.528744555156    -0.006690463732    12.000000000000
         H            2.444898680648     1.029965555156     0.923856536268     1.007825032230
         H            2.465192680648     1.093178555156    -0.828400463732     1.007825032230
         H           -2.436108319352     1.093378555156     0.828329536268     1.007825032230
         H           -2.415485319352     1.029733555156    -0.923915463732     1.007825032230
         H            3.759329680648    -0.884084444844    -0.007042463732     1.007825032230
         H            2.343966680648    -1.422628444844    -0.926635463732     1.007825032230
         H            2.323554680648    -1.486271444844     0.838157536268     1.007825032230
         H           -2.293982319352    -1.486484444844    -0.837507463732     1.007825032230
         H           -2.315077319352    -1.422379444844     0.927263536268     1.007825032230
         H           -3.730093319352    -0.884090444844     0.006996536268     1.007825032230

  Basis Set: AUG-CC-PVTZ
    Blend: AUG-CC-PVTZ
  Basis Set: (AUG-CC-PVTZ AUX)
    Blend: AUG-CC-PVTZ-JKFIT
	 Reference Energy          =    -233.0482055558967431 [Eh]
	 Singles Energy            =      -0.0000000000000000 [Eh]
	 Same-Spin Energy          =      -0.2420983654337606 [Eh]
	 Opposite-Spin Energy      =      -0.8760322233343234 [Eh]
	 Correlation Energy        =      -1.1181305887680839 [Eh]
	 Total Energy              =    -234.1663361446648253 [Eh]

	 ================> DF-SCS-MP2 Energies <==================
	-----------------------------------------------------------
	 SCS Same-Spin Scale       =       0.3333333333333333 [-]
	 SCS Opposite-Spin Scale   =       1.2000000000000000 [-]
	 SCS Same-Spin Energy      =      -0.0806994551445868 [Eh]
	 SCS Opposite-Spin Energy  =      -1.0512386680011880 [Eh]
	 SCS Correlation Energy    =      -1.1319381231457748 [Eh]
	 SCS Total Energy          =    -234.1801436790425157 [Eh]
	-----------------------------------------------------------

  Dipole Moment: [D]
     X:     0.0708      Y:    -0.1141      Z:    -0.0004     Total:     0.1342

*** Psi4 exiting successfully. Buy a developer a beer!
