                               Psi4 1.3.2 release

  ==> Input File <==

--------------------------------------------------------------------------
#psi4
#
memory 32 gb

molecule  {
0 1
  C        2.0731780     0.4387740     0.0228959
  C       -2.0758780     0.5154110    -0.0238690
  C        2.6506230    -0.9041080    -0.0207410
  C       -2.6506290    -0.9041030     0.0208000
  C        0.6111940     0.5288800     0.0070730
  C       -0.6095109     0.4649028    -0.0074306
  H        2.4302800     1.0301000     0.9236910
  H        2.4505740     1.0933130    -0.8285660
  H       -2.4507270     1.0935130     0.8281640
  H       -2.4301040     1.0298680    -0.9240810
  H        3.7447110    -0.8839500    -0.0072080
  H        2.3293480    -1.4224940    -0.9268010
  H        2.3089360    -1.4861370     0.8379920
  H       -2.3086010    -1.4863500    -0.8376730
  H       -2.3296960    -1.4222450     0.9270980
  H       -3.7447120    -0.8839560     0.0068310
units angstrom
no_reorient  #important for SAPT in psi4, default
symmetry c1  #important for SAPT in psi4, default
}

set PROPERTIES_ORIGIN ["COM"]
properties('MP2/aug-cc-pvtz', properties = ['dipole'])
--------------------------------------------------------------------------

    Molecular point group: c1
  Charge       = 0
  Multiplicity = 1
  Basis Set: AUG-CC-PVTZ
    Blend: AUG-CC-PVTZ
  Basis Set: (AUG-CC-PVTZ AUX)
    Blend: AUG-CC-PVTZ-JKFIT

    Orbital Energies [Eh]
    ---------------------

    Doubly Occupied:

       1A    -11.250584     2A    -11.247054     3A    -11.219951
       4A    -11.219607     5A    -11.217190     6A    -11.216574
       7A     -1.084956     8A     -1.057349     9A     -0.971401
      10A     -0.876528    11A     -0.841559    12A     -0.664134
      13A     -0.629074    14A     -0.623114    15A     -0.613544
      16A     -0.566173    17A     -0.540913    18A     -0.518306
      19A     -0.508161    20A     -0.507354    21A     -0.490688
      22A     -0.359564    23A     -0.353545

  @DF-RHF Final Energy:  -233.05201123258524

   => Energetics <=

    Nuclear Repulsion Energy =            207.5204101727685781
    One-Electron Energy =                -723.9901941137591166
    Two-Electron Energy =                 283.4177727084052663
    Total Energy =                       -233.0520112325852438
  Basis Set: (AUG-CC-PVTZ AUX)
    Blend: AUG-CC-PVTZ-RI
    Molecular point group: c1

    Geometry (in Angstrom), charge = 0, multiplicity = 1:

       Center              X                  Y                   Z               Mass
    ------------   -----------------  -----------------  -----------------  -----------------
         C            2.073327439462     0.459332174618     0.023088615210    12.000000000000
         C           -2.075728560538     0.535969174618    -0.023676284790    12.000000000000
         C            2.650772439462    -0.883549825382    -0.020548284790    12.000000000000
         C           -2.650479560538    -0.883544825382     0.020992715210    12.000000000000
         C            0.611343439462     0.549438174618     0.007265715210    12.000000000000
         C           -0.609361460538     0.485460974618    -0.007237884790    12.000000000000
         H            2.430429439462     1.050658174618     0.923883715210     1.007825032230
         H            2.450723439462     1.113871174618    -0.828373284790     1.007825032230
         H           -2.450577560538     1.114071174618     0.828356715210     1.007825032230
         H           -2.429954560538     1.050426174618    -0.923888284790     1.007825032230
         H            3.744860439462    -0.863391825382    -0.007015284790     1.007825032230
         H            2.329497439462    -1.401935825382    -0.926608284790     1.007825032230
         H            2.309085439462    -1.465578825382     0.838184715210     1.007825032230
         H           -2.308451560538    -1.465791825382    -0.837480284790     1.007825032230
         H           -2.329546560538    -1.401686825382     0.927290715210     1.007825032230
         H           -3.744562560538    -0.863397825382     0.007023715210     1.007825032230

  Basis Set: AUG-CC-PVTZ
    Blend: AUG-CC-PVTZ
  Basis Set: (AUG-CC-PVTZ AUX)
    Blend: AUG-CC-PVTZ-JKFIT
	 Reference Energy          =    -233.0520112325852438 [Eh]
	 Singles Energy            =      -0.0000000000000000 [Eh]
	 Same-Spin Energy          =      -0.2476105787052430 [Eh]
	 Opposite-Spin Energy      =      -0.8853988768343883 [Eh]
	 Correlation Energy        =      -1.1330094555396313 [Eh]
	 Total Energy              =    -234.1850206881248653 [Eh]

	 ================> DF-SCS-MP2 Energies <==================
	-----------------------------------------------------------
	 SCS Same-Spin Scale       =       0.3333333333333333 [-]
	 SCS Opposite-Spin Scale   =       1.2000000000000000 [-]
	 SCS Same-Spin Energy      =      -0.0825368595684143 [Eh]
	 SCS Opposite-Spin Energy  =      -1.0624786522012659 [Eh]
	 SCS Correlation Energy    =      -1.1450155117696803 [Eh]
	 SCS Total Energy          =    -234.1970267443549290 [Eh]
	-----------------------------------------------------------

  Dipole Moment: [D]
     X:     0.0079      Y:    -0.1147      Z:    -0.0004     Total:     0.1149

*** Psi4 exiting successfully. Buy a developer a beer!
