                               Psi4 1.4a3.dev225

  ==> Input File <==

--------------------------------------------------------------------------
#psi4
#
memory 32 gb

molecule  {
0 1
  C       -2.0771790    -0.5509460     0.0000070
  C        2.0771780    -0.5509460    -0.0000070
  C       -2.6336780     0.8769070    -0.0000060
  C        2.6336800     0.8769060     0.0000060
  C       -0.6118130    -0.5794080     0.0000030
  C        0.6618120    -0.5794059    -0.0000032
  H       -2.4515650    -1.0921000     0.8772120
  H       -2.4515700    -1.0921170    -0.8771860
  H        2.4515680    -1.0921180     0.8771850
  H        2.4515620    -1.0921010    -0.8772120
  H       -3.7276230     0.8632630    -0.0000030
  H       -2.2941400     1.4208110    -0.8846310
  H       -2.2941360     1.4208280     0.8846080
  H        2.2941380     1.4208280    -0.8846070
  H        2.2941440     1.4208110     0.8846310
  H        3.7276250     0.8632600     0.0000020
units angstrom
no_reorient  #important for SAPT in psi4, default
symmetry c1  #important for SAPT in psi4, default
}

set PROPERTIES_ORIGIN ["COM"]
properties('MP2/aug-cc-pvtz', properties = ['dipole'])
--------------------------------------------------------------------------

    Molecular point group: c1
  Charge       = 0
  Multiplicity = 1
  Basis Set: AUG-CC-PVTZ
    Blend: AUG-CC-PVTZ
  Basis Set: (AUG-CC-PVTZ AUX)
    Blend: AUG-CC-PVTZ-JKFIT

    Orbital Energies [Eh]
    ---------------------

    Doubly Occupied:

       1A    -11.249163     2A    -11.243318     3A    -11.232910
       4A    -11.229540     5A    -11.221000     6A    -11.220965
       7A     -1.084056     8A     -1.056689     9A     -0.957435
      10A     -0.883688    11A     -0.842474    12A     -0.670507
      13A     -0.629326    14A     -0.626778    15A     -0.617264
      16A     -0.548532    17A     -0.544045    18A     -0.518767
      19A     -0.515530    20A     -0.511464    21A     -0.503213
      22A     -0.344597    23A     -0.343480

  @DF-RHF Final Energy:  -233.04546681314739

   => Energetics <=

    Nuclear Repulsion Energy =            206.6925049636901974
    One-Electron Energy =                -722.2864620731297691
    Two-Electron Energy =                 282.5484902962921865
    Total Energy =                       -233.0454668131473568
  Basis Set: (AUG-CC-PVTZ AUX)
    Blend: AUG-CC-PVTZ-RI
    Molecular point group: c1

    Geometry (in Angstrom), charge = 0, multiplicity = 1:

       Center              X                  Y                   Z               Mass
    ------------   -----------------  -----------------  -----------------  -----------------
         C           -2.084489134184    -0.514181680476     0.000007041519    12.000000000000
         C            2.069867865816    -0.514181680476    -0.000006958481    12.000000000000
         C           -2.640988134184     0.913671319524    -0.000005958481    12.000000000000
         C            2.626369865816     0.913670319524     0.000006041519    12.000000000000
         C           -0.619123134184    -0.542643680476     0.000003041519    12.000000000000
         C            0.654501865816    -0.542641580476    -0.000003158481    12.000000000000
         H           -2.458875134184    -1.055335680476     0.877212041519     1.007825032230
         H           -2.458880134184    -1.055352680476    -0.877185958481     1.007825032230
         H            2.444257865816    -1.055353680476     0.877185041519     1.007825032230
         H            2.444251865816    -1.055336680476    -0.877211958481     1.007825032230
         H           -3.734933134184     0.900027319524    -0.000002958481     1.007825032230
         H           -2.301450134184     1.457575319524    -0.884630958481     1.007825032230
         H           -2.301446134184     1.457592319524     0.884608041519     1.007825032230
         H            2.286827865816     1.457592319524    -0.884606958481     1.007825032230
         H            2.286833865816     1.457575319524     0.884631041519     1.007825032230
         H            3.720314865816     0.900024319524     0.000002041519     1.007825032230

  Basis Set: AUG-CC-PVTZ
    Blend: AUG-CC-PVTZ
  Basis Set: (AUG-CC-PVTZ AUX)
    Blend: AUG-CC-PVTZ-JKFIT
	 Reference Energy          =    -233.0454668131473852 [Eh]
	 Singles Energy            =      -0.0000000000000000 [Eh]
	 Same-Spin Energy          =      -0.2499322158561591 [Eh]
	 Opposite-Spin Energy      =      -0.8893833267257762 [Eh]
	 Correlation Energy        =      -1.1393155425819352 [Eh]
	 Total Energy              =    -234.1847823557293111 [Eh]

	 ================> DF-SCS-MP2 Energies <==================
	-----------------------------------------------------------
	 SCS Same-Spin Scale       =       0.3333333333333333 [-]
	 SCS Opposite-Spin Scale   =       1.2000000000000000 [-]
	 SCS Same-Spin Energy      =      -0.0833107386187197 [Eh]
	 SCS Opposite-Spin Energy  =      -1.0672599920709314 [Eh]
	 SCS Correlation Energy    =      -1.1505707306896511 [Eh]
	 SCS Total Energy          =    -234.1960375438370363 [Eh]
	-----------------------------------------------------------

  Dipole Moment: [D]
     X:    -0.0056      Y:     0.1402      Z:    -0.0000     Total:     0.1404

*** Psi4 exiting successfully. Buy a developer a beer!
