                               Psi4 1.3.2 release

  ==> Input File <==

--------------------------------------------------------------------------
#psi4
#
memory 32 gb

molecule  {
0 1
  C        2.0758820     0.5154130     0.0236380
  C       -2.0758780     0.5154110    -0.0238690
  C        2.6506230    -0.9041080    -0.0207410
  C       -2.6506290    -0.9041030     0.0208000
  C        0.6111940     0.5288800     0.0070730
  C       -0.4112060     0.5288792    -0.0045772
  H        2.4302800     1.0301000     0.9236910
  H        2.4505740     1.0933130    -0.8285660
  H       -2.4507270     1.0935130     0.8281640
  H       -2.4301040     1.0298680    -0.9240810
  H        3.7447110    -0.8839500    -0.0072080
  H        2.3293480    -1.4224940    -0.9268010
  H        2.3089360    -1.4861370     0.8379920
  H       -2.3086010    -1.4863500    -0.8376730
  H       -2.3296960    -1.4222450     0.9270980
  H       -3.7447120    -0.8839560     0.0068310
units angstrom
no_reorient  #important for SAPT in psi4, default
symmetry c1  #important for SAPT in psi4, default
}

set PROPERTIES_ORIGIN ["COM"]
properties('MP2/aug-cc-pvtz', properties = ['dipole'])
--------------------------------------------------------------------------

    Molecular point group: c1
  Charge       = 0
  Multiplicity = 1
  Basis Set: AUG-CC-PVTZ
    Blend: AUG-CC-PVTZ
  Basis Set: (AUG-CC-PVTZ AUX)
    Blend: AUG-CC-PVTZ-JKFIT

    Orbital Energies [Eh]
    ---------------------

    Doubly Occupied:

       1A    -11.259730     2A    -11.235209     3A    -11.220226
       4A    -11.216302     5A    -11.168564     6A    -11.151997
       7A     -1.086805     8A     -1.032773     9A     -1.000529
      10A     -0.862322    11A     -0.842210    12A     -0.639613
      13A     -0.619572    14A     -0.609661    15A     -0.607141
      16A     -0.543275    17A     -0.529013    18A     -0.511551
      19A     -0.509535    20A     -0.500806    21A     -0.497388
      22A     -0.410377    23A     -0.408660

  @DF-RHF Final Energy:  -232.96516145693153

   => Energetics <=

    Nuclear Repulsion Energy =            208.5252423566652169
    One-Electron Energy =                -726.0542912197738588
    Two-Electron Energy =                 284.5638874061771162
    Total Energy =                       -232.9651614569315257
  Basis Set: (AUG-CC-PVTZ AUX)
    Blend: AUG-CC-PVTZ-RI
    Molecular point group: c1

    Geometry (in Angstrom), charge = 0, multiplicity = 1:

       Center              X                  Y                   Z               Mass
    ------------   -----------------  -----------------  -----------------  -----------------
         C            2.046643546926     0.515412929366     0.023305046110    12.000000000000
         C           -2.105116453074     0.515410929366    -0.024201953890    12.000000000000
         C            2.621384546926    -0.904108070634    -0.021073953890    12.000000000000
         C           -2.679867453074    -0.904103070634     0.020467046110    12.000000000000
         C            0.581955546926     0.528879929366     0.006740046110    12.000000000000
         C           -0.440444453074     0.528879129366    -0.004910153890    12.000000000000
         H            2.401041546926     1.030099929366     0.923358046110     1.007825032230
         H            2.421335546926     1.093312929366    -0.828898953890     1.007825032230
         H           -2.479965453074     1.093512929366     0.827831046110     1.007825032230
         H           -2.459342453074     1.029867929366    -0.924413953890     1.007825032230
         H            3.715472546926    -0.883950070634    -0.007540953890     1.007825032230
         H            2.300109546926    -1.422494070634    -0.927133953890     1.007825032230
         H            2.279697546926    -1.486137070634     0.837659046110     1.007825032230
         H           -2.337839453074    -1.486350070634    -0.838005953890     1.007825032230
         H           -2.358934453074    -1.422245070634     0.926765046110     1.007825032230
         H           -3.773950453074    -0.883956070634     0.006498046110     1.007825032230

  Basis Set: AUG-CC-PVTZ
    Blend: AUG-CC-PVTZ
  Basis Set: (AUG-CC-PVTZ AUX)
    Blend: AUG-CC-PVTZ-JKFIT
	 Reference Energy          =    -232.9651614569315257 [Eh]
	 Singles Energy            =      -0.0000000000000000 [Eh]
	 Same-Spin Energy          =      -0.2384587789824249 [Eh]
	 Opposite-Spin Energy      =      -0.8697709568794264 [Eh]
	 Correlation Energy        =      -1.1082297358618514 [Eh]
	 Total Energy              =    -234.0733911927933661 [Eh]

	 ================> DF-SCS-MP2 Energies <==================
	-----------------------------------------------------------
	 SCS Same-Spin Scale       =       0.3333333333333333 [-]
	 SCS Opposite-Spin Scale   =       1.2000000000000000 [-]
	 SCS Same-Spin Energy      =      -0.0794862596608083 [Eh]
	 SCS Opposite-Spin Energy  =      -1.0437251482553116 [Eh]
	 SCS Correlation Energy    =      -1.1232114079161200 [Eh]
	 SCS Total Energy          =    -234.0883728648476563 [Eh]
	-----------------------------------------------------------

  Dipole Moment: [D]
     X:    -0.1942      Y:    -0.1149      Z:    -0.0007     Total:     0.2257

*** Psi4 exiting successfully. Buy a developer a beer!
