                               Psi4 1.3.2 release

  ==> Input File <==

--------------------------------------------------------------------------
#psi4
#
memory 32 gb

molecule  {
0 1
  C        2.0758820     0.5154130     0.0236380
  C       -2.0758780     0.5154110    -0.0238690
  C        2.6506230    -0.9041080    -0.0207410
  C       -2.6506290    -0.9041030     0.0208000
  C        0.6111940     0.5288800     0.0070730
  C       -0.5111995     0.5288791    -0.0057166
  H        2.4302800     1.0301000     0.9236910
  H        2.4505740     1.0933130    -0.8285660
  H       -2.4507270     1.0935130     0.8281640
  H       -2.4301040     1.0298680    -0.9240810
  H        3.7447110    -0.8839500    -0.0072080
  H        2.3293480    -1.4224940    -0.9268010
  H        2.3089360    -1.4861370     0.8379920
  H       -2.3086010    -1.4863500    -0.8376730
  H       -2.3296960    -1.4222450     0.9270980
  H       -3.7447120    -0.8839560     0.0068310
units angstrom
no_reorient  #important for SAPT in psi4, default
symmetry c1  #important for SAPT in psi4, default
}

set PROPERTIES_ORIGIN ["COM"]
properties('MP2/aug-cc-pvtz', properties = ['dipole'])
--------------------------------------------------------------------------

    Molecular point group: c1
  Charge       = 0
  Multiplicity = 1
  Basis Set: AUG-CC-PVTZ
    Blend: AUG-CC-PVTZ
  Basis Set: (AUG-CC-PVTZ AUX)
    Blend: AUG-CC-PVTZ-JKFIT

    Orbital Energies [Eh]
    ---------------------

    Doubly Occupied:

       1A    -11.253561     2A    -11.241273     3A    -11.219873
       4A    -11.218444     5A    -11.192946     6A    -11.184920
       7A     -1.080560     8A     -1.040966     9A     -0.987032
      10A     -0.869138    11A     -0.845996    12A     -0.650320
      13A     -0.621579    14A     -0.618306    15A     -0.612113
      16A     -0.543916    17A     -0.536235    18A     -0.514273
      19A     -0.509183    20A     -0.508604    21A     -0.499304
      22A     -0.382341    23A     -0.380910

  @DF-RHF Final Energy:  -233.04820313914567

   => Energetics <=

    Nuclear Repulsion Energy =            207.4539239550338721
    One-Electron Energy =                -723.9806649520296560
    Two-Electron Energy =                 283.4785378578501422
    Total Energy =                       -233.0482031391456985
  Basis Set: (AUG-CC-PVTZ AUX)
    Blend: AUG-CC-PVTZ-RI
    Molecular point group: c1

    Geometry (in Angstrom), charge = 0, multiplicity = 1:

       Center              X                  Y                   Z               Mass
    ------------   -----------------  -----------------  -----------------  -----------------
         C            2.061262791309     0.515412943986     0.023471628608    12.000000000000
         C           -2.090497208691     0.515410943986    -0.024035371392    12.000000000000
         C            2.636003791309    -0.904108056014    -0.020907371392    12.000000000000
         C           -2.665248208691    -0.904103056014     0.020633628608    12.000000000000
         C            0.596574791309     0.528879943986     0.006906628608    12.000000000000
         C           -0.525818708691     0.528879043986    -0.005882971392    12.000000000000
         H            2.415660791309     1.030099943986     0.923524628608     1.007825032230
         H            2.435954791309     1.093312943986    -0.828732371392     1.007825032230
         H           -2.465346208691     1.093512943986     0.827997628608     1.007825032230
         H           -2.444723208691     1.029867943986    -0.924247371392     1.007825032230
         H            3.730091791309    -0.883950056014    -0.007374371392     1.007825032230
         H            2.314728791309    -1.422494056014    -0.926967371392     1.007825032230
         H            2.294316791309    -1.486137056014     0.837825628608     1.007825032230
         H           -2.323220208691    -1.486350056014    -0.837839371392     1.007825032230
         H           -2.344315208691    -1.422245056014     0.926931628608     1.007825032230
         H           -3.759331208691    -0.883956056014     0.006664628608     1.007825032230

  Basis Set: AUG-CC-PVTZ
    Blend: AUG-CC-PVTZ
  Basis Set: (AUG-CC-PVTZ AUX)
    Blend: AUG-CC-PVTZ-JKFIT
	 Reference Energy          =    -233.0482031391456701 [Eh]
	 Singles Energy            =      -0.0000000000000000 [Eh]
	 Same-Spin Energy          =      -0.2420988881869649 [Eh]
	 Opposite-Spin Energy      =      -0.8760329048159430 [Eh]
	 Correlation Energy        =      -1.1181317930029078 [Eh]
	 Total Energy              =    -234.1663349321485725 [Eh]

	 ================> DF-SCS-MP2 Energies <==================
	-----------------------------------------------------------
	 SCS Same-Spin Scale       =       0.3333333333333333 [-]
	 SCS Opposite-Spin Scale   =       1.2000000000000000 [-]
	 SCS Same-Spin Energy      =      -0.0806996293956549 [Eh]
	 SCS Opposite-Spin Energy  =      -1.0512394857791316 [Eh]
	 SCS Correlation Energy    =      -1.1319391151747866 [Eh]
	 SCS Total Energy          =    -234.1801422543204581 [Eh]
	-----------------------------------------------------------

  Dipole Moment: [D]
     X:    -0.0706      Y:    -0.1131      Z:    -0.0003     Total:     0.1333

*** Psi4 exiting successfully. Buy a developer a beer!
