                               Psi4 1.3.2 release

  ==> Input File <==

--------------------------------------------------------------------------
#psi4
#
memory 32 gb

molecule  {
0 1
  C        2.0758820     0.5154130     0.0236380
  C       -2.0758780     0.5154110    -0.0238690
  C        2.6382085    -0.9090614    -0.0210637
  C       -2.6506290    -0.9041030     0.0208000
  C        0.6111375     0.5161053     0.0066128
  C       -0.6111930     0.5288790    -0.0068560
  H        2.4302800     1.0301000     0.9236910
  H        2.4505740     1.0933130    -0.8285660
  H       -2.4507270     1.0935130     0.8281640
  H       -2.4301040     1.0298680    -0.9240810
  H        3.7447110    -0.8839500    -0.0072080
  H        2.3293480    -1.4224940    -0.9268010
  H        2.3089360    -1.4861370     0.8379920
  H       -2.3086010    -1.4863500    -0.8376730
  H       -2.3296960    -1.4222450     0.9270980
  H       -3.7447120    -0.8839560     0.0068310
units angstrom
no_reorient  #important for SAPT in psi4, default
symmetry c1  #important for SAPT in psi4, default
}

set PROPERTIES_ORIGIN ["COM"]
properties('MP2/aug-cc-pvtz', properties = ['dipole'])
--------------------------------------------------------------------------

    Molecular point group: c1
  Charge       = 0
  Multiplicity = 1
  Basis Set: AUG-CC-PVTZ
    Blend: AUG-CC-PVTZ
  Basis Set: (AUG-CC-PVTZ AUX)
    Blend: AUG-CC-PVTZ-JKFIT

    Orbital Energies [Eh]
    ---------------------

    Doubly Occupied:

       1A    -11.246689     2A    -11.246552     3A    -11.220138
       4A    -11.220072     5A    -11.219066     6A    -11.215687
       7A     -1.080410     8A     -1.051839     9A     -0.967252
      10A     -0.878345    11A     -0.845563    12A     -0.663531
      13A     -0.626259    14A     -0.625248    15A     -0.616103
      16A     -0.545932    17A     -0.540725    18A     -0.517200
      19A     -0.512204    20A     -0.511852    21A     -0.502915
      22A     -0.356636    23A     -0.355581

  @DF-RHF Final Energy:  -233.05937042032394

   => Energetics <=

    Nuclear Repulsion Energy =            206.9025388902899181
    One-Electron Energy =                -722.7922157854925445
    Two-Electron Energy =                 282.8303064748787392
    Total Energy =                       -233.0593704203239440
  Basis Set: (AUG-CC-PVTZ AUX)
    Blend: AUG-CC-PVTZ-RI
    Molecular point group: c1

    Geometry (in Angstrom), charge = 0, multiplicity = 1:

       Center              X                  Y                   Z               Mass
    ------------   -----------------  -----------------  -----------------  -----------------
         C            2.077705320173     0.518004841342     0.023752672611    12.000000000000
         C           -2.074054679827     0.518002841342    -0.023754327389    12.000000000000
         C            2.640031820173    -0.906469558658    -0.020949027389    12.000000000000
         C           -2.648805679827    -0.901511158658     0.020914672611    12.000000000000
         C            0.612960820173     0.518697141342     0.006727472611    12.000000000000
         C           -0.609369679827     0.531470841342    -0.006741327389    12.000000000000
         H            2.432103320173     1.032691841342     0.923805672611     1.007825032230
         H            2.452397320173     1.095904841342    -0.828451327389     1.007825032230
         H           -2.448903679827     1.096104841342     0.828278672611     1.007825032230
         H           -2.428280679827     1.032459841342    -0.923966327389     1.007825032230
         H            3.746534320173    -0.881358158658    -0.007093327389     1.007825032230
         H            2.331171320173    -1.419902158658    -0.926686327389     1.007825032230
         H            2.310759320173    -1.483545158658     0.838106672611     1.007825032230
         H           -2.306777679827    -1.483758158658    -0.837558327389     1.007825032230
         H           -2.327872679827    -1.419653158658     0.927212672611     1.007825032230
         H           -3.742888679827    -0.881364158658     0.006945672611     1.007825032230

  Basis Set: AUG-CC-PVTZ
    Blend: AUG-CC-PVTZ
  Basis Set: (AUG-CC-PVTZ AUX)
    Blend: AUG-CC-PVTZ-JKFIT
	 Reference Energy          =    -233.0593704203239440 [Eh]
	 Singles Energy            =      -0.0000000000000000 [Eh]
	 Same-Spin Energy          =      -0.2469676407128157 [Eh]
	 Opposite-Spin Energy      =      -0.8842952207028889 [Eh]
	 Correlation Energy        =      -1.1312628614157045 [Eh]
	 Total Energy              =    -234.1906332817396503 [Eh]

	 ================> DF-SCS-MP2 Energies <==================
	-----------------------------------------------------------
	 SCS Same-Spin Scale       =       0.3333333333333333 [-]
	 SCS Opposite-Spin Scale   =       1.2000000000000000 [-]
	 SCS Same-Spin Energy      =      -0.0823225469042719 [Eh]
	 SCS Opposite-Spin Energy  =      -1.0611542648434666 [Eh]
	 SCS Correlation Energy    =      -1.1434768117477385 [Eh]
	 SCS Total Energy          =    -234.2028472320716901 [Eh]
	-----------------------------------------------------------

  Dipole Moment: [D]
     X:    -0.0035      Y:    -0.0991      Z:    -0.0001     Total:     0.0992

*** Psi4 exiting successfully. Buy a developer a beer!
