                               Psi4 1.3.2 release

  ==> Input File <==

--------------------------------------------------------------------------
#psi4
#
memory 32 gb

molecule  {
0 1
  C        2.0758820     0.5154130     0.0236380
  C       -2.0758780     0.5154110    -0.0238690
  C        2.6506230    -0.9041080    -0.0207410
  C       -2.6506290    -0.9041030     0.0208000
  C        0.6112844     0.5416732     0.0292077
  C       -0.6111930     0.5288790    -0.0068560
  H        2.4121329     1.0333305     0.9287860
  H        2.4505740     1.0933130    -0.8285660
  H       -2.4507270     1.0935130     0.8281640
  H       -2.4301040     1.0298680    -0.9240810
  H        3.7447110    -0.8839500    -0.0072080
  H        2.3293480    -1.4224940    -0.9268010
  H        2.3089360    -1.4861370     0.8379920
  H       -2.3086010    -1.4863500    -0.8376730
  H       -2.3296960    -1.4222450     0.9270980
  H       -3.7447120    -0.8839560     0.0068310
units angstrom
no_reorient  #important for SAPT in psi4, default
symmetry c1  #important for SAPT in psi4, default
}

set PROPERTIES_ORIGIN ["COM"]
properties('MP2/aug-cc-pvtz', properties = ['dipole'])
--------------------------------------------------------------------------

    Molecular point group: c1
  Charge       = 0
  Multiplicity = 1
  Basis Set: AUG-CC-PVTZ
    Blend: AUG-CC-PVTZ
  Basis Set: (AUG-CC-PVTZ AUX)
    Blend: AUG-CC-PVTZ-JKFIT

    Orbital Energies [Eh]
    ---------------------

    Doubly Occupied:

       1A    -11.246633     2A    -11.246513     3A    -11.220614
       4A    -11.220195     5A    -11.219200     6A    -11.215833
       7A     -1.080179     8A     -1.051640     9A     -0.967393
      10A     -0.879153    11A     -0.845696    12A     -0.662284
      13A     -0.626245    14A     -0.624403    15A     -0.615521
      16A     -0.546757    17A     -0.543423    18A     -0.516974
      19A     -0.513193    20A     -0.510690    21A     -0.502144
      22A     -0.356713    23A     -0.355076

  @DF-RHF Final Energy:  -233.05937090735131

   => Energetics <=

    Nuclear Repulsion Energy =            206.7745999520176099
    One-Electron Energy =                -722.5349929684798553
    Two-Electron Energy =                 282.7010221091109088
    Total Energy =                       -233.0593709073513082
  Basis Set: (AUG-CC-PVTZ AUX)
    Blend: AUG-CC-PVTZ-RI
    Molecular point group: c1

    Geometry (in Angstrom), charge = 0, multiplicity = 1:

       Center              X                  Y                   Z               Mass
    ------------   -----------------  -----------------  -----------------  -----------------
         C            2.076091644225     0.513502901092     0.020339514223    12.000000000000
         C           -2.075668355775     0.513500901092    -0.027167485777    12.000000000000
         C            2.650832644225    -0.906018098908    -0.024039485777    12.000000000000
         C           -2.650419355775    -0.906013098908     0.017501514223    12.000000000000
         C            0.611494044225     0.539763101092     0.025909214223    12.000000000000
         C           -0.610983355775     0.526968901092    -0.010154485777    12.000000000000
         H            2.412342544225     1.031420401092     0.925487514223     1.007825032230
         H            2.450783644225     1.091402901092    -0.831864485777     1.007825032230
         H           -2.450517355775     1.091602901092     0.824865514223     1.007825032230
         H           -2.429894355775     1.027957901092    -0.927379485777     1.007825032230
         H            3.744920644225    -0.885860098908    -0.010506485777     1.007825032230
         H            2.329557644225    -1.424404098908    -0.930099485777     1.007825032230
         H            2.309145644225    -1.488047098908     0.834693514223     1.007825032230
         H           -2.308391355775    -1.488260098908    -0.840971485777     1.007825032230
         H           -2.329486355775    -1.424155098908     0.923799514223     1.007825032230
         H           -3.744502355775    -0.885866098908     0.003532514223     1.007825032230

  Basis Set: AUG-CC-PVTZ
    Blend: AUG-CC-PVTZ
  Basis Set: (AUG-CC-PVTZ AUX)
    Blend: AUG-CC-PVTZ-JKFIT
	 Reference Energy          =    -233.0593709073513082 [Eh]
	 Singles Energy            =      -0.0000000000000000 [Eh]
	 Same-Spin Energy          =      -0.2469684565579152 [Eh]
	 Opposite-Spin Energy      =      -0.8843198002654554 [Eh]
	 Correlation Energy        =      -1.1312882568233706 [Eh]
	 Total Energy              =    -234.1906591641746900 [Eh]

	 ================> DF-SCS-MP2 Energies <==================
	-----------------------------------------------------------
	 SCS Same-Spin Scale       =       0.3333333333333333 [-]
	 SCS Opposite-Spin Scale   =       1.2000000000000000 [-]
	 SCS Same-Spin Energy      =      -0.0823228188526384 [Eh]
	 SCS Opposite-Spin Energy  =      -1.0611837603185466 [Eh]
	 SCS Correlation Energy    =      -1.1435065791711849 [Eh]
	 SCS Total Energy          =    -234.2028774865224818 [Eh]
	-----------------------------------------------------------

  Dipole Moment: [D]
     X:     0.0054      Y:    -0.1252      Z:    -0.0179     Total:     0.1266

*** Psi4 exiting successfully. Buy a developer a beer!
