                               Psi4 1.4a3.dev225

  ==> Input File <==

--------------------------------------------------------------------------
#psi4
#
memory 32 gb

molecule  {
0 1
  C       -2.0771790    -0.5509460     0.0000070
  C        2.0771780    -0.5509460    -0.0000070
  C       -2.6336780     0.8769070    -0.0000060
  C        2.6336800     0.8769060     0.0000060
  C       -0.6118130    -0.5794080     0.0000030
  C        0.5918120    -0.5794060    -0.0000029
  H       -2.4515650    -1.0921000     0.8772120
  H       -2.4515700    -1.0921170    -0.8771860
  H        2.4515680    -1.0921180     0.8771850
  H        2.4515620    -1.0921010    -0.8772120
  H       -3.7276230     0.8632630    -0.0000030
  H       -2.2941400     1.4208110    -0.8846310
  H       -2.2941360     1.4208280     0.8846080
  H        2.2941380     1.4208280    -0.8846070
  H        2.2941440     1.4208110     0.8846310
  H        3.7276250     0.8632600     0.0000020
units angstrom
no_reorient  #important for SAPT in psi4, default
symmetry c1  #important for SAPT in psi4, default
}

set PROPERTIES_ORIGIN ["COM"]
properties('MP2/aug-cc-pvtz', properties = ['dipole'])
--------------------------------------------------------------------------

    Molecular point group: c1
  Charge       = 0
  Multiplicity = 1
  Basis Set: AUG-CC-PVTZ
    Blend: AUG-CC-PVTZ
  Basis Set: (AUG-CC-PVTZ AUX)
    Blend: AUG-CC-PVTZ-JKFIT

    Orbital Energies [Eh]
    ---------------------

    Doubly Occupied:

       1A    -11.248297     2A    -11.245881     3A    -11.220199
       4A    -11.220042     5A    -11.214492     6A    -11.210591
       7A     -1.079411     8A     -1.049409     9A     -0.971386
      10A     -0.875986    11A     -0.845657    12A     -0.660968
      13A     -0.625519    14A     -0.623843    15A     -0.614741
      16A     -0.544585    17A     -0.541306    18A     -0.516510
      19A     -0.512984    20A     -0.510010    21A     -0.501276
      22A     -0.361532    23A     -0.360419

  @DF-RHF Final Energy:  -233.06161644527535

   => Energetics <=

    Nuclear Repulsion Energy =            206.9658143818754183
    One-Electron Energy =                -722.9447718478409115
    Two-Electron Energy =                 282.9173410206901735
    Total Energy =                       -233.0616164452753765
  Basis Set: (AUG-CC-PVTZ AUX)
    Blend: AUG-CC-PVTZ-RI
    Molecular point group: c1

    Geometry (in Angstrom), charge = 0, multiplicity = 1:

       Center              X                  Y                   Z               Mass
    ------------   -----------------  -----------------  -----------------  -----------------
         C           -2.074254997897    -0.514181665855     0.000006997659    12.000000000000
         C            2.080102002103    -0.514181665855    -0.000007002341    12.000000000000
         C           -2.630753997897     0.913671334145    -0.000006002341    12.000000000000
         C            2.636604002103     0.913670334145     0.000005997659    12.000000000000
         C           -0.608888997897    -0.542643665855     0.000002997659    12.000000000000
         C            0.594736002103    -0.542641665855    -0.000002902341    12.000000000000
         H           -2.448640997897    -1.055335665855     0.877211997659     1.007825032230
         H           -2.448645997897    -1.055352665855    -0.877186002341     1.007825032230
         H            2.454492002103    -1.055353665855     0.877184997659     1.007825032230
         H            2.454486002103    -1.055336665855    -0.877212002341     1.007825032230
         H           -3.724698997897     0.900027334145    -0.000003002341     1.007825032230
         H           -2.291215997897     1.457575334145    -0.884631002341     1.007825032230
         H           -2.291211997897     1.457592334145     0.884607997659     1.007825032230
         H            2.297062002103     1.457592334145    -0.884607002341     1.007825032230
         H            2.297068002103     1.457575334145     0.884630997659     1.007825032230
         H            3.730549002103     0.900024334145     0.000001997659     1.007825032230

  Basis Set: AUG-CC-PVTZ
    Blend: AUG-CC-PVTZ
  Basis Set: (AUG-CC-PVTZ AUX)
    Blend: AUG-CC-PVTZ-JKFIT
	 Reference Energy          =    -233.0616164452753480 [Eh]
	 Singles Energy            =      -0.0000000000000000 [Eh]
	 Same-Spin Energy          =      -0.2459247944670615 [Eh]
	 Opposite-Spin Energy      =      -0.8826090055610645 [Eh]
	 Correlation Energy        =      -1.1285338000281260 [Eh]
	 Total Energy              =    -234.1901502453034709 [Eh]

	 ================> DF-SCS-MP2 Energies <==================
	-----------------------------------------------------------
	 SCS Same-Spin Scale       =       0.3333333333333333 [-]
	 SCS Opposite-Spin Scale   =       1.2000000000000000 [-]
	 SCS Same-Spin Energy      =      -0.0819749314890205 [Eh]
	 SCS Opposite-Spin Energy  =      -1.0591308066732774 [Eh]
	 SCS Correlation Energy    =      -1.1411057381622980 [Eh]
	 SCS Total Energy          =    -234.2027221834376576 [Eh]
	-----------------------------------------------------------

  Dipole Moment: [D]
     X:     0.0083      Y:     0.1404      Z:    -0.0000     Total:     0.1406

*** Psi4 exiting successfully. Buy a developer a beer!
