                               Psi4 1.3.2 release

  ==> Input File <==

--------------------------------------------------------------------------
#psi4
#
memory 32 gb

molecule  {
0 1
  C        2.0758820     0.5154130     0.0236380
  C       -2.0758780     0.5154110    -0.0238690
  C        2.6506230    -0.9041080    -0.0207410
  C       -2.6506290    -0.9041030     0.0208000
  C        0.6111940     0.5288800     0.0070730
  C       -0.5112040     0.5297984    -0.0056946
  H        2.4302800     1.0301000     0.9236910
  H        2.4505740     1.0933130    -0.8285660
  H       -2.4507270     1.0935130     0.8281640
  H       -2.4301040     1.0298680    -0.9240810
  H        3.7447110    -0.8839500    -0.0072080
  H        2.3293480    -1.4224940    -0.9268010
  H        2.3089360    -1.4861370     0.8379920
  H       -2.3086010    -1.4863500    -0.8376730
  H       -2.3296960    -1.4222450     0.9270980
  H       -3.7447120    -0.8839560     0.0068310
units angstrom
no_reorient  #important for SAPT in psi4, default
symmetry c1  #important for SAPT in psi4, default
}

set PROPERTIES_ORIGIN ["COM"]
properties('MP2/aug-cc-pvtz', properties = ['dipole'])
--------------------------------------------------------------------------

    Molecular point group: c1
  Charge       = 0
  Multiplicity = 1
  Basis Set: AUG-CC-PVTZ
    Blend: AUG-CC-PVTZ
  Basis Set: (AUG-CC-PVTZ AUX)
    Blend: AUG-CC-PVTZ-JKFIT

    Orbital Energies [Eh]
    ---------------------

    Doubly Occupied:

       1A    -11.253559     2A    -11.241273     3A    -11.219890
       4A    -11.218444     5A    -11.192947     6A    -11.184921
       7A     -1.080556     8A     -1.040962     9A     -0.987036
      10A     -0.869146    11A     -0.846006    12A     -0.650309
      13A     -0.621579    14A     -0.618278    15A     -0.612113
      16A     -0.543911    17A     -0.536283    18A     -0.514271
      19A     -0.509190    20A     -0.508596    21A     -0.499307
      22A     -0.382342    23A     -0.380902

  @DF-RHF Final Energy:  -233.04820538264889

   => Energetics <=

    Nuclear Repulsion Energy =            207.4512274151443023
    One-Electron Energy =                -723.9752205612427360
    Two-Electron Energy =                 283.4757877634494889
    Total Energy =                       -233.0482053826489164
  Basis Set: (AUG-CC-PVTZ AUX)
    Blend: AUG-CC-PVTZ-RI
    Molecular point group: c1

    Geometry (in Angstrom), charge = 0, multiplicity = 1:

       Center              X                  Y                   Z               Mass
    ------------   -----------------  -----------------  -----------------  -----------------
         C            2.061263449218     0.515278540536     0.023468412165    12.000000000000
         C           -2.090496550782     0.515276540536    -0.024038587835    12.000000000000
         C            2.636004449218    -0.904242459464    -0.020910587835    12.000000000000
         C           -2.665247550782    -0.904237459464     0.020630412165    12.000000000000
         C            0.596575449218     0.528745540536     0.006903412165    12.000000000000
         C           -0.525822550782     0.529663940536    -0.005864187835    12.000000000000
         H            2.415661449218     1.029965540536     0.923521412165     1.007825032230
         H            2.435955449218     1.093178540536    -0.828735587835     1.007825032230
         H           -2.465345550782     1.093378540536     0.827994412165     1.007825032230
         H           -2.444722550782     1.029733540536    -0.924250587835     1.007825032230
         H            3.730092449218    -0.884084459464    -0.007377587835     1.007825032230
         H            2.314729449218    -1.422628459464    -0.926970587835     1.007825032230
         H            2.294317449218    -1.486271459464     0.837822412165     1.007825032230
         H           -2.323219550782    -1.486484459464    -0.837842587835     1.007825032230
         H           -2.344314550782    -1.422379459464     0.926928412165     1.007825032230
         H           -3.759330550782    -0.884090459464     0.006661412165     1.007825032230

  Basis Set: AUG-CC-PVTZ
    Blend: AUG-CC-PVTZ
  Basis Set: (AUG-CC-PVTZ AUX)
    Blend: AUG-CC-PVTZ-JKFIT
	 Reference Energy          =    -233.0482053826488880 [Eh]
	 Singles Energy            =      -0.0000000000000000 [Eh]
	 Same-Spin Energy          =      -0.2420983701366883 [Eh]
	 Opposite-Spin Energy      =      -0.8760322445267442 [Eh]
	 Correlation Energy        =      -1.1181306146634324 [Eh]
	 Total Energy              =    -234.1663359973123306 [Eh]

	 ================> DF-SCS-MP2 Energies <==================
	-----------------------------------------------------------
	 SCS Same-Spin Scale       =       0.3333333333333333 [-]
	 SCS Opposite-Spin Scale   =       1.2000000000000000 [-]
	 SCS Same-Spin Energy      =      -0.0806994567122294 [Eh]
	 SCS Opposite-Spin Energy  =      -1.0512386934320930 [Eh]
	 SCS Correlation Energy    =      -1.1319381501443224 [Eh]
	 SCS Total Energy          =    -234.1801435327932097 [Eh]
	-----------------------------------------------------------

  Dipole Moment: [D]
     X:    -0.0708      Y:    -0.1141      Z:    -0.0004     Total:     0.1342

*** Psi4 exiting successfully. Buy a developer a beer!
