                               Psi4 1.4a3.dev225

  ==> Input File <==

--------------------------------------------------------------------------
#psi4
#
memory 32 gb

molecule  {
0 1
  C       -2.0771790    -0.5509460     0.0000070
  C        2.0771780    -0.5509460    -0.0000070
  C       -2.6336780     0.8769070    -0.0000060
  C        2.6336800     0.8769060     0.0000060
  C       -0.6118130    -0.5794080     0.0000030
  C        0.5618214    -0.5803769    -0.0000029
  H       -2.4515650    -1.0921000     0.8772120
  H       -2.4515700    -1.0921170    -0.8771860
  H        2.4515680    -1.0921180     0.8771850
  H        2.4515620    -1.0921010    -0.8772120
  H       -3.7276230     0.8632630    -0.0000030
  H       -2.2941400     1.4208110    -0.8846310
  H       -2.2941360     1.4208280     0.8846080
  H        2.2941380     1.4208280    -0.8846070
  H        2.2941440     1.4208110     0.8846310
  H        3.7276250     0.8632600     0.0000020
units angstrom
no_reorient  #important for SAPT in psi4, default
symmetry c1  #important for SAPT in psi4, default
}

set PROPERTIES_ORIGIN ["COM"]
properties('MP2/aug-cc-pvtz', properties = ['dipole'])
--------------------------------------------------------------------------

    Molecular point group: c1
  Charge       = 0
  Multiplicity = 1
  Basis Set: AUG-CC-PVTZ
    Blend: AUG-CC-PVTZ
  Basis Set: (AUG-CC-PVTZ AUX)
    Blend: AUG-CC-PVTZ-JKFIT

    Orbital Energies [Eh]
    ---------------------

    Doubly Occupied:

       1A    -11.250411     2A    -11.244319     3A    -11.220070
       4A    -11.219532     5A    -11.206603     6A    -11.201453
       7A     -1.079162     8A     -1.046083     9A     -0.977454
      10A     -0.872991    11A     -0.846005    12A     -0.656977
      13A     -0.623244    14A     -0.622888    15A     -0.613703
      16A     -0.543878    17A     -0.539278    18A     -0.515673
      19A     -0.511615    20A     -0.509605    21A     -0.500482
      22A     -0.369041    23A     -0.367910

  @DF-RHF Final Energy:  -233.06106508657913

   => Energetics <=

    Nuclear Repulsion Energy =            207.1375516977913662
    One-Electron Energy =                -723.3204849725389067
    Two-Electron Energy =                 283.1218681881683210
    Total Energy =                       -233.0610650865791627
  Basis Set: (AUG-CC-PVTZ AUX)
    Blend: AUG-CC-PVTZ-RI
    Molecular point group: c1

    Geometry (in Angstrom), charge = 0, multiplicity = 1:

       Center              X                  Y                   Z               Mass
    ------------   -----------------  -----------------  -----------------  -----------------
         C           -2.069870313787    -0.514039718385     0.000006997659    12.000000000000
         C            2.084486686213    -0.514039718385    -0.000007002341    12.000000000000
         C           -2.626369313787     0.913813281615    -0.000006002341    12.000000000000
         C            2.640988686213     0.913812281615     0.000005997659    12.000000000000
         C           -0.604504313787    -0.542501718385     0.000002997659    12.000000000000
         C            0.569130086213    -0.543470618385    -0.000002902341    12.000000000000
         H           -2.444256313787    -1.055193718385     0.877211997659     1.007825032230
         H           -2.444261313787    -1.055210718385    -0.877186002341     1.007825032230
         H            2.458876686213    -1.055211718385     0.877184997659     1.007825032230
         H            2.458870686213    -1.055194718385    -0.877212002341     1.007825032230
         H           -3.720314313787     0.900169281615    -0.000003002341     1.007825032230
         H           -2.286831313787     1.457717281615    -0.884631002341     1.007825032230
         H           -2.286827313787     1.457734281615     0.884607997659     1.007825032230
         H            2.301446686213     1.457734281615    -0.884607002341     1.007825032230
         H            2.301452686213     1.457717281615     0.884630997659     1.007825032230
         H            3.734933686213     0.900166281615     0.000001997659     1.007825032230

  Basis Set: AUG-CC-PVTZ
    Blend: AUG-CC-PVTZ
  Basis Set: (AUG-CC-PVTZ AUX)
    Blend: AUG-CC-PVTZ-JKFIT
	 Reference Energy          =    -233.0610650865791342 [Eh]
	 Singles Energy            =      -0.0000000000000000 [Eh]
	 Same-Spin Energy          =      -0.2444089586887672 [Eh]
	 Opposite-Spin Energy      =      -0.8800451901289630 [Eh]
	 Correlation Energy        =      -1.1244541488177302 [Eh]
	 Total Energy              =    -234.1855192353968675 [Eh]

	 ================> DF-SCS-MP2 Energies <==================
	-----------------------------------------------------------
	 SCS Same-Spin Scale       =       0.3333333333333333 [-]
	 SCS Opposite-Spin Scale   =       1.2000000000000000 [-]
	 SCS Same-Spin Energy      =      -0.0814696528962557 [Eh]
	 SCS Opposite-Spin Energy  =      -1.0560542281547556 [Eh]
	 SCS Correlation Energy    =      -1.1375238810510113 [Eh]
	 SCS Total Energy          =    -234.1985889676301440 [Eh]
	-----------------------------------------------------------

  Dipole Moment: [D]
     X:     0.0267      Y:     0.1414      Z:     0.0000     Total:     0.1439

*** Psi4 exiting successfully. Buy a developer a beer!
