                               Psi4 1.3.2 release

  ==> Input File <==

--------------------------------------------------------------------------
#psi4
#
memory 32 gb

molecule  {
0 1
  C        2.0757101     0.5026316     0.0235174
  C       -2.0758780     0.5154110    -0.0238690
  C        2.6506230    -0.9041080    -0.0207410
  C       -2.6506290    -0.9041030     0.0208000
  C        0.6111940     0.5288800     0.0070730
  C       -0.6111453     0.5182116    -0.0069545
  H        2.4302800     1.0301000     0.9236910
  H        2.4505740     1.0933130    -0.8285660
  H       -2.4507270     1.0935130     0.8281640
  H       -2.4301040     1.0298680    -0.9240810
  H        3.7447110    -0.8839500    -0.0072080
  H        2.3293480    -1.4224940    -0.9268010
  H        2.3089360    -1.4861370     0.8379920
  H       -2.3086010    -1.4863500    -0.8376730
  H       -2.3296960    -1.4222450     0.9270980
  H       -3.7447120    -0.8839560     0.0068310
units angstrom
no_reorient  #important for SAPT in psi4, default
symmetry c1  #important for SAPT in psi4, default
}

set PROPERTIES_ORIGIN ["COM"]
properties('MP2/aug-cc-pvtz', properties = ['dipole'])
--------------------------------------------------------------------------

    Molecular point group: c1
  Charge       = 0
  Multiplicity = 1
  Basis Set: AUG-CC-PVTZ
    Blend: AUG-CC-PVTZ
  Basis Set: (AUG-CC-PVTZ AUX)
    Blend: AUG-CC-PVTZ-JKFIT

    Orbital Energies [Eh]
    ---------------------

    Doubly Occupied:

       1A    -11.247187     2A    -11.246645     3A    -11.220108
       4A    -11.219715     5A    -11.219325     6A    -11.215946
       7A     -1.080886     8A     -1.052650     9A     -0.968129
      10A     -0.878347    11A     -0.844970    12A     -0.663406
      13A     -0.626961    14A     -0.624213    15A     -0.615054
      16A     -0.548576    17A     -0.543478    18A     -0.517273
      19A     -0.512928    20A     -0.509553    21A     -0.500495
      22A     -0.357351    23A     -0.355220

  @DF-RHF Final Energy:  -233.05931420706898

   => Energetics <=

    Nuclear Repulsion Energy =            206.9291891546714908
    One-Electron Energy =                -722.8401705511205364
    Two-Electron Energy =                 282.8516671893801231
    Total Energy =                       -233.0593142070689510
  Basis Set: (AUG-CC-PVTZ AUX)
    Blend: AUG-CC-PVTZ-RI
    Molecular point group: c1

    Geometry (in Angstrom), charge = 0, multiplicity = 1:

       Center              X                  Y                   Z               Mass
    ------------   -----------------  -----------------  -----------------  -----------------
         C            2.075728293974     0.506059818820     0.023549643953    12.000000000000
         C           -2.075859806026     0.518839218820    -0.023836756047    12.000000000000
         C            2.650641193974    -0.900679781180    -0.020708756047    12.000000000000
         C           -2.650610806026    -0.900674781180     0.020832243953    12.000000000000
         C            0.611212193974     0.532308218820     0.007105243953    12.000000000000
         C           -0.611127106026     0.521639818820    -0.006922256047    12.000000000000
         H            2.430298193974     1.033528218820     0.923723243953     1.007825032230
         H            2.450592193974     1.096741218820    -0.828533756047     1.007825032230
         H           -2.450708806026     1.096941218820     0.828196243953     1.007825032230
         H           -2.430085806026     1.033296218820    -0.924048756047     1.007825032230
         H            3.744729193974    -0.880521781180    -0.007175756047     1.007825032230
         H            2.329366193974    -1.419065781180    -0.926768756047     1.007825032230
         H            2.308954193974    -1.482708781180     0.838024243953     1.007825032230
         H           -2.308582806026    -1.482921781180    -0.837640756047     1.007825032230
         H           -2.329677806026    -1.418816781180     0.927130243953     1.007825032230
         H           -3.744693806026    -0.880527781180     0.006863243953     1.007825032230

  Basis Set: AUG-CC-PVTZ
    Blend: AUG-CC-PVTZ
  Basis Set: (AUG-CC-PVTZ AUX)
    Blend: AUG-CC-PVTZ-JKFIT
	 Reference Energy          =    -233.0593142070689794 [Eh]
	 Singles Energy            =      -0.0000000000000000 [Eh]
	 Same-Spin Energy          =      -0.2470304192790754 [Eh]
	 Opposite-Spin Energy      =      -0.8843550639848805 [Eh]
	 Correlation Energy        =      -1.1313854832639558 [Eh]
	 Total Energy              =    -234.1906996903329343 [Eh]

	 ================> DF-SCS-MP2 Energies <==================
	-----------------------------------------------------------
	 SCS Same-Spin Scale       =       0.3333333333333333 [-]
	 SCS Opposite-Spin Scale   =       1.2000000000000000 [-]
	 SCS Same-Spin Energy      =      -0.0823434730930251 [Eh]
	 SCS Opposite-Spin Energy  =      -1.0612260767818567 [Eh]
	 SCS Correlation Energy    =      -1.1435695498748817 [Eh]
	 SCS Total Energy          =    -234.2028837569438622 [Eh]
	-----------------------------------------------------------

  Dipole Moment: [D]
     X:     0.0014      Y:    -0.1100      Z:    -0.0004     Total:     0.1100

*** Psi4 exiting successfully. Buy a developer a beer!
