                               Psi4 1.3.2 release

  ==> Input File <==

--------------------------------------------------------------------------
#psi4
#
memory 32 gb

molecule  {
0 1
  C        2.0745252     0.4643033     0.0231482
  C       -2.0758780     0.5154110    -0.0238690
  C        2.6506230    -0.9041080    -0.0207410
  C       -2.6506290    -0.9041030     0.0208000
  C        0.6111940     0.5288800     0.0070730
  C       -0.6104438     0.4862174    -0.0072434
  H        2.4302800     1.0301000     0.9236910
  H        2.4505740     1.0933130    -0.8285660
  H       -2.4507270     1.0935130     0.8281640
  H       -2.4301040     1.0298680    -0.9240810
  H        3.7447110    -0.8839500    -0.0072080
  H        2.3293480    -1.4224940    -0.9268010
  H        2.3089360    -1.4861370     0.8379920
  H       -2.3086010    -1.4863500    -0.8376730
  H       -2.3296960    -1.4222450     0.9270980
  H       -3.7447120    -0.8839560     0.0068310
units angstrom
no_reorient  #important for SAPT in psi4, default
symmetry c1  #important for SAPT in psi4, default
}

set PROPERTIES_ORIGIN ["COM"]
properties('MP2/aug-cc-pvtz', properties = ['dipole'])
--------------------------------------------------------------------------

    Molecular point group: c1
  Charge       = 0
  Multiplicity = 1
  Basis Set: AUG-CC-PVTZ
    Blend: AUG-CC-PVTZ
  Basis Set: (AUG-CC-PVTZ AUX)
    Blend: AUG-CC-PVTZ-JKFIT

    Orbital Energies [Eh]
    ---------------------

    Doubly Occupied:

       1A    -11.249129     2A    -11.246845     3A    -11.219797
       4A    -11.219636     5A    -11.218198     6A    -11.216259
       7A     -1.083098     8A     -1.055501     9A     -0.970024
      10A     -0.877291    11A     -0.842973    12A     -0.663814
      13A     -0.628267    14A     -0.623405    15A     -0.613988
      16A     -0.558875    17A     -0.542109    18A     -0.517919
      19A     -0.510384    20A     -0.508014    21A     -0.495056
      22A     -0.358674    23A     -0.354245

  @DF-RHF Final Energy:  -233.05609950920177

   => Energetics <=

    Nuclear Repulsion Energy =            207.2848445235680970
    One-Electron Energy =                -723.5348885055516348
    Two-Electron Energy =                 283.1939444727817090
    Total Energy =                       -233.0560995092017720
  Basis Set: (AUG-CC-PVTZ AUX)
    Blend: AUG-CC-PVTZ-RI
    Molecular point group: c1

    Geometry (in Angstrom), charge = 0, multiplicity = 1:

       Center              X                  Y                   Z               Mass
    ------------   -----------------  -----------------  -----------------  -----------------
         C            2.074614067995     0.478012805235     0.023276659454    12.000000000000
         C           -2.075789132005     0.529120505235    -0.023740540546    12.000000000000
         C            2.650711867995    -0.890398494765    -0.020612540546    12.000000000000
         C           -2.650540132005    -0.890393494765     0.020928459454    12.000000000000
         C            0.611282867995     0.542589505235     0.007201459454    12.000000000000
         C           -0.610354932005     0.499926905235    -0.007114940546    12.000000000000
         H            2.430368867995     1.043809505235     0.923819459454     1.007825032230
         H            2.450662867995     1.107022505235    -0.828437540546     1.007825032230
         H           -2.450638132005     1.107222505235     0.828292459454     1.007825032230
         H           -2.430015132005     1.043577505235    -0.923952540546     1.007825032230
         H            3.744799867995    -0.870240494765    -0.007079540546     1.007825032230
         H            2.329436867995    -1.408784494765    -0.926672540546     1.007825032230
         H            2.309024867995    -1.472427494765     0.838120459454     1.007825032230
         H           -2.308512132005    -1.472640494765    -0.837544540546     1.007825032230
         H           -2.329607132005    -1.408535494765     0.927226459454     1.007825032230
         H           -3.744623132005    -0.870246494765     0.006959459454     1.007825032230

  Basis Set: AUG-CC-PVTZ
    Blend: AUG-CC-PVTZ
  Basis Set: (AUG-CC-PVTZ AUX)
    Blend: AUG-CC-PVTZ-JKFIT
	 Reference Energy          =    -233.0560995092017720 [Eh]
	 Singles Energy            =      -0.0000000000000000 [Eh]
	 Same-Spin Energy          =      -0.2473446422129686 [Eh]
	 Opposite-Spin Energy      =      -0.8848744327755528 [Eh]
	 Correlation Energy        =      -1.1322190749885215 [Eh]
	 Total Energy              =    -234.1883185841902844 [Eh]

	 ================> DF-SCS-MP2 Energies <==================
	-----------------------------------------------------------
	 SCS Same-Spin Scale       =       0.3333333333333333 [-]
	 SCS Opposite-Spin Scale   =       1.2000000000000000 [-]
	 SCS Same-Spin Energy      =      -0.0824482140709895 [Eh]
	 SCS Opposite-Spin Energy  =      -1.0618493193306633 [Eh]
	 SCS Correlation Energy    =      -1.1442975334016527 [Eh]
	 SCS Total Energy          =    -234.2003970426034130 [Eh]
	-----------------------------------------------------------

  Dipole Moment: [D]
     X:     0.0054      Y:    -0.1110      Z:    -0.0004     Total:     0.1111

*** Psi4 exiting successfully. Buy a developer a beer!
