                               Psi4 1.3.2 release

  ==> Input File <==

--------------------------------------------------------------------------
#psi4
#
memory 32 gb

molecule  {
0 1
  C        2.0758912     0.5409779     0.0238754
  C       -2.0758780     0.5154110    -0.0238690
  C        2.6506230    -0.9041080    -0.0207410
  C       -2.6506290    -0.9041030     0.0208000
  C        0.6111940     0.5288800     0.0070730
  C       -0.6110091     0.5502131    -0.0066559
  H        2.4302800     1.0301000     0.9236910
  H        2.4505740     1.0933130    -0.8285660
  H       -2.4507270     1.0935130     0.8281640
  H       -2.4301040     1.0298680    -0.9240810
  H        3.7447110    -0.8839500    -0.0072080
  H        2.3293480    -1.4224940    -0.9268010
  H        2.3089360    -1.4861370     0.8379920
  H       -2.3086010    -1.4863500    -0.8376730
  H       -2.3296960    -1.4222450     0.9270980
  H       -3.7447120    -0.8839560     0.0068310
units angstrom
no_reorient  #important for SAPT in psi4, default
symmetry c1  #important for SAPT in psi4, default
}

set PROPERTIES_ORIGIN ["COM"]
properties('MP2/aug-cc-pvtz', properties = ['dipole'])
--------------------------------------------------------------------------

    Molecular point group: c1
  Charge       = 0
  Multiplicity = 1
  Basis Set: AUG-CC-PVTZ
    Blend: AUG-CC-PVTZ
  Basis Set: (AUG-CC-PVTZ AUX)
    Blend: AUG-CC-PVTZ-JKFIT

    Orbital Energies [Eh]
    ---------------------

    Doubly Occupied:

       1A    -11.246577     2A    -11.245560     3A    -11.221218
       4A    -11.220451     5A    -11.219201     6A    -11.215822
       7A     -1.079170     8A     -1.049862     9A     -0.966448
      10A     -0.879296    11A     -0.846799    12A     -0.663092
      13A     -0.625801    14A     -0.625448    15A     -0.616283
      16A     -0.545980    17A     -0.538204    18A     -0.516630
      19A     -0.513715    20A     -0.512499    21A     -0.503803
      22A     -0.356194    23A     -0.355968

  @DF-RHF Final Energy:  -233.05923372155792

   => Energetics <=

    Nuclear Repulsion Energy =            206.5703241141821991
    One-Electron Energy =                -722.1310771063830316
    Two-Electron Energy =                 282.5015192706429161
    Total Energy =                       -233.0592337215579164
  Basis Set: (AUG-CC-PVTZ AUX)
    Blend: AUG-CC-PVTZ-RI
    Molecular point group: c1

    Geometry (in Angstrom), charge = 0, multiplicity = 1:

       Center              X                  Y                   Z               Mass
    ------------   -----------------  -----------------  -----------------  -----------------
         C            2.075863004097     0.534121133496     0.023811647755    12.000000000000
         C           -2.075906195903     0.508554233496    -0.023932752245    12.000000000000
         C            2.650594804097    -0.910964766504    -0.020804752245    12.000000000000
         C           -2.650657195903    -0.910959766504     0.020736247755    12.000000000000
         C            0.611165804097     0.522023233496     0.007009247755    12.000000000000
         C           -0.611037295903     0.543356333496    -0.006719652245    12.000000000000
         H            2.430251804097     1.023243233496     0.923627247755     1.007825032230
         H            2.450545804097     1.086456233496    -0.828629752245     1.007825032230
         H           -2.450755195903     1.086656233496     0.828100247755     1.007825032230
         H           -2.430132195903     1.023011233496    -0.924144752245     1.007825032230
         H            3.744682804097    -0.890806766504    -0.007271752245     1.007825032230
         H            2.329319804097    -1.429350766504    -0.926864752245     1.007825032230
         H            2.308907804097    -1.492993766504     0.837928247755     1.007825032230
         H           -2.308629195903    -1.493206766504    -0.837736752245     1.007825032230
         H           -2.329724195903    -1.429101766504     0.927034247755     1.007825032230
         H           -3.744740195903    -0.890812766504     0.006767247755     1.007825032230

  Basis Set: AUG-CC-PVTZ
    Blend: AUG-CC-PVTZ
  Basis Set: (AUG-CC-PVTZ AUX)
    Blend: AUG-CC-PVTZ-JKFIT
	 Reference Energy          =    -233.0592337215579164 [Eh]
	 Singles Energy            =      -0.0000000000000000 [Eh]
	 Same-Spin Energy          =      -0.2468158169756228 [Eh]
	 Opposite-Spin Energy      =      -0.8841712223046650 [Eh]
	 Correlation Energy        =      -1.1309870392802879 [Eh]
	 Total Energy              =    -234.1902207608382014 [Eh]

	 ================> DF-SCS-MP2 Energies <==================
	-----------------------------------------------------------
	 SCS Same-Spin Scale       =       0.3333333333333333 [-]
	 SCS Opposite-Spin Scale   =       1.2000000000000000 [-]
	 SCS Same-Spin Energy      =      -0.0822719389918743 [Eh]
	 SCS Opposite-Spin Energy  =      -1.0610054667655979 [Eh]
	 SCS Correlation Energy    =      -1.1432774057574722 [Eh]
	 SCS Total Energy          =    -234.2025111273153755 [Eh]
	-----------------------------------------------------------

  Dipole Moment: [D]
     X:    -0.0027      Y:    -0.1138      Z:    -0.0004     Total:     0.1138

*** Psi4 exiting successfully. Buy a developer a beer!
