                               Psi4 1.3.2 release

  ==> Input File <==

--------------------------------------------------------------------------
#psi4
#
memory 32 gb

molecule  {
0 1
  C        2.0758820     0.5154130     0.0236380
  C       -2.0758780     0.5154110    -0.0238690
  C        2.6506230    -0.9041080    -0.0207410
  C       -2.6506290    -0.9041030     0.0208000
  C        0.6111940     0.5288800     0.0070730
  C       -0.6111930     0.5288790    -0.0068560
  H        2.4302800     1.0301000     0.9236910
  H        2.4505740     1.0933130    -0.8285660
  H       -2.4507270     1.0935130     0.8281640
  H       -2.4301040     1.0298680    -0.9240810
  H        3.7447110    -0.8839500    -0.0072080
  H        2.3293480    -1.4224940    -0.9268010
  H        2.3089360    -1.4861370     0.8379920
  H       -2.3086010    -1.4863500    -0.8376730
  H       -2.3296960    -1.4222450     0.9270980
  H       -3.7447120    -0.8839560     0.0068310
units angstrom
no_reorient  #important for SAPT in psi4, default
symmetry c1  #important for SAPT in psi4, default
}

set PROPERTIES_ORIGIN ["COM"]
properties('MP2/aug-cc-pvtz', properties = ['dipole'])
--------------------------------------------------------------------------

    Molecular point group: c1
  Charge       = 0
  Multiplicity = 1
  Basis Set: AUG-CC-PVTZ
    Blend: AUG-CC-PVTZ
  Basis Set: (AUG-CC-PVTZ AUX)
    Blend: AUG-CC-PVTZ-JKFIT

    Orbital Energies [Eh]
    ---------------------

    Doubly Occupied:

       1A    -11.246608     2A    -11.246608     3A    -11.220219
       4A    -11.220219     5A    -11.219263     6A    -11.215884
       7A     -1.080269     8A     -1.051706     9A     -0.967545
      10A     -0.878675    11A     -0.845599    12A     -0.663291
      13A     -0.626494    14A     -0.624626    15A     -0.615467
      16A     -0.546193    17A     -0.543053    18A     -0.517052
      19A     -0.513449    20A     -0.510360    21A     -0.501861
      22A     -0.356910    23A     -0.355531

  @DF-RHF Final Energy:  -233.05964150057883

   => Energetics <=

    Nuclear Repulsion Energy =            206.8099501963121156
    One-Electron Energy =                -722.6054199776394853
    Two-Electron Energy =                 282.7358282807485352
    Total Energy =                       -233.0596415005788344
  Basis Set: (AUG-CC-PVTZ AUX)
    Blend: AUG-CC-PVTZ-RI
    Molecular point group: c1

    Geometry (in Angstrom), charge = 0, multiplicity = 1:

       Center              X                  Y                   Z               Mass
    ------------   -----------------  -----------------  -----------------  -----------------
         C            2.075882035692     0.515412958606     0.023638211106    12.000000000000
         C           -2.075877964308     0.515410958606    -0.023868788894    12.000000000000
         C            2.650623035692    -0.904108041394    -0.020740788894    12.000000000000
         C           -2.650628964308    -0.904103041394     0.020800211106    12.000000000000
         C            0.611194035692     0.528879958606     0.007073211106    12.000000000000
         C           -0.611192964308     0.528878958606    -0.006855788894    12.000000000000
         H            2.430280035692     1.030099958606     0.923691211106     1.007825032230
         H            2.450574035692     1.093312958606    -0.828565788894     1.007825032230
         H           -2.450726964308     1.093512958606     0.828164211106     1.007825032230
         H           -2.430103964308     1.029867958606    -0.924080788894     1.007825032230
         H            3.744711035692    -0.883950041394    -0.007207788894     1.007825032230
         H            2.329348035692    -1.422494041394    -0.926800788894     1.007825032230
         H            2.308936035692    -1.486137041394     0.837992211106     1.007825032230
         H           -2.308600964308    -1.486350041394    -0.837672788894     1.007825032230
         H           -2.329695964308    -1.422245041394     0.927098211106     1.007825032230
         H           -3.744711964308    -0.883956041394     0.006831211106     1.007825032230

  Basis Set: AUG-CC-PVTZ
    Blend: AUG-CC-PVTZ
  Basis Set: (AUG-CC-PVTZ AUX)
    Blend: AUG-CC-PVTZ-JKFIT
	 Reference Energy          =    -233.0596415005788344 [Eh]
	 Singles Energy            =      -0.0000000000000000 [Eh]
	 Same-Spin Energy          =      -0.2469479244151277 [Eh]
	 Opposite-Spin Energy      =      -0.8842563675742414 [Eh]
	 Correlation Energy        =      -1.1312042919893690 [Eh]
	 Total Energy              =    -234.1908457925682114 [Eh]

	 ================> DF-SCS-MP2 Energies <==================
	-----------------------------------------------------------
	 SCS Same-Spin Scale       =       0.3333333333333333 [-]
	 SCS Opposite-Spin Scale   =       1.2000000000000000 [-]
	 SCS Same-Spin Energy      =      -0.0823159748050426 [Eh]
	 SCS Opposite-Spin Energy  =      -1.0611076410890896 [Eh]
	 SCS Correlation Energy    =      -1.1434236158941322 [Eh]
	 SCS Total Energy          =    -234.2030651164729704 [Eh]
	-----------------------------------------------------------

  Dipole Moment: [D]
     X:     0.0000      Y:    -0.1107      Z:    -0.0004     Total:     0.1107

*** Psi4 exiting successfully. Buy a developer a beer!
