                               Psi4 1.3.2 release

  ==> Input File <==

--------------------------------------------------------------------------
#psi4
#
memory 32 gb

molecule  {
0 1
  C        2.0745714     0.5920889     0.0243347
  C       -2.0758780     0.5154110    -0.0238690
  C        2.6506230    -0.9041080    -0.0207410
  C       -2.6506290    -0.9041030     0.0208000
  C        0.6111940     0.5288800     0.0070730
  C       -0.6095246     0.5928552    -0.0062432
  H        2.4302800     1.0301000     0.9236910
  H        2.4505740     1.0933130    -0.8285660
  H       -2.4507270     1.0935130     0.8281640
  H       -2.4301040     1.0298680    -0.9240810
  H        3.7447110    -0.8839500    -0.0072080
  H        2.3293480    -1.4224940    -0.9268010
  H        2.3089360    -1.4861370     0.8379920
  H       -2.3086010    -1.4863500    -0.8376730
  H       -2.3296960    -1.4222450     0.9270980
  H       -3.7447120    -0.8839560     0.0068310
units angstrom
no_reorient  #important for SAPT in psi4, default
symmetry c1  #important for SAPT in psi4, default
}

set PROPERTIES_ORIGIN ["COM"]
properties('MP2/aug-cc-pvtz', properties = ['dipole'])
--------------------------------------------------------------------------

    Molecular point group: c1
  Charge       = 0
  Multiplicity = 1
  Basis Set: AUG-CC-PVTZ
    Blend: AUG-CC-PVTZ
  Basis Set: (AUG-CC-PVTZ AUX)
    Blend: AUG-CC-PVTZ-JKFIT

    Orbital Energies [Eh]
    ---------------------

    Doubly Occupied:

       1A    -11.246683     2A    -11.243929     3A    -11.223175
       4A    -11.220952     5A    -11.219313     6A    -11.215937
       7A     -1.077367     8A     -1.046443     9A     -0.964539
      10A     -0.880402    11A     -0.848939    12A     -0.662822
      13A     -0.629499    14A     -0.623182    15A     -0.617498
      16A     -0.547765    17A     -0.530799    18A     -0.517911
      19A     -0.515502    20A     -0.509315    21A     -0.505528
      22A     -0.357373    23A     -0.354141

  @DF-RHF Final Energy:  -233.05443948690208

   => Energetics <=

    Nuclear Repulsion Energy =            206.0859102072098494
    One-Electron Energy =                -721.1626762476041677
    Two-Electron Energy =                 282.0223265534922348
    Total Energy =                       -233.0544394869020834
  Basis Set: (AUG-CC-PVTZ AUX)
    Blend: AUG-CC-PVTZ-RI
    Molecular point group: c1

    Geometry (in Angstrom), charge = 0, multiplicity = 1:

       Center              X                  Y                   Z               Mass
    ------------   -----------------  -----------------  -----------------  -----------------
         C            2.074519124636     0.571525247742     0.024143459657    12.000000000000
         C           -2.075930275364     0.494847347742    -0.024060240343    12.000000000000
         C            2.650570724636    -0.924671652258    -0.020932240343    12.000000000000
         C           -2.650681275364    -0.924666652258     0.020608759657    12.000000000000
         C            0.611141724636     0.508316347742     0.006881759657    12.000000000000
         C           -0.609576875364     0.572291547742    -0.006434440343    12.000000000000
         H            2.430227724636     1.009536347742     0.923499759657     1.007825032230
         H            2.450521724636     1.072749347742    -0.828757240343     1.007825032230
         H           -2.450779275364     1.072949347742     0.827972759657     1.007825032230
         H           -2.430156275364     1.009304347742    -0.924272240343     1.007825032230
         H            3.744658724636    -0.904513652258    -0.007399240343     1.007825032230
         H            2.329295724636    -1.443057652258    -0.926992240343     1.007825032230
         H            2.308883724636    -1.506700652258     0.837800759657     1.007825032230
         H           -2.308653275364    -1.506913652258    -0.837864240343     1.007825032230
         H           -2.329748275364    -1.442808652258     0.926906759657     1.007825032230
         H           -3.744764275364    -0.904519652258     0.006639759657     1.007825032230

  Basis Set: AUG-CC-PVTZ
    Blend: AUG-CC-PVTZ
  Basis Set: (AUG-CC-PVTZ AUX)
    Blend: AUG-CC-PVTZ-JKFIT
	 Reference Energy          =    -233.0544394869020834 [Eh]
	 Singles Energy            =      -0.0000000000000000 [Eh]
	 Same-Spin Energy          =      -0.2466809429761863 [Eh]
	 Opposite-Spin Energy      =      -0.8844280122908811 [Eh]
	 Correlation Energy        =      -1.1311089552670675 [Eh]
	 Total Energy              =    -234.1855484421691642 [Eh]

	 ================> DF-SCS-MP2 Energies <==================
	-----------------------------------------------------------
	 SCS Same-Spin Scale       =       0.3333333333333333 [-]
	 SCS Opposite-Spin Scale   =       1.2000000000000000 [-]
	 SCS Same-Spin Energy      =      -0.0822269809920621 [Eh]
	 SCS Opposite-Spin Energy  =      -1.0613136147490572 [Eh]
	 SCS Correlation Energy    =      -1.1435405957411193 [Eh]
	 SCS Total Energy          =    -234.1979800826431983 [Eh]
	-----------------------------------------------------------

  Dipole Moment: [D]
     X:    -0.0077      Y:    -0.1260      Z:    -0.0004     Total:     0.1262

*** Psi4 exiting successfully. Buy a developer a beer!
