                               Psi4 1.3.2 release

  ==> Input File <==

--------------------------------------------------------------------------
#psi4
#
memory 32 gb

molecule  {
0 1
  C        2.0758820     0.5154130     0.0236380
  C       -2.0758780     0.5154110    -0.0238690
  C        2.6998338    -0.8832174    -0.0194166
  C       -2.6506290    -0.9041030     0.0208000
  C        0.6125351     0.5799589     0.0089262
  C       -0.6111930     0.5288790    -0.0068560
  H        2.4302800     1.0301000     0.9236910
  H        2.4505740     1.0933130    -0.8285660
  H       -2.4507270     1.0935130     0.8281640
  H       -2.4301040     1.0298680    -0.9240810
  H        3.7447110    -0.8839500    -0.0072080
  H        2.3293480    -1.4224940    -0.9268010
  H        2.3089360    -1.4861370     0.8379920
  H       -2.3086010    -1.4863500    -0.8376730
  H       -2.3296960    -1.4222450     0.9270980
  H       -3.7447120    -0.8839560     0.0068310
units angstrom
no_reorient  #important for SAPT in psi4, default
symmetry c1  #important for SAPT in psi4, default
}

set PROPERTIES_ORIGIN ["COM"]
properties('MP2/aug-cc-pvtz', properties = ['dipole'])
--------------------------------------------------------------------------

    Molecular point group: c1
  Charge       = 0
  Multiplicity = 1
  Basis Set: AUG-CC-PVTZ
    Blend: AUG-CC-PVTZ
  Basis Set: (AUG-CC-PVTZ AUX)
    Blend: AUG-CC-PVTZ-JKFIT

    Orbital Energies [Eh]
    ---------------------

    Doubly Occupied:

       1A    -11.247064     2A    -11.246546     3A    -11.221442
       4A    -11.220976     5A    -11.220722     6A    -11.217648
       7A     -1.079949     8A     -1.051505     9A     -0.968545
      10A     -0.880505    11A     -0.845881    12A     -0.662495
      13A     -0.627560    14A     -0.623367    15A     -0.612553
      16A     -0.559864    17A     -0.544952    18A     -0.516401
      19A     -0.512722    20A     -0.507903    21A     -0.493654
      22A     -0.357485    23A     -0.354981

  @DF-RHF Final Energy:  -233.05517512747986

   => Energetics <=

    Nuclear Repulsion Energy =            206.4180386832520639
    One-Electron Energy =                -721.7969833353027980
    Two-Electron Energy =                 282.3237695245708210
    Total Energy =                       -233.0551751274798562
  Basis Set: (AUG-CC-PVTZ AUX)
    Blend: AUG-CC-PVTZ-RI
    Molecular point group: c1

    Geometry (in Angstrom), charge = 0, multiplicity = 1:

       Center              X                  Y                   Z               Mass
    ------------   -----------------  -----------------  -----------------  -----------------
         C            2.068491249490     0.504890877584     0.023173639800    12.000000000000
         C           -2.083268750510     0.504888877584    -0.024333360200    12.000000000000
         C            2.692443049490    -0.893739522416    -0.019880960200    12.000000000000
         C           -2.658019750510    -0.914625122416     0.020335639800    12.000000000000
         C            0.605144349490     0.569436777584     0.008461839800    12.000000000000
         C           -0.618583750510     0.518356877584    -0.007320360200    12.000000000000
         H            2.422889249490     1.019577877584     0.923226639800     1.007825032230
         H            2.443183249490     1.082790877584    -0.829030360200     1.007825032230
         H           -2.458117750510     1.082990877584     0.827699639800     1.007825032230
         H           -2.437494750510     1.019345877584    -0.924545360200     1.007825032230
         H            3.737320249490    -0.894472122416    -0.007672360200     1.007825032230
         H            2.321957249490    -1.433016122416    -0.927265360200     1.007825032230
         H            2.301545249490    -1.496659122416     0.837527639800     1.007825032230
         H           -2.315991750510    -1.496872122416    -0.838137360200     1.007825032230
         H           -2.337086750510    -1.432767122416     0.926633639800     1.007825032230
         H           -3.752102750510    -0.894478122416     0.006366639800     1.007825032230

  Basis Set: AUG-CC-PVTZ
    Blend: AUG-CC-PVTZ
  Basis Set: (AUG-CC-PVTZ AUX)
    Blend: AUG-CC-PVTZ-JKFIT
	 Reference Energy          =    -233.0551751274798562 [Eh]
	 Singles Energy            =      -0.0000000000000000 [Eh]
	 Same-Spin Energy          =      -0.2470950311953551 [Eh]
	 Opposite-Spin Energy      =      -0.8847320498351263 [Eh]
	 Correlation Energy        =      -1.1318270810304814 [Eh]
	 Total Energy              =    -234.1870022085103358 [Eh]

	 ================> DF-SCS-MP2 Energies <==================
	-----------------------------------------------------------
	 SCS Same-Spin Scale       =       0.3333333333333333 [-]
	 SCS Opposite-Spin Scale   =       1.2000000000000000 [-]
	 SCS Same-Spin Energy      =      -0.0823650103984517 [Eh]
	 SCS Opposite-Spin Energy  =      -1.0616784598021516 [Eh]
	 SCS Correlation Energy    =      -1.1440434702006033 [Eh]
	 SCS Total Energy          =    -234.1992185976804706 [Eh]
	-----------------------------------------------------------

  Dipole Moment: [D]
     X:    -0.0056      Y:    -0.1522      Z:    -0.0017     Total:     0.1524

*** Psi4 exiting successfully. Buy a developer a beer!
