                               Psi4 1.4a3.dev225

  ==> Input File <==

--------------------------------------------------------------------------
#psi4
#
memory 32 gb

molecule  {
0 1
  C       -2.0771790    -0.5509460     0.0000070
  C        2.0771780    -0.5509460    -0.0000070
  C       -2.6336780     0.8769070    -0.0000060
  C        2.6336800     0.8769060     0.0000060
  C       -0.5618224    -0.5803790     0.0000029
  C        0.6118120    -0.5794060    -0.0000030
  H       -2.4515650    -1.0921000     0.8772120
  H       -2.4515700    -1.0921170    -0.8771860
  H        2.4515680    -1.0921180     0.8771850
  H        2.4515620    -1.0921010    -0.8772120
  H       -3.7276230     0.8632630    -0.0000030
  H       -2.2941400     1.4208110    -0.8846310
  H       -2.2941360     1.4208280     0.8846080
  H        2.2941380     1.4208280    -0.8846070
  H        2.2941440     1.4208110     0.8846310
  H        3.7276250     0.8632600     0.0000020
units angstrom
no_reorient  #important for SAPT in psi4, default
symmetry c1  #important for SAPT in psi4, default
}

set PROPERTIES_ORIGIN ["COM"]
properties('MP2/aug-cc-pvtz', properties = ['dipole'])
--------------------------------------------------------------------------

    Molecular point group: c1
  Charge       = 0
  Multiplicity = 1
  Basis Set: AUG-CC-PVTZ
    Blend: AUG-CC-PVTZ
  Basis Set: (AUG-CC-PVTZ AUX)
    Blend: AUG-CC-PVTZ-JKFIT

    Orbital Energies [Eh]
    ---------------------

    Doubly Occupied:

       1A    -11.250411     2A    -11.244319     3A    -11.220070
       4A    -11.219532     5A    -11.206603     6A    -11.201453
       7A     -1.079162     8A     -1.046083     9A     -0.977454
      10A     -0.872991    11A     -0.846005    12A     -0.656977
      13A     -0.623244    14A     -0.622888    15A     -0.613703
      16A     -0.543878    17A     -0.539278    18A     -0.515673
      19A     -0.511615    20A     -0.509605    21A     -0.500482
      22A     -0.369041    23A     -0.367910

  @DF-RHF Final Energy:  -233.06106507337921

   => Energetics <=

    Nuclear Repulsion Energy =            207.1375513511356701
    One-Electron Energy =                -723.3204842655711673
    Two-Electron Energy =                 283.1218678410562575
    Total Energy =                       -233.0610650733792113
  Basis Set: (AUG-CC-PVTZ AUX)
    Blend: AUG-CC-PVTZ-RI
    Molecular point group: c1

    Geometry (in Angstrom), charge = 0, multiplicity = 1:

       Center              X                  Y                   Z               Mass
    ------------   -----------------  -----------------  -----------------  -----------------
         C           -2.084487759886    -0.514039703765     0.000007026899    12.000000000000
         C            2.069869240114    -0.514039703765    -0.000006973101    12.000000000000
         C           -2.640986759886     0.913813296235    -0.000005973101    12.000000000000
         C            2.626371240114     0.913812296235     0.000006026899    12.000000000000
         C           -0.569131159886    -0.543472703765     0.000002926899    12.000000000000
         C            0.604503240114    -0.542499703765    -0.000002973101    12.000000000000
         H           -2.458873759886    -1.055193703765     0.877212026899     1.007825032230
         H           -2.458878759886    -1.055210703765    -0.877185973101     1.007825032230
         H            2.444259240114    -1.055211703765     0.877185026899     1.007825032230
         H            2.444253240114    -1.055194703765    -0.877211973101     1.007825032230
         H           -3.734931759886     0.900169296235    -0.000002973101     1.007825032230
         H           -2.301448759886     1.457717296235    -0.884630973101     1.007825032230
         H           -2.301444759886     1.457734296235     0.884608026899     1.007825032230
         H            2.286829240114     1.457734296235    -0.884606973101     1.007825032230
         H            2.286835240114     1.457717296235     0.884631026899     1.007825032230
         H            3.720316240114     0.900166296235     0.000002026899     1.007825032230

  Basis Set: AUG-CC-PVTZ
    Blend: AUG-CC-PVTZ
  Basis Set: (AUG-CC-PVTZ AUX)
    Blend: AUG-CC-PVTZ-JKFIT
	 Reference Energy          =    -233.0610650733792113 [Eh]
	 Singles Energy            =      -0.0000000000000000 [Eh]
	 Same-Spin Energy          =      -0.2444089586573018 [Eh]
	 Opposite-Spin Energy      =      -0.8800451904882107 [Eh]
	 Correlation Energy        =      -1.1244541491455124 [Eh]
	 Total Energy              =    -234.1855192225247322 [Eh]

	 ================> DF-SCS-MP2 Energies <==================
	-----------------------------------------------------------
	 SCS Same-Spin Scale       =       0.3333333333333333 [-]
	 SCS Opposite-Spin Scale   =       1.2000000000000000 [-]
	 SCS Same-Spin Energy      =      -0.0814696528857673 [Eh]
	 SCS Opposite-Spin Energy  =      -1.0560542285858527 [Eh]
	 SCS Correlation Energy    =      -1.1375238814716200 [Eh]
	 SCS Total Energy          =    -234.1985889548508339 [Eh]
	-----------------------------------------------------------

  Dipole Moment: [D]
     X:    -0.0267      Y:     0.1414      Z:    -0.0000     Total:     0.1439

*** Psi4 exiting successfully. Buy a developer a beer!
