                               Psi4 1.4a3.dev225

  ==> Input File <==

--------------------------------------------------------------------------
#psi4
#
memory 32 gb

molecule  {
0 1
  C       -2.0771790    -0.5509460     0.0000070
  C        2.0771780    -0.5509460    -0.0000070
  C       -2.6336780     0.8769070    -0.0000060
  C        2.6336800     0.8769060     0.0000060
  C       -0.6618036    -0.5784370     0.0000031
  C        0.6118120    -0.5794060    -0.0000030
  H       -2.4515650    -1.0921000     0.8772120
  H       -2.4515700    -1.0921170    -0.8771860
  H        2.4515680    -1.0921180     0.8771850
  H        2.4515620    -1.0921010    -0.8772120
  H       -3.7276230     0.8632630    -0.0000030
  H       -2.2941400     1.4208110    -0.8846310
  H       -2.2941360     1.4208280     0.8846080
  H        2.2941380     1.4208280    -0.8846070
  H        2.2941440     1.4208110     0.8846310
  H        3.7276250     0.8632600     0.0000020
units angstrom
no_reorient  #important for SAPT in psi4, default
symmetry c1  #important for SAPT in psi4, default
}

set PROPERTIES_ORIGIN ["COM"]
properties('MP2/aug-cc-pvtz', properties = ['dipole'])
--------------------------------------------------------------------------

    Molecular point group: c1
  Charge       = 0
  Multiplicity = 1
  Basis Set: AUG-CC-PVTZ
    Blend: AUG-CC-PVTZ
  Basis Set: (AUG-CC-PVTZ AUX)
    Blend: AUG-CC-PVTZ-JKFIT

    Orbital Energies [Eh]
    ---------------------

    Doubly Occupied:

       1A    -11.249163     2A    -11.243318     3A    -11.232908
       4A    -11.229536     5A    -11.220996     6A    -11.220950
       7A     -1.084066     8A     -1.056694     9A     -0.957427
      10A     -0.883665    11A     -0.842470    12A     -0.670542
      13A     -0.629345    14A     -0.626778    15A     -0.617263
      16A     -0.548483    17A     -0.544043    18A     -0.518781
      19A     -0.515528    20A     -0.511455    21A     -0.503209
      22A     -0.344594    23A     -0.343491

  @DF-RHF Final Energy:  -233.04546665801797

   => Energetics <=

    Nuclear Repulsion Energy =            206.6956981809198624
    One-Electron Energy =                -722.2929146262323457
    Two-Electron Energy =                 282.5517497872945114
    Total Energy =                       -233.0454666580179719
  Basis Set: (AUG-CC-PVTZ AUX)
    Blend: AUG-CC-PVTZ-RI
    Molecular point group: c1

    Geometry (in Angstrom), charge = 0, multiplicity = 1:

       Center              X                  Y                   Z               Mass
    ------------   -----------------  -----------------  -----------------  -----------------
         C           -2.069870313787    -0.514323627946     0.000006997659    12.000000000000
         C            2.084486686213    -0.514323627946    -0.000007002341    12.000000000000
         C           -2.626369313787     0.913529372054    -0.000006002341    12.000000000000
         C            2.640988686213     0.913528372054     0.000005997659    12.000000000000
         C           -0.654494913787    -0.541814627946     0.000003097659    12.000000000000
         C            0.619120686213    -0.542783627946    -0.000003002341    12.000000000000
         H           -2.444256313787    -1.055477627946     0.877211997659     1.007825032230
         H           -2.444261313787    -1.055494627946    -0.877186002341     1.007825032230
         H            2.458876686213    -1.055495627946     0.877184997659     1.007825032230
         H            2.458870686213    -1.055478627946    -0.877212002341     1.007825032230
         H           -3.720314313787     0.899885372054    -0.000003002341     1.007825032230
         H           -2.286831313787     1.457433372054    -0.884631002341     1.007825032230
         H           -2.286827313787     1.457450372054     0.884607997659     1.007825032230
         H            2.301446686213     1.457450372054    -0.884607002341     1.007825032230
         H            2.301452686213     1.457433372054     0.884630997659     1.007825032230
         H            3.734933686213     0.899882372054     0.000001997659     1.007825032230

  Basis Set: AUG-CC-PVTZ
    Blend: AUG-CC-PVTZ
  Basis Set: (AUG-CC-PVTZ AUX)
    Blend: AUG-CC-PVTZ-JKFIT
	 Reference Energy          =    -233.0454666580179719 [Eh]
	 Singles Energy            =      -0.0000000000000000 [Eh]
	 Same-Spin Energy          =      -0.2499330531579841 [Eh]
	 Opposite-Spin Energy      =      -0.8893839868576687 [Eh]
	 Correlation Energy        =      -1.1393170400156527 [Eh]
	 Total Energy              =    -234.1847836980336126 [Eh]

	 ================> DF-SCS-MP2 Energies <==================
	-----------------------------------------------------------
	 SCS Same-Spin Scale       =       0.3333333333333333 [-]
	 SCS Opposite-Spin Scale   =       1.2000000000000000 [-]
	 SCS Same-Spin Energy      =      -0.0833110177193280 [Eh]
	 SCS Opposite-Spin Energy  =      -1.0672607842292023 [Eh]
	 SCS Correlation Energy    =      -1.1505718019485303 [Eh]
	 SCS Total Energy          =    -234.1960384599665019 [Eh]
	-----------------------------------------------------------

  Dipole Moment: [D]
     X:     0.0058      Y:     0.1393      Z:     0.0000     Total:     0.1394

*** Psi4 exiting successfully. Buy a developer a beer!
