                               Psi4 1.4a3.dev225

  ==> Input File <==

--------------------------------------------------------------------------
#psi4
#
memory 32 gb

molecule  {
0 1
  N        1.0430420     0.8835120     0.3262100
  C       -2.7413511    -0.1777679    -0.3439250
  C       -0.4170680    -1.0145740    -0.0079460
  C       -1.3683020    -0.3105490    -1.0112920
  C       -2.2166740     0.1783740     1.1559530
  C       -1.0996000    -0.8433070     1.3811970
  C       -3.6002280     0.9375310    -0.8724950
  C        0.9620280    -0.4146880    -0.0398380
  C        2.0893310    -1.1495780    -0.4236340
  C        3.3396130    -0.5322390    -0.4347340
  C        2.2533150     1.4653640     0.3147880
  C        3.4262710     0.8062240    -0.0568370
  H       -3.2284890    -1.0854330    -0.2500270
  H       -0.3333030    -2.0805640    -0.2540920
  H       -0.9618110     0.6780590    -1.2570810
  H       -1.4754410    -0.8694270    -1.9482280
  H       -3.0167220     0.1138590     1.9027270
  H       -1.8007770     1.1928100     1.1867420
  H       -0.3855780    -0.5294870     2.1482020
  H       -1.5277920    -1.8013410     1.6997400
  H       -3.8772320     0.6843320    -1.9011880
  H       -4.5228040     1.0497910    -0.2936460
  H       -3.0892320     1.9062640    -0.8879070
  H        1.9842510    -2.1936970    -0.7089060
  H        4.2276210    -1.0857940    -0.7310670
  H        2.2780980     2.5111560     0.6184940
  H        4.3773590     1.3311980    -0.0481150
units angstrom
no_reorient  #important for SAPT in psi4, default
symmetry c1  #important for SAPT in psi4, default
}

set PROPERTIES_ORIGIN ["COM"]
properties('MP2/aug-cc-pvtz', properties = ['dipole'])
--------------------------------------------------------------------------

    Molecular point group: c1
  Charge       = 0
  Multiplicity = 1
  Basis Set: AUG-CC-PVTZ
    Blend: AUG-CC-PVTZ
  Basis Set: (AUG-CC-PVTZ AUX)
    Blend: AUG-CC-PVTZ-JKFIT

    Orbital Energies [Eh]
    ---------------------

    Doubly Occupied:

       1A    -15.558208     2A    -11.275471     3A    -11.274412
       4A    -11.258012     5A    -11.236074     6A    -11.235303
       7A    -11.226260     8A    -11.213238     9A    -11.210504
      10A    -11.210264    11A    -11.205656    12A    -11.205043
      13A     -1.251952    14A     -1.121126    15A     -1.081888
      16A     -1.045340    17A     -0.993949    18A     -0.950661
      19A     -0.892725    20A     -0.855044    21A     -0.833189
      22A     -0.769036    23A     -0.760036    24A     -0.696882
      25A     -0.666829    26A     -0.640470    27A     -0.636748
      28A     -0.605882    29A     -0.586959    30A     -0.577617
      31A     -0.572710    32A     -0.552236    33A     -0.539290
      34A     -0.528713    35A     -0.514895    36A     -0.475395
      37A     -0.470048    38A     -0.467996    39A     -0.457360
      40A     -0.450596    41A     -0.411659    42A     -0.407241
      43A     -0.377086    44A     -0.332523

  @DF-RHF Final Energy:  -479.88627919190009

   => Energetics <=

    Nuclear Repulsion Energy =            684.6852072943510166
    One-Electron Energy =               -2007.8779157288690840
    Two-Electron Energy =                 843.3064292426178099
    Total Energy =                       -479.8862791919001438
  Basis Set: (AUG-CC-PVTZ AUX)
    Blend: AUG-CC-PVTZ-RI
    Molecular point group: c1

    Geometry (in Angstrom), charge = 0, multiplicity = 1:

       Center              X                  Y                   Z               Mass
    ------------   -----------------  -----------------  -----------------  -----------------
         N            0.976674679514     0.886430958341     0.327620331882    14.003074004430
         C           -2.807718420486    -0.174848941659    -0.342514668118    12.000000000000
         C           -0.483435320486    -1.011655041659    -0.006535668118    12.000000000000
         C           -1.434669320486    -0.307630041659    -1.009881668118    12.000000000000
         C           -2.283041320486     0.181292958341     1.157363331882    12.000000000000
         C           -1.165967320486    -0.840388041659     1.382607331882    12.000000000000
         C           -3.666595320486     0.940449958341    -0.871084668118    12.000000000000
         C            0.895660679514    -0.411769041659    -0.038427668118    12.000000000000
         C            2.022963679514    -1.146659041659    -0.422223668118    12.000000000000
         C            3.273245679514    -0.529320041659    -0.433323668118    12.000000000000
         C            2.186947679514     1.468282958341     0.316198331882    12.000000000000
         C            3.359903679514     0.809142958341    -0.055426668118    12.000000000000
         H           -3.294856320486    -1.082514041659    -0.248616668118     1.007825032230
         H           -0.399670320486    -2.077645041659    -0.252681668118     1.007825032230
         H           -1.028178320486     0.680977958341    -1.255670668118     1.007825032230
         H           -1.541808320486    -0.866508041659    -1.946817668118     1.007825032230
         H           -3.083089320486     0.116777958341     1.904137331882     1.007825032230
         H           -1.867144320486     1.195728958341     1.188152331882     1.007825032230
         H           -0.451945320486    -0.526568041659     2.149612331882     1.007825032230
         H           -1.594159320486    -1.798422041659     1.701150331882     1.007825032230
         H           -3.943599320486     0.687250958341    -1.899777668118     1.007825032230
         H           -4.589171320486     1.052709958341    -0.292235668118     1.007825032230
         H           -3.155599320486     1.909182958341    -0.886496668118     1.007825032230
         H            1.917883679514    -2.190778041659    -0.707495668118     1.007825032230
         H            4.161253679514    -1.082875041659    -0.729656668118     1.007825032230
         H            2.211730679514     2.514074958341     0.619904331882     1.007825032230
         H            4.310991679514     1.334116958341    -0.046704668118     1.007825032230

  Basis Set: AUG-CC-PVTZ
    Blend: AUG-CC-PVTZ
  Basis Set: (AUG-CC-PVTZ AUX)
    Blend: AUG-CC-PVTZ-JKFIT
	 Reference Energy          =    -479.8862791919000870 [Eh]
	 Singles Energy            =      -0.0000000000000000 [Eh]
	 Same-Spin Energy          =      -0.5327649679415232 [Eh]
	 Opposite-Spin Energy      =      -1.7460187311112945 [Eh]
	 Correlation Energy        =      -2.2787836990528176 [Eh]
	 Total Energy              =    -482.1650628909529246 [Eh]

	 ================> DF-SCS-MP2 Energies <==================
	-----------------------------------------------------------
	 SCS Same-Spin Scale       =       0.3333333333333333 [-]
	 SCS Opposite-Spin Scale   =       1.2000000000000000 [-]
	 SCS Same-Spin Energy      =      -0.1775883226471744 [Eh]
	 SCS Opposite-Spin Energy  =      -2.0952224773335533 [Eh]
	 SCS Correlation Energy    =      -2.2728107999807277 [Eh]
	 SCS Total Energy          =    -482.1590899918808191 [Eh]
	-----------------------------------------------------------

  Dipole Moment: [D]
     X:     1.3208      Y:    -1.0803      Z:    -0.5127     Total:     1.7817

*** Psi4 exiting successfully. Buy a developer a beer!
