                               Psi4 1.4a3.dev225

  ==> Input File <==

--------------------------------------------------------------------------
#psi4
#
memory 32 gb

molecule  {
0 1
  N        1.0430420     0.8835120     0.3262100
  C       -2.6935940    -0.1236090    -0.2650160
  C       -0.4170680    -1.0145740    -0.0079460
  C       -1.3754277    -0.3580117    -1.0363783
  C       -2.2166740     0.1783740     1.1559530
  C       -1.0996000    -0.8433070     1.3811970
  C       -3.6002280     0.9375310    -0.8724950
  C        0.9620280    -0.4146880    -0.0398380
  C        2.0893310    -1.1495780    -0.4236340
  C        3.3396130    -0.5322390    -0.4347340
  C        2.2533150     1.4653640     0.3147880
  C        3.4262710     0.8062240    -0.0568370
  H       -3.2284890    -1.0854330    -0.2500270
  H       -0.3333030    -2.0805640    -0.2540920
  H       -0.9618110     0.6780590    -1.2570810
  H       -1.4754410    -0.8694270    -1.9482280
  H       -3.0167220     0.1138590     1.9027270
  H       -1.8007770     1.1928100     1.1867420
  H       -0.3855780    -0.5294870     2.1482020
  H       -1.5277920    -1.8013410     1.6997400
  H       -3.8772320     0.6843320    -1.9011880
  H       -4.5228040     1.0497910    -0.2936460
  H       -3.0892320     1.9062640    -0.8879070
  H        1.9842510    -2.1936970    -0.7089060
  H        4.2276210    -1.0857940    -0.7310670
  H        2.2780980     2.5111560     0.6184940
  H        4.3773590     1.3311980    -0.0481150
units angstrom
no_reorient  #important for SAPT in psi4, default
symmetry c1  #important for SAPT in psi4, default
}

set PROPERTIES_ORIGIN ["COM"]
properties('MP2/aug-cc-pvtz', properties = ['dipole'])
--------------------------------------------------------------------------

    Molecular point group: c1
  Charge       = 0
  Multiplicity = 1
  Basis Set: AUG-CC-PVTZ
    Blend: AUG-CC-PVTZ
  Basis Set: (AUG-CC-PVTZ AUX)
    Blend: AUG-CC-PVTZ-JKFIT

    Orbital Energies [Eh]
    ---------------------

    Doubly Occupied:

       1A    -15.557975     2A    -11.275370     3A    -11.274199
       4A    -11.257845     5A    -11.235872     6A    -11.235126
       7A    -11.226414     8A    -11.215427     9A    -11.211796
      10A    -11.209850    11A    -11.205174    12A    -11.204060
      13A     -1.251672    14A     -1.125747    15A     -1.081771
      16A     -1.045954    17A     -0.990807    18A     -0.956074
      19A     -0.893462    20A     -0.855035    21A     -0.837000
      22A     -0.764963    23A     -0.754348    24A     -0.696724
      25A     -0.670071    26A     -0.641923    27A     -0.639902
      28A     -0.607806    29A     -0.583683    30A     -0.575851
      31A     -0.573450    32A     -0.552653    33A     -0.538583
      34A     -0.525938    35A     -0.510516    36A     -0.481753
      37A     -0.469939    38A     -0.460617    39A     -0.449134
      40A     -0.441502    41A     -0.438390    42A     -0.409888
      43A     -0.376796    44A     -0.332289

  @DF-RHF Final Energy:  -479.89329010800139

   => Energetics <=

    Nuclear Repulsion Energy =            685.3604041462513123
    One-Electron Energy =               -2009.2206946916357992
    Two-Electron Energy =                 843.9670004373831489
    Total Energy =                       -479.8932901080013380
  Basis Set: (AUG-CC-PVTZ AUX)
    Blend: AUG-CC-PVTZ-RI
    Molecular point group: c1

    Geometry (in Angstrom), charge = 0, multiplicity = 1:

       Center              X                  Y                   Z               Mass
    ------------   -----------------  -----------------  -----------------  -----------------
         N            0.973648516159     0.885932235800     0.323611701059    14.003074004430
         C           -2.762987483841    -0.121188764200    -0.267614298941    12.000000000000
         C           -0.486461483841    -1.012153764200    -0.010544298941    12.000000000000
         C           -1.444821183841    -0.355591464200    -1.038976598941    12.000000000000
         C           -2.286067483841     0.180794235800     1.153354701059    12.000000000000
         C           -1.168993483841    -0.840886764200     1.378598701059    12.000000000000
         C           -3.669621483841     0.939951235800    -0.875093298941    12.000000000000
         C            0.892634516159    -0.412267764200    -0.042436298941    12.000000000000
         C            2.019937516159    -1.147157764200    -0.426232298941    12.000000000000
         C            3.270219516159    -0.529818764200    -0.437332298941    12.000000000000
         C            2.183921516159     1.467784235800     0.312189701059    12.000000000000
         C            3.356877516159     0.808644235800    -0.059435298941    12.000000000000
         H           -3.297882483841    -1.083012764200    -0.252625298941     1.007825032230
         H           -0.402696483841    -2.078143764200    -0.256690298941     1.007825032230
         H           -1.031204483841     0.680479235800    -1.259679298941     1.007825032230
         H           -1.544834483841    -0.867006764200    -1.950826298941     1.007825032230
         H           -3.086115483841     0.116279235800     1.900128701059     1.007825032230
         H           -1.870170483841     1.195230235800     1.184143701059     1.007825032230
         H           -0.454971483841    -0.527066764200     2.145603701059     1.007825032230
         H           -1.597185483841    -1.798920764200     1.697141701059     1.007825032230
         H           -3.946625483841     0.686752235800    -1.903786298941     1.007825032230
         H           -4.592197483841     1.052211235800    -0.296244298941     1.007825032230
         H           -3.158625483841     1.908684235800    -0.890505298941     1.007825032230
         H            1.914857516159    -2.191276764200    -0.711504298941     1.007825032230
         H            4.158227516159    -1.083373764200    -0.733665298941     1.007825032230
         H            2.208704516159     2.513576235800     0.615895701059     1.007825032230
         H            4.307965516159     1.333618235800    -0.050713298941     1.007825032230

  Basis Set: AUG-CC-PVTZ
    Blend: AUG-CC-PVTZ
  Basis Set: (AUG-CC-PVTZ AUX)
    Blend: AUG-CC-PVTZ-JKFIT
	 Reference Energy          =    -479.8932901080013949 [Eh]
	 Singles Energy            =      -0.0000000000000000 [Eh]
	 Same-Spin Energy          =      -0.5327842638378102 [Eh]
	 Opposite-Spin Energy      =      -1.7457074809484534 [Eh]
	 Correlation Energy        =      -2.2784917447862636 [Eh]
	 Total Energy              =    -482.1717818527876602 [Eh]

	 ================> DF-SCS-MP2 Energies <==================
	-----------------------------------------------------------
	 SCS Same-Spin Scale       =       0.3333333333333333 [-]
	 SCS Opposite-Spin Scale   =       1.2000000000000000 [-]
	 SCS Same-Spin Energy      =      -0.1775947546126034 [Eh]
	 SCS Opposite-Spin Energy  =      -2.0948489771381440 [Eh]
	 SCS Correlation Energy    =      -2.2724437317507475 [Eh]
	 SCS Total Energy          =    -482.1657338397521357 [Eh]
	-----------------------------------------------------------

  Dipole Moment: [D]
     X:     1.3279      Y:    -1.0961      Z:    -0.5020     Total:     1.7935

*** Psi4 exiting successfully. Buy a developer a beer!
