                               Psi4 1.4a3.dev225

  ==> Input File <==

--------------------------------------------------------------------------
#psi4
#
memory 32 gb

molecule  {
0 1
  N        1.0430420     0.8835120     0.3262100
  C       -2.6935940    -0.1236090    -0.2650160
  C       -0.4170680    -1.0145740    -0.0079460
  C       -1.3683020    -0.3105490    -1.0112920
  C       -2.2166740     0.1783740     1.1559530
  C       -1.0996000    -0.8433070     1.3811970
  C       -3.6002280     0.9375310    -0.8724950
  C        0.9620280    -0.4146880    -0.0398380
  C        2.0893310    -1.1495780    -0.4236340
  C        3.3396130    -0.5322390    -0.4347340
  C        2.2533150     1.4653640     0.3147880
  C        3.4262710     0.8062240    -0.0568370
  H       -3.2284890    -1.0854330    -0.2500270
  H       -0.3333030    -2.0805640    -0.2540920
  H       -0.9618110     0.6780590    -1.2570810
  H       -1.4754410    -0.8694270    -1.9482280
  H       -3.0167220     0.1138590     1.9027270
  H       -1.8007770     1.1928100     1.1867420
  H       -0.3986327    -0.5352247     2.1341786
  H       -1.5277920    -1.8013410     1.6997400
  H       -3.8772320     0.6843320    -1.9011880
  H       -4.5228040     1.0497910    -0.2936460
  H       -3.0892320     1.9062640    -0.8879070
  H        1.9842510    -2.1936970    -0.7089060
  H        4.2276210    -1.0857940    -0.7310670
  H        2.2780980     2.5111560     0.6184940
  H        4.3773590     1.3311980    -0.0481150
units angstrom
no_reorient  #important for SAPT in psi4, default
symmetry c1  #important for SAPT in psi4, default
}

set PROPERTIES_ORIGIN ["COM"]
properties('MP2/aug-cc-pvtz', properties = ['dipole'])
--------------------------------------------------------------------------

    Molecular point group: c1
  Charge       = 0
  Multiplicity = 1
  Basis Set: AUG-CC-PVTZ
    Blend: AUG-CC-PVTZ
  Basis Set: (AUG-CC-PVTZ AUX)
    Blend: AUG-CC-PVTZ-JKFIT

    Orbital Energies [Eh]
    ---------------------

    Doubly Occupied:

       1A    -15.558054     2A    -11.275327     3A    -11.274389
       4A    -11.257974     5A    -11.235917     6A    -11.235133
       7A    -11.225939     8A    -11.214442     9A    -11.209569
      10A    -11.208975    11A    -11.205122    12A    -11.203517
      13A     -1.251911    14A     -1.127574    15A     -1.081889
      16A     -1.046450    17A     -0.991622    18A     -0.955000
      19A     -0.893968    20A     -0.855266    21A     -0.837103
      22A     -0.765284    23A     -0.755557    24A     -0.697063
      25A     -0.668098    26A     -0.641085    27A     -0.640073
      28A     -0.608742    29A     -0.585014    30A     -0.577438
      31A     -0.574050    32A     -0.552066    33A     -0.538298
      34A     -0.527119    35A     -0.512093    36A     -0.473778
      37A     -0.468954    38A     -0.461004    39A     -0.452788
      40A     -0.447017    41A     -0.439786    42A     -0.410015
      43A     -0.377051    44A     -0.332136

  @DF-RHF Final Energy:  -479.89671349791752

   => Energetics <=

    Nuclear Repulsion Energy =            685.9583036547138590
    One-Electron Energy =               -2010.4107364005690215
    Two-Electron Energy =                 844.5557192479377591
    Total Energy =                       -479.8967134979175171
  Basis Set: (AUG-CC-PVTZ AUX)
    Blend: AUG-CC-PVTZ-RI
    Molecular point group: c1

    Geometry (in Angstrom), charge = 0, multiplicity = 1:

       Center              X                  Y                   Z               Mass
    ------------   -----------------  -----------------  -----------------  -----------------
         N            0.973199463623     0.882433177772     0.321831030341    14.003074004430
         C           -2.763436536377    -0.124687822228    -0.269394969659    12.000000000000
         C           -0.486910536377    -1.015652822228    -0.012324969659    12.000000000000
         C           -1.438144536377    -0.311627822228    -1.015670969659    12.000000000000
         C           -2.286516536377     0.177295177772     1.151574030341    12.000000000000
         C           -1.169442536377    -0.844385822228     1.376818030341    12.000000000000
         C           -3.670070536377     0.936452177772    -0.876873969659    12.000000000000
         C            0.892185463623    -0.415766822228    -0.044216969659    12.000000000000
         C            2.019488463623    -1.150656822228    -0.428012969659    12.000000000000
         C            3.269770463623    -0.533317822228    -0.439112969659    12.000000000000
         C            2.183472463623     1.464285177772     0.310409030341    12.000000000000
         C            3.356428463623     0.805145177772    -0.061215969659    12.000000000000
         H           -3.298331536377    -1.086511822228    -0.254405969659     1.007825032230
         H           -0.403145536377    -2.081642822228    -0.258470969659     1.007825032230
         H           -1.031653536377     0.676980177772    -1.261459969659     1.007825032230
         H           -1.545283536377    -0.870505822228    -1.952606969659     1.007825032230
         H           -3.086564536377     0.112780177772     1.898348030341     1.007825032230
         H           -1.870619536377     1.191731177772     1.182363030341     1.007825032230
         H           -0.468475236377    -0.536303522228     2.129799630341     1.007825032230
         H           -1.597634536377    -1.802419822228     1.695361030341     1.007825032230
         H           -3.947074536377     0.683253177772    -1.905566969659     1.007825032230
         H           -4.592646536377     1.048712177772    -0.298024969659     1.007825032230
         H           -3.159074536377     1.905185177772    -0.892285969659     1.007825032230
         H            1.914408463623    -2.194775822228    -0.713284969659     1.007825032230
         H            4.157778463623    -1.086872822228    -0.735445969659     1.007825032230
         H            2.208255463623     2.510077177772     0.614115030341     1.007825032230
         H            4.307516463623     1.330119177772    -0.052493969659     1.007825032230

  Basis Set: AUG-CC-PVTZ
    Blend: AUG-CC-PVTZ
  Basis Set: (AUG-CC-PVTZ AUX)
    Blend: AUG-CC-PVTZ-JKFIT
	 Reference Energy          =    -479.8967134979175171 [Eh]
	 Singles Energy            =      -0.0000000000000000 [Eh]
	 Same-Spin Energy          =      -0.5327592638560092 [Eh]
	 Opposite-Spin Energy      =      -1.7453854966080042 [Eh]
	 Correlation Energy        =      -2.2781447604640137 [Eh]
	 Total Energy              =    -482.1748582583815050 [Eh]

	 ================> DF-SCS-MP2 Energies <==================
	-----------------------------------------------------------
	 SCS Same-Spin Scale       =       0.3333333333333333 [-]
	 SCS Opposite-Spin Scale   =       1.2000000000000000 [-]
	 SCS Same-Spin Energy      =      -0.1775864212853364 [Eh]
	 SCS Opposite-Spin Energy  =      -2.0944625959296048 [Eh]
	 SCS Correlation Energy    =      -2.2720490172149410 [Eh]
	 SCS Total Energy          =    -482.1687625151324710 [Eh]
	-----------------------------------------------------------

  Dipole Moment: [D]
     X:     1.3395      Y:    -1.0722      Z:    -0.4843     Total:     1.7829

*** Psi4 exiting successfully. Buy a developer a beer!
