                               Psi4 1.4a3.dev225

  ==> Input File <==

--------------------------------------------------------------------------
#psi4
#
memory 32 gb

molecule  {
0 1
  N        1.0430420     0.8835120     0.3262100
  C       -2.6935940    -0.1236090    -0.2650160
  C       -0.4170680    -1.0145740    -0.0079460
  C       -1.3683020    -0.3105490    -1.0112920
  C       -2.2166740     0.1783740     1.1559530
  C       -1.0996000    -0.8433070     1.3811970
  C       -3.6002280     0.9375310    -0.8724950
  C        0.9620280    -0.4146880    -0.0398380
  C        2.0893310    -1.1495780    -0.4236340
  C        3.2499504    -0.5765108    -0.4339380
  C        2.2533150     1.4653640     0.3147880
  C        3.4262710     0.8062240    -0.0568370
  H       -3.2284890    -1.0854330    -0.2500270
  H       -0.3333030    -2.0805640    -0.2540920
  H       -0.9618110     0.6780590    -1.2570810
  H       -1.4754410    -0.8694270    -1.9482280
  H       -3.0167220     0.1138590     1.9027270
  H       -1.8007770     1.1928100     1.1867420
  H       -0.3855780    -0.5294870     2.1482020
  H       -1.5277920    -1.8013410     1.6997400
  H       -3.8772320     0.6843320    -1.9011880
  H       -4.5228040     1.0497910    -0.2936460
  H       -3.0892320     1.9062640    -0.8879070
  H        1.9842510    -2.1936970    -0.7089060
  H        4.2276210    -1.0857940    -0.7310670
  H        2.2780980     2.5111560     0.6184940
  H        4.3773590     1.3311980    -0.0481150
units angstrom
no_reorient  #important for SAPT in psi4, default
symmetry c1  #important for SAPT in psi4, default
}

set PROPERTIES_ORIGIN ["COM"]
properties('MP2/aug-cc-pvtz', properties = ['dipole'])
--------------------------------------------------------------------------

    Molecular point group: c1
  Charge       = 0
  Multiplicity = 1
  Basis Set: AUG-CC-PVTZ
    Blend: AUG-CC-PVTZ
  Basis Set: (AUG-CC-PVTZ AUX)
    Blend: AUG-CC-PVTZ-JKFIT

    Orbital Energies [Eh]
    ---------------------

    Doubly Occupied:

       1A    -15.555956     2A    -11.279347     3A    -11.270254
       4A    -11.254589     5A    -11.237347     6A    -11.227784
       7A    -11.225445     8A    -11.215562     9A    -11.212730
      10A    -11.211101    11A    -11.205935    12A    -11.204570
      13A     -1.253463    14A     -1.128448    15A     -1.092424
      16A     -1.046073    17A     -0.992452    18A     -0.957094
      19A     -0.896783    20A     -0.844672    21A     -0.842095
      22A     -0.763442    23A     -0.756206    24A     -0.696342
      25A     -0.672073    26A     -0.642590    27A     -0.639345
      28A     -0.607398    29A     -0.585169    30A     -0.582085
      31A     -0.570348    32A     -0.550404    33A     -0.537521
      34A     -0.521458    35A     -0.512394    36A     -0.474816
      37A     -0.469903    38A     -0.461722    39A     -0.453983
      40A     -0.448198    41A     -0.440352    42A     -0.406956
      43A     -0.387172    44A     -0.329636

  @DF-RHF Final Energy:  -479.88328889984001

   => Energetics <=

    Nuclear Repulsion Energy =            687.2403391209121537
    One-Electron Energy =               -2012.9199825503455941
    Two-Electron Energy =                 845.7963545295933727
    Total Energy =                       -479.8832888998399540
  Basis Set: (AUG-CC-PVTZ AUX)
    Blend: AUG-CC-PVTZ-RI
    Molecular point group: c1

    Geometry (in Angstrom), charge = 0, multiplicity = 1:

       Center              X                  Y                   Z               Mass
    ------------   -----------------  -----------------  -----------------  -----------------
         N            0.979795735852     0.885694582541     0.321684027688    14.003074004430
         C           -2.756840264148    -0.121426417459    -0.269541972312    12.000000000000
         C           -0.480314264148    -1.012391417459    -0.012471972312    12.000000000000
         C           -1.431548264148    -0.308366417459    -1.015817972312    12.000000000000
         C           -2.279920264148     0.180556582541     1.151427027688    12.000000000000
         C           -1.162846264148    -0.841124417459     1.376671027688    12.000000000000
         C           -3.663474264148     0.939713582541    -0.877020972312    12.000000000000
         C            0.898781735852    -0.412505417459    -0.044363972312    12.000000000000
         C            2.026084735852    -1.147395417459    -0.428159972312    12.000000000000
         C            3.186704135852    -0.574328217459    -0.438463972312    12.000000000000
         C            2.190068735852     1.467546582541     0.310262027688    12.000000000000
         C            3.363024735852     0.808406582541    -0.061362972312    12.000000000000
         H           -3.291735264148    -1.083250417459    -0.254552972312     1.007825032230
         H           -0.396549264148    -2.078381417459    -0.258617972312     1.007825032230
         H           -1.025057264148     0.680241582541    -1.261606972312     1.007825032230
         H           -1.538687264148    -0.867244417459    -1.952753972312     1.007825032230
         H           -3.079968264148     0.116041582541     1.898201027688     1.007825032230
         H           -1.864023264148     1.194992582541     1.182216027688     1.007825032230
         H           -0.448824264148    -0.527304417459     2.143676027688     1.007825032230
         H           -1.591038264148    -1.799158417459     1.695214027688     1.007825032230
         H           -3.940478264148     0.686514582541    -1.905713972312     1.007825032230
         H           -4.586050264148     1.051973582541    -0.298171972312     1.007825032230
         H           -3.152478264148     1.908446582541    -0.892432972312     1.007825032230
         H            1.921004735852    -2.191514417459    -0.713431972312     1.007825032230
         H            4.164374735852    -1.083611417459    -0.735592972312     1.007825032230
         H            2.214851735852     2.513338582541     0.613968027688     1.007825032230
         H            4.314112735852     1.333380582541    -0.052640972312     1.007825032230

  Basis Set: AUG-CC-PVTZ
    Blend: AUG-CC-PVTZ
  Basis Set: (AUG-CC-PVTZ AUX)
    Blend: AUG-CC-PVTZ-JKFIT
	 Reference Energy          =    -479.8832888998400108 [Eh]
	 Singles Energy            =      -0.0000000000000000 [Eh]
	 Same-Spin Energy          =      -0.5326489756206660 [Eh]
	 Opposite-Spin Energy      =      -1.7455808041854475 [Eh]
	 Correlation Energy        =      -2.2782297798061135 [Eh]
	 Total Energy              =    -482.1615186796461217 [Eh]

	 ================> DF-SCS-MP2 Energies <==================
	-----------------------------------------------------------
	 SCS Same-Spin Scale       =       0.3333333333333333 [-]
	 SCS Opposite-Spin Scale   =       1.2000000000000000 [-]
	 SCS Same-Spin Energy      =      -0.1775496585402220 [Eh]
	 SCS Opposite-Spin Energy  =      -2.0946969650225369 [Eh]
	 SCS Correlation Energy    =      -2.2722466235627587 [Eh]
	 SCS Total Energy          =    -482.1555355234027616 [Eh]
	-----------------------------------------------------------

  Dipole Moment: [D]
     X:     1.2524      Y:    -1.0766      Z:    -0.4873     Total:     1.7219

*** Psi4 exiting successfully. Buy a developer a beer!
