                               Psi4 1.4a3.dev225

  ==> Input File <==

--------------------------------------------------------------------------
#psi4
#
memory 32 gb

molecule  {
0 1
  N        1.0430420     0.8835120     0.3262100
  C       -2.6935940    -0.1236090    -0.2650160
  C       -0.4170680    -1.0145740    -0.0079460
  C       -1.3813859    -0.4062742    -1.0602116
  C       -2.2166740     0.1783740     1.1559530
  C       -1.0996000    -0.8433070     1.3811970
  C       -3.6002280     0.9375310    -0.8724950
  C        0.9620280    -0.4146880    -0.0398380
  C        2.0893310    -1.1495780    -0.4236340
  C        3.3396130    -0.5322390    -0.4347340
  C        2.2533150     1.4653640     0.3147880
  C        3.4262710     0.8062240    -0.0568370
  H       -3.2284890    -1.0854330    -0.2500270
  H       -0.3333030    -2.0805640    -0.2540920
  H       -0.9618110     0.6780590    -1.2570810
  H       -1.4754410    -0.8694270    -1.9482280
  H       -3.0167220     0.1138590     1.9027270
  H       -1.8007770     1.1928100     1.1867420
  H       -0.3855780    -0.5294870     2.1482020
  H       -1.5277920    -1.8013410     1.6997400
  H       -3.8772320     0.6843320    -1.9011880
  H       -4.5228040     1.0497910    -0.2936460
  H       -3.0892320     1.9062640    -0.8879070
  H        1.9842510    -2.1936970    -0.7089060
  H        4.2276210    -1.0857940    -0.7310670
  H        2.2780980     2.5111560     0.6184940
  H        4.3773590     1.3311980    -0.0481150
units angstrom
no_reorient  #important for SAPT in psi4, default
symmetry c1  #important for SAPT in psi4, default
}

set PROPERTIES_ORIGIN ["COM"]
properties('MP2/aug-cc-pvtz', properties = ['dipole'])
--------------------------------------------------------------------------

    Molecular point group: c1
  Charge       = 0
  Multiplicity = 1
  Basis Set: AUG-CC-PVTZ
    Blend: AUG-CC-PVTZ
  Basis Set: (AUG-CC-PVTZ AUX)
    Blend: AUG-CC-PVTZ-JKFIT

    Orbital Energies [Eh]
    ---------------------

    Doubly Occupied:

       1A    -15.557982     2A    -11.275471     3A    -11.274069
       4A    -11.257765     5A    -11.235881     6A    -11.235167
       7A    -11.227124     8A    -11.216742     9A    -11.212369
      10A    -11.210715    11A    -11.205180    12A    -11.204581
      13A     -1.251522    14A     -1.124162    15A     -1.081709
      16A     -1.045510    17A     -0.990493    18A     -0.957818
      19A     -0.893496    20A     -0.854910    21A     -0.837363
      22A     -0.765950    23A     -0.754705    24A     -0.696675
      25A     -0.672300    26A     -0.643313    27A     -0.639446
      28A     -0.607999    29A     -0.582621    30A     -0.575344
      31A     -0.571921    32A     -0.553551    33A     -0.539298
      34A     -0.525047    35A     -0.509320    36A     -0.490474
      37A     -0.470374    38A     -0.460659    39A     -0.447211
      40A     -0.440809    41A     -0.428227    42A     -0.409753
      43A     -0.376538    44A     -0.332444

  @DF-RHF Final Energy:  -479.88294697784340

   => Energetics <=

    Nuclear Repulsion Energy =            684.8570865986951048
    One-Electron Energy =               -2008.1920522770540174
    Two-Electron Energy =                 843.4520187005155094
    Total Energy =                       -479.8829469778434031
  Basis Set: (AUG-CC-PVTZ AUX)
    Blend: AUG-CC-PVTZ-RI
    Molecular point group: c1

    Geometry (in Angstrom), charge = 0, multiplicity = 1:

       Center              X                  Y                   Z               Mass
    ------------   -----------------  -----------------  -----------------  -----------------
         N            0.974092273610     0.889526751592     0.325386768103    14.003074004430
         C           -2.762543726390    -0.117594248408    -0.265839231897    12.000000000000
         C           -0.486017726390    -1.008559248408    -0.008769231897    12.000000000000
         C           -1.450335626390    -0.400259448408    -1.061034831897    12.000000000000
         C           -2.285623726390     0.184388751592     1.155129768103    12.000000000000
         C           -1.168549726390    -0.837292248408     1.380373768103    12.000000000000
         C           -3.669177726390     0.943545751592    -0.873318231897    12.000000000000
         C            0.893078273610    -0.408673248408    -0.040661231897    12.000000000000
         C            2.020381273610    -1.143563248408    -0.424457231897    12.000000000000
         C            3.270663273610    -0.526224248408    -0.435557231897    12.000000000000
         C            2.184365273610     1.471378751592     0.313964768103    12.000000000000
         C            3.357321273610     0.812238751592    -0.057660231897    12.000000000000
         H           -3.297438726390    -1.079418248408    -0.250850231897     1.007825032230
         H           -0.402252726390    -2.074549248408    -0.254915231897     1.007825032230
         H           -1.030760726390     0.684073751592    -1.257904231897     1.007825032230
         H           -1.544390726390    -0.863412248408    -1.949051231897     1.007825032230
         H           -3.085671726390     0.119873751592     1.901903768103     1.007825032230
         H           -1.869726726390     1.198824751592     1.185918768103     1.007825032230
         H           -0.454527726390    -0.523472248408     2.147378768103     1.007825032230
         H           -1.596741726390    -1.795326248408     1.698916768103     1.007825032230
         H           -3.946181726390     0.690346751592    -1.902011231897     1.007825032230
         H           -4.591753726390     1.055805751592    -0.294469231897     1.007825032230
         H           -3.158181726390     1.912278751592    -0.888730231897     1.007825032230
         H            1.915301273610    -2.187682248408    -0.709729231897     1.007825032230
         H            4.158671273610    -1.079779248408    -0.731890231897     1.007825032230
         H            2.209148273610     2.517170751592     0.617670768103     1.007825032230
         H            4.308409273610     1.337212751592    -0.048938231897     1.007825032230

  Basis Set: AUG-CC-PVTZ
    Blend: AUG-CC-PVTZ
  Basis Set: (AUG-CC-PVTZ AUX)
    Blend: AUG-CC-PVTZ-JKFIT
	 Reference Energy          =    -479.8829469778434031 [Eh]
	 Singles Energy            =      -0.0000000000000000 [Eh]
	 Same-Spin Energy          =      -0.5329090355800489 [Eh]
	 Opposite-Spin Energy      =      -1.7462196991615615 [Eh]
	 Correlation Energy        =      -2.2791287347416103 [Eh]
	 Total Energy              =    -482.1620757125850218 [Eh]

	 ================> DF-SCS-MP2 Energies <==================
	-----------------------------------------------------------
	 SCS Same-Spin Scale       =       0.3333333333333333 [-]
	 SCS Opposite-Spin Scale   =       1.2000000000000000 [-]
	 SCS Same-Spin Energy      =      -0.1776363451933496 [Eh]
	 SCS Opposite-Spin Energy  =      -2.0954636389938739 [Eh]
	 SCS Correlation Energy    =      -2.2730999841872235 [Eh]
	 SCS Total Energy          =    -482.1560469620306435 [Eh]
	-----------------------------------------------------------

  Dipole Moment: [D]
     X:     1.3233      Y:    -1.1223      Z:    -0.4951     Total:     1.8044

*** Psi4 exiting successfully. Buy a developer a beer!
