                               Psi4 1.4a3.dev225

  ==> Input File <==

--------------------------------------------------------------------------
#psi4
#
memory 32 gb

molecule  {
0 1
  N        1.0430420     0.8835120     0.3262100
  C       -2.7022457    -0.2836010    -0.2575405
  C       -0.4170680    -1.0145740    -0.0079460
  C       -1.3683020    -0.3105490    -1.0112920
  C       -2.2166740     0.1783740     1.1559530
  C       -1.0996000    -0.8433070     1.3811970
  C       -3.6002280     0.9375310    -0.8724950
  C        0.9620280    -0.4146880    -0.0398380
  C        2.0893310    -1.1495780    -0.4236340
  C        3.3396130    -0.5322390    -0.4347340
  C        2.2533150     1.4653640     0.3147880
  C        3.4262710     0.8062240    -0.0568370
  H       -3.2284890    -1.0854330    -0.2500270
  H       -0.3333030    -2.0805640    -0.2540920
  H       -0.9618110     0.6780590    -1.2570810
  H       -1.4754410    -0.8694270    -1.9482280
  H       -3.0167220     0.1138590     1.9027270
  H       -1.8007770     1.1928100     1.1867420
  H       -0.3855780    -0.5294870     2.1482020
  H       -1.5277920    -1.8013410     1.6997400
  H       -3.8772320     0.6843320    -1.9011880
  H       -4.5228040     1.0497910    -0.2936460
  H       -3.0892320     1.9062640    -0.8879070
  H        1.9842510    -2.1936970    -0.7089060
  H        4.2276210    -1.0857940    -0.7310670
  H        2.2780980     2.5111560     0.6184940
  H        4.3773590     1.3311980    -0.0481150
units angstrom
no_reorient  #important for SAPT in psi4, default
symmetry c1  #important for SAPT in psi4, default
}

set PROPERTIES_ORIGIN ["COM"]
properties('MP2/aug-cc-pvtz', properties = ['dipole'])
--------------------------------------------------------------------------

    Molecular point group: c1
  Charge       = 0
  Multiplicity = 1
  Basis Set: AUG-CC-PVTZ
    Blend: AUG-CC-PVTZ
  Basis Set: (AUG-CC-PVTZ AUX)
    Blend: AUG-CC-PVTZ-JKFIT

    Orbital Energies [Eh]
    ---------------------

    Doubly Occupied:

       1A    -15.557895     2A    -11.274793     3A    -11.274252
       4A    -11.257753     5A    -11.235658     6A    -11.234742
       7A    -11.224570     8A    -11.211709     9A    -11.211097
      10A    -11.209583    11A    -11.206849    12A    -11.205583
      13A     -1.251715    14A     -1.125916    15A     -1.081607
      16A     -1.042808    17A     -0.980835    18A     -0.953800
      19A     -0.887966    20A     -0.855042    21A     -0.835024
      22A     -0.785573    23A     -0.760696    24A     -0.696269
      25A     -0.667617    26A     -0.644300    27A     -0.636444
      28A     -0.605694    29A     -0.583834    30A     -0.579142
      31A     -0.569997    32A     -0.543952    33A     -0.537024
      34A     -0.527494    35A     -0.515662    36A     -0.486946
      37A     -0.472946    38A     -0.467161    39A     -0.456037
      40A     -0.435122    41A     -0.418298    42A     -0.407120
      43A     -0.377012    44A     -0.331453

  @DF-RHF Final Energy:  -479.86670839391860

   => Energetics <=

    Nuclear Repulsion Energy =            685.0971037704631499
    One-Electron Energy =               -2008.6776425997454680
    Two-Electron Energy =                 843.7138304353638887
    Total Energy =                       -479.8667083939185432
  Basis Set: (AUG-CC-PVTZ AUX)
    Blend: AUG-CC-PVTZ-RI
    Molecular point group: c1

    Geometry (in Angstrom), charge = 0, multiplicity = 1:

       Center              X                  Y                   Z               Mass
    ------------   -----------------  -----------------  -----------------  -----------------
         N            0.973762170261     0.894313242707     0.321186548937    14.003074004430
         C           -2.771525529739    -0.272799757293    -0.262563951063    12.000000000000
         C           -0.486347829739    -1.003772757293    -0.012969451063    12.000000000000
         C           -1.437581829739    -0.299747757293    -1.016315451063    12.000000000000
         C           -2.285953829739     0.189175242707     1.150929548937    12.000000000000
         C           -1.168879829739    -0.832505757293     1.376173548937    12.000000000000
         C           -3.669507829739     0.948332242707    -0.877518451063    12.000000000000
         C            0.892748170261    -0.403886757293    -0.044861451063    12.000000000000
         C            2.020051170261    -1.138776757293    -0.428657451063    12.000000000000
         C            3.270333170261    -0.521437757293    -0.439757451063    12.000000000000
         C            2.184035170261     1.476165242707     0.309764548937    12.000000000000
         C            3.356991170261     0.817025242707    -0.061860451063    12.000000000000
         H           -3.297768829739    -1.074631757293    -0.255050451063     1.007825032230
         H           -0.402582829739    -2.069762757293    -0.259115451063     1.007825032230
         H           -1.031090829739     0.688860242707    -1.262104451063     1.007825032230
         H           -1.544720829739    -0.858625757293    -1.953251451063     1.007825032230
         H           -3.086001829739     0.124660242707     1.897703548937     1.007825032230
         H           -1.870056829739     1.203611242707     1.181718548937     1.007825032230
         H           -0.454857829739    -0.518685757293     2.143178548937     1.007825032230
         H           -1.597071829739    -1.790539757293     1.694716548937     1.007825032230
         H           -3.946511829739     0.695133242707    -1.906211451063     1.007825032230
         H           -4.592083829739     1.060592242707    -0.298669451063     1.007825032230
         H           -3.158511829739     1.917065242707    -0.892930451063     1.007825032230
         H            1.914971170261    -2.182895757293    -0.713929451063     1.007825032230
         H            4.158341170261    -1.074992757293    -0.736090451063     1.007825032230
         H            2.208818170261     2.521957242707     0.613470548937     1.007825032230
         H            4.308079170261     1.341999242707    -0.053138451063     1.007825032230

  Basis Set: AUG-CC-PVTZ
    Blend: AUG-CC-PVTZ
  Basis Set: (AUG-CC-PVTZ AUX)
    Blend: AUG-CC-PVTZ-JKFIT
	 Reference Energy          =    -479.8667083939186000 [Eh]
	 Singles Energy            =      -0.0000000000000000 [Eh]
	 Same-Spin Energy          =      -0.5327446971316754 [Eh]
	 Opposite-Spin Energy      =      -1.7464701087664602 [Eh]
	 Correlation Energy        =      -2.2792148058981354 [Eh]
	 Total Energy              =    -482.1459231998167070 [Eh]

	 ================> DF-SCS-MP2 Energies <==================
	-----------------------------------------------------------
	 SCS Same-Spin Scale       =       0.3333333333333333 [-]
	 SCS Opposite-Spin Scale   =       1.2000000000000000 [-]
	 SCS Same-Spin Energy      =      -0.1775815657105584 [Eh]
	 SCS Opposite-Spin Energy  =      -2.0957641305197523 [Eh]
	 SCS Correlation Energy    =      -2.2733456962303107 [Eh]
	 SCS Total Energy          =    -482.1400540901489080 [Eh]
	-----------------------------------------------------------

  Dipole Moment: [D]
     X:     1.3248      Y:    -1.1500      Z:    -0.4763     Total:     1.8178

*** Psi4 exiting successfully. Buy a developer a beer!
