                               Psi4 1.4a3.dev225

  ==> Input File <==

--------------------------------------------------------------------------
#psi4
#
memory 32 gb

molecule  {
0 1
  N        0.9030629     0.8789745     0.3459573
  C       -2.6935940    -0.1236090    -0.2650160
  C       -0.4170680    -1.0145740    -0.0079460
  C       -1.3683020    -0.3105490    -1.0112920
  C       -2.2166740     0.1783740     1.1559530
  C       -1.0996000    -0.8433070     1.3811970
  C       -3.6002280     0.9375310    -0.8724950
  C        0.9620280    -0.4146880    -0.0398380
  C        2.0893310    -1.1495780    -0.4236340
  C        3.3396130    -0.5322390    -0.4347340
  C        2.2533150     1.4653640     0.3147880
  C        3.4262710     0.8062240    -0.0568370
  H       -3.2284890    -1.0854330    -0.2500270
  H       -0.3333030    -2.0805640    -0.2540920
  H       -0.9618110     0.6780590    -1.2570810
  H       -1.4754410    -0.8694270    -1.9482280
  H       -3.0167220     0.1138590     1.9027270
  H       -1.8007770     1.1928100     1.1867420
  H       -0.3855780    -0.5294870     2.1482020
  H       -1.5277920    -1.8013410     1.6997400
  H       -3.8772320     0.6843320    -1.9011880
  H       -4.5228040     1.0497910    -0.2936460
  H       -3.0892320     1.9062640    -0.8879070
  H        1.9842510    -2.1936970    -0.7089060
  H        4.2276210    -1.0857940    -0.7310670
  H        2.2780980     2.5111560     0.6184940
  H        4.3773590     1.3311980    -0.0481150
units angstrom
no_reorient  #important for SAPT in psi4, default
symmetry c1  #important for SAPT in psi4, default
}

set PROPERTIES_ORIGIN ["COM"]
properties('MP2/aug-cc-pvtz', properties = ['dipole'])
--------------------------------------------------------------------------

    Molecular point group: c1
  Charge       = 0
  Multiplicity = 1
  Basis Set: AUG-CC-PVTZ
    Blend: AUG-CC-PVTZ
  Basis Set: (AUG-CC-PVTZ AUX)
    Blend: AUG-CC-PVTZ-JKFIT

    Orbital Energies [Eh]
    ---------------------

    Doubly Occupied:

       1A    -15.574006     2A    -11.287924     3A    -11.276142
       4A    -11.264067     5A    -11.241229     6A    -11.238212
       7A    -11.222111     8A    -11.212773     9A    -11.209140
      10A    -11.207364    11A    -11.203861    12A    -11.201443
      13A     -1.231458    14A     -1.123772    15A     -1.085946
      16A     -1.037971    17A     -0.989949    18A     -0.953038
      19A     -0.891945    20A     -0.863030    21A     -0.825196
      22A     -0.758423    23A     -0.753154    24A     -0.694533
      25A     -0.664922    26A     -0.642599    27A     -0.635322
      28A     -0.607175    29A     -0.582769    30A     -0.574967
      31A     -0.572595    32A     -0.549839    33A     -0.531771
      34A     -0.519932    35A     -0.504850    36A     -0.472764
      37A     -0.466028    38A     -0.459418    39A     -0.448431
      40A     -0.444769    41A     -0.439146    42A     -0.424648
      43A     -0.371437    44A     -0.335546

  @DF-RHF Final Energy:  -479.87206246172957

   => Energetics <=

    Nuclear Repulsion Energy =            684.9811304439016340
    One-Electron Energy =               -2008.5151552300685580
    Two-Electron Energy =                 843.6619623244372406
    Total Energy =                       -479.8720624617295698
  Basis Set: (AUG-CC-PVTZ AUX)
    Blend: AUG-CC-PVTZ-RI
    Molecular point group: c1

    Geometry (in Angstrom), charge = 0, multiplicity = 1:

       Center              X                  Y                   Z               Mass
    ------------   -----------------  -----------------  -----------------  -----------------
         N            0.845304371885     0.878254144688     0.339774362951    14.003074004430
         C           -2.751352528115    -0.124329355312    -0.271198937049    12.000000000000
         C           -0.474826528115    -1.015294355312    -0.014128937049    12.000000000000
         C           -1.426060528115    -0.311269355312    -1.017474937049    12.000000000000
         C           -2.274432528115     0.177653644688     1.149770062951    12.000000000000
         C           -1.157358528115    -0.844027355312     1.375014062951    12.000000000000
         C           -3.657986528115     0.936810644688    -0.878677937049    12.000000000000
         C            0.904269471885    -0.415408355312    -0.046020937049    12.000000000000
         C            2.031572471885    -1.150298355312    -0.429816937049    12.000000000000
         C            3.281854471885    -0.532959355312    -0.440916937049    12.000000000000
         C            2.195556471885     1.464643644688     0.308605062951    12.000000000000
         C            3.368512471885     0.805503644688    -0.063019937049    12.000000000000
         H           -3.286247528115    -1.086153355312    -0.256209937049     1.007825032230
         H           -0.391061528115    -2.081284355312    -0.260274937049     1.007825032230
         H           -1.019569528115     0.677338644688    -1.263263937049     1.007825032230
         H           -1.533199528115    -0.870147355312    -1.954410937049     1.007825032230
         H           -3.074480528115     0.113138644688     1.896544062951     1.007825032230
         H           -1.858535528115     1.192089644688     1.180559062951     1.007825032230
         H           -0.443336528115    -0.530207355312     2.142019062951     1.007825032230
         H           -1.585550528115    -1.802061355312     1.693557062951     1.007825032230
         H           -3.934990528115     0.683611644688    -1.907370937049     1.007825032230
         H           -4.580562528115     1.049070644688    -0.299828937049     1.007825032230
         H           -3.146990528115     1.905543644688    -0.894089937049     1.007825032230
         H            1.926492471885    -2.194417355312    -0.715088937049     1.007825032230
         H            4.169862471885    -1.086514355312    -0.737249937049     1.007825032230
         H            2.220339471885     2.510435644688     0.612311062951     1.007825032230
         H            4.319600471885     1.330477644688    -0.054297937049     1.007825032230

  Basis Set: AUG-CC-PVTZ
    Blend: AUG-CC-PVTZ
  Basis Set: (AUG-CC-PVTZ AUX)
    Blend: AUG-CC-PVTZ-JKFIT
	 Reference Energy          =    -479.8720624617295698 [Eh]
	 Singles Energy            =      -0.0000000000000000 [Eh]
	 Same-Spin Energy          =      -0.5346399903413299 [Eh]
	 Opposite-Spin Energy      =      -1.7516823859218273 [Eh]
	 Correlation Energy        =      -2.2863223762631573 [Eh]
	 Total Energy              =    -482.1583848379927417 [Eh]

	 ================> DF-SCS-MP2 Energies <==================
	-----------------------------------------------------------
	 SCS Same-Spin Scale       =       0.3333333333333333 [-]
	 SCS Opposite-Spin Scale   =       1.2000000000000000 [-]
	 SCS Same-Spin Energy      =      -0.1782133301137766 [Eh]
	 SCS Opposite-Spin Energy  =      -2.1020188631061929 [Eh]
	 SCS Correlation Energy    =      -2.2802321932199696 [Eh]
	 SCS Total Energy          =    -482.1522946549495146 [Eh]
	-----------------------------------------------------------

  Dipole Moment: [D]
     X:     1.6213      Y:    -1.0725      Z:    -0.5364     Total:     2.0165

*** Psi4 exiting successfully. Buy a developer a beer!
