                               Psi4 1.4a3.dev225

  ==> Input File <==

--------------------------------------------------------------------------
#psi4
#
memory 32 gb

molecule  {
0 1
  N        1.0430420     0.8835120     0.3262100
  C       -2.6935940    -0.1236090    -0.2650160
  C       -0.4170680    -1.0145740    -0.0079460
  C       -1.3683020    -0.3105490    -1.0112920
  C       -2.2166740     0.1783740     1.1559530
  C       -1.0996000    -0.8433070     1.3811970
  C       -3.6002280     0.9375310    -0.8724950
  C        0.9620280    -0.4146880    -0.0398380
  C        2.0893310    -1.1495780    -0.4236340
  C        3.3396130    -0.5322390    -0.4347340
  C        2.2533150     1.4653640     0.3147880
  C        3.4262710     0.8062240    -0.0568370
  H       -3.2284890    -1.0854330    -0.2500270
  H       -0.3333030    -2.0805640    -0.2540920
  H       -0.9618110     0.6780590    -1.2570810
  H       -1.4754410    -0.8694270    -1.9482280
  H       -3.0167220     0.1138590     1.9027270
  H       -1.8007770     1.1928100     1.1867420
  H       -0.3855780    -0.5294870     2.1482020
  H       -1.5277920    -1.8013410     1.6997400
  H       -3.8772320     0.6843320    -1.9011880
  H       -4.6070649     1.0600440    -0.2407784
  H       -3.0892320     1.9062640    -0.8879070
  H        1.9842510    -2.1936970    -0.7089060
  H        4.2276210    -1.0857940    -0.7310670
  H        2.2780980     2.5111560     0.6184940
  H        4.3773590     1.3311980    -0.0481150
units angstrom
no_reorient  #important for SAPT in psi4, default
symmetry c1  #important for SAPT in psi4, default
}

set PROPERTIES_ORIGIN ["COM"]
properties('MP2/aug-cc-pvtz', properties = ['dipole'])
--------------------------------------------------------------------------

    Molecular point group: c1
  Charge       = 0
  Multiplicity = 1
  Basis Set: AUG-CC-PVTZ
    Blend: AUG-CC-PVTZ
  Basis Set: (AUG-CC-PVTZ AUX)
    Blend: AUG-CC-PVTZ-JKFIT

    Orbital Energies [Eh]
    ---------------------

    Doubly Occupied:

       1A    -15.558377     2A    -11.275723     3A    -11.274674
       4A    -11.258258     5A    -11.236207     6A    -11.235469
       7A    -11.226792     8A    -11.217526     9A    -11.215691
      10A    -11.211697    11A    -11.210774    12A    -11.203956
      13A     -1.252238    14A     -1.128003    15A     -1.082185
      16A     -1.046419    17A     -0.989459    18A     -0.955283
      19A     -0.889286    20A     -0.855436    21A     -0.836671
      22A     -0.764555    23A     -0.755529    24A     -0.696926
      25A     -0.668528    26A     -0.641125    27A     -0.639588
      28A     -0.607665    29A     -0.584953    30A     -0.576907
      31A     -0.574448    32A     -0.541413    33A     -0.538339
      34A     -0.527694    35A     -0.510189    36A     -0.473628
      37A     -0.469363    38A     -0.460960    39A     -0.453149
      40A     -0.446553    41A     -0.437775    42A     -0.410206
      43A     -0.377320    44A     -0.332480

  @DF-RHF Final Energy:  -479.89022777164325

   => Energetics <=

    Nuclear Repulsion Energy =            685.4278759146972106
    One-Electron Energy =               -2009.3373790983025629
    Two-Electron Energy =                 844.0192754119622123
    Total Energy =                       -479.8902277716432536
  Basis Set: (AUG-CC-PVTZ AUX)
    Blend: AUG-CC-PVTZ-RI
    Molecular point group: c1

    Geometry (in Angstrom), charge = 0, multiplicity = 1:

       Center              X                  Y                   Z               Mass
    ------------   -----------------  -----------------  -----------------  -----------------
         N            0.973644865749     0.882333154294     0.321412620236    14.003074004430
         C           -2.762991134251    -0.124787845706    -0.269813379764    12.000000000000
         C           -0.486465134251    -1.015752845706    -0.012743379764    12.000000000000
         C           -1.437699134251    -0.311727845706    -1.016089379764    12.000000000000
         C           -2.286071134251     0.177195154294     1.151155620236    12.000000000000
         C           -1.168997134251    -0.844485845706     1.376399620236    12.000000000000
         C           -3.669625134251     0.936352154294    -0.877292379764    12.000000000000
         C            0.892630865749    -0.415866845706    -0.044635379764    12.000000000000
         C            2.019933865749    -1.150756845706    -0.428431379764    12.000000000000
         C            3.270215865749    -0.533417845706    -0.439531379764    12.000000000000
         C            2.183917865749     1.464185154294     0.309990620236    12.000000000000
         C            3.356873865749     0.805045154294    -0.061634379764    12.000000000000
         H           -3.297886134251    -1.086611845706    -0.254824379764     1.007825032230
         H           -0.402700134251    -2.081742845706    -0.258889379764     1.007825032230
         H           -1.031208134251     0.676880154294    -1.261878379764     1.007825032230
         H           -1.544838134251    -0.870605845706    -1.953025379764     1.007825032230
         H           -3.086119134251     0.112680154294     1.897929620236     1.007825032230
         H           -1.870174134251     1.191631154294     1.181944620236     1.007825032230
         H           -0.454975134251    -0.530665845706     2.143404620236     1.007825032230
         H           -1.597189134251    -1.802519845706     1.694942620236     1.007825032230
         H           -3.946629134251     0.683153154294    -1.905985379764     1.007825032230
         H           -4.676462034251     1.058865154294    -0.245575779764     1.007825032230
         H           -3.158629134251     1.905085154294    -0.892704379764     1.007825032230
         H            1.914853865749    -2.194875845706    -0.713703379764     1.007825032230
         H            4.158223865749    -1.086972845706    -0.735864379764     1.007825032230
         H            2.208700865749     2.509977154294     0.613696620236     1.007825032230
         H            4.307961865749     1.330019154294    -0.052912379764     1.007825032230

  Basis Set: AUG-CC-PVTZ
    Blend: AUG-CC-PVTZ
  Basis Set: (AUG-CC-PVTZ AUX)
    Blend: AUG-CC-PVTZ-JKFIT
	 Reference Energy          =    -479.8902277716432536 [Eh]
	 Singles Energy            =      -0.0000000000000000 [Eh]
	 Same-Spin Energy          =      -0.5327515518418882 [Eh]
	 Opposite-Spin Energy      =      -1.7462459401738792 [Eh]
	 Correlation Energy        =      -2.2789974920157672 [Eh]
	 Total Energy              =    -482.1692252636590297 [Eh]

	 ================> DF-SCS-MP2 Energies <==================
	-----------------------------------------------------------
	 SCS Same-Spin Scale       =       0.3333333333333333 [-]
	 SCS Opposite-Spin Scale   =       1.2000000000000000 [-]
	 SCS Same-Spin Energy      =      -0.1775838506139627 [Eh]
	 SCS Opposite-Spin Energy  =      -2.0954951282086549 [Eh]
	 SCS Correlation Energy    =      -2.2730789788226176 [Eh]
	 SCS Total Energy          =    -482.1633067504658925 [Eh]
	-----------------------------------------------------------

  Dipole Moment: [D]
     X:     1.4237      Y:    -1.0947      Z:    -0.5175     Total:     1.8690

*** Psi4 exiting successfully. Buy a developer a beer!
