                               Psi4 1.4a3.dev225

  ==> Input File <==

--------------------------------------------------------------------------
#psi4
#
memory 32 gb

molecule  {
0 1
  N        1.0430420     0.8835120     0.3262100
  C       -2.6935940    -0.1236090    -0.2650160
  C       -0.4170680    -1.0145740    -0.0079460
  C       -1.3683020    -0.3105490    -1.0112920
  C       -2.2166740     0.1783740     1.1559530
  C       -0.9536247    -0.9768167     1.4106311
  C       -3.6002280     0.9375310    -0.8724950
  C        0.9620280    -0.4146880    -0.0398380
  C        2.0893310    -1.1495780    -0.4236340
  C        3.3396130    -0.5322390    -0.4347340
  C        2.2533150     1.4653640     0.3147880
  C        3.4262710     0.8062240    -0.0568370
  H       -3.2284890    -1.0854330    -0.2500270
  H       -0.3333030    -2.0805640    -0.2540920
  H       -0.9618110     0.6780590    -1.2570810
  H       -1.4754410    -0.8694270    -1.9482280
  H       -3.0167220     0.1138590     1.9027270
  H       -1.8007770     1.1928100     1.1867420
  H       -0.3855780    -0.5294870     2.1482020
  H       -1.5277920    -1.8013410     1.6997400
  H       -3.8772320     0.6843320    -1.9011880
  H       -4.5228040     1.0497910    -0.2936460
  H       -3.0892320     1.9062640    -0.8879070
  H        1.9842510    -2.1936970    -0.7089060
  H        4.2276210    -1.0857940    -0.7310670
  H        2.2780980     2.5111560     0.6184940
  H        4.3773590     1.3311980    -0.0481150
units angstrom
no_reorient  #important for SAPT in psi4, default
symmetry c1  #important for SAPT in psi4, default
}

set PROPERTIES_ORIGIN ["COM"]
properties('MP2/aug-cc-pvtz', properties = ['dipole'])
--------------------------------------------------------------------------

    Molecular point group: c1
  Charge       = 0
  Multiplicity = 1
  Basis Set: AUG-CC-PVTZ
    Blend: AUG-CC-PVTZ
  Basis Set: (AUG-CC-PVTZ AUX)
    Blend: AUG-CC-PVTZ-JKFIT

    Orbital Energies [Eh]
    ---------------------

    Doubly Occupied:

       1A    -15.557931     2A    -11.275454     3A    -11.274389
       4A    -11.257800     5A    -11.235739     6A    -11.234707
       7A    -11.226864     8A    -11.214607     9A    -11.210984
      10A    -11.210850    11A    -11.210520    12A    -11.205692
      13A     -1.252123    14A     -1.119913    15A     -1.081634
      16A     -1.046944    17A     -0.991780    18A     -0.941031
      19A     -0.898204    20A     -0.855270    21A     -0.840975
      22A     -0.771776    23A     -0.752064    24A     -0.698953
      25A     -0.667418    26A     -0.643069    27A     -0.636551
      28A     -0.607859    29A     -0.587327    30A     -0.578335
      31A     -0.570674    32A     -0.553858    33A     -0.538064
      34A     -0.529033    35A     -0.518110    36A     -0.491556
      37A     -0.475254    38A     -0.462567    39A     -0.447893
      40A     -0.444884    41A     -0.413489    42A     -0.392938
      43A     -0.377148    44A     -0.332755

  @DF-RHF Final Energy:  -479.86849090109536

   => Energetics <=

    Nuclear Repulsion Energy =            684.4223212819520086
    One-Electron Energy =               -2007.3116503437604479
    Two-Electron Energy =                 843.0208381607130832
    Total Energy =                       -479.8684909010953561
  Basis Set: (AUG-CC-PVTZ AUX)
    Blend: AUG-CC-PVTZ-RI
    Molecular point group: c1

    Geometry (in Angstrom), charge = 0, multiplicity = 1:

       Center              X                  Y                   Z               Mass
    ------------   -----------------  -----------------  -----------------  -----------------
         N            0.962245792260     0.892340882271     0.319551106628    14.003074004430
         C           -2.774390207740    -0.114780117729    -0.271674893372    12.000000000000
         C           -0.497864207740    -1.005745117729    -0.014604893372    12.000000000000
         C           -1.449098207740    -0.301720117729    -1.017950893372    12.000000000000
         C           -2.297470207740     0.187202882271     1.149294106628    12.000000000000
         C           -1.034420907740    -0.967987817729     1.403972206628    12.000000000000
         C           -3.681024207740     0.946359882271    -0.879153893372    12.000000000000
         C            0.881231792260    -0.405859117729    -0.046496893372    12.000000000000
         C            2.008534792260    -1.140749117729    -0.430292893372    12.000000000000
         C            3.258816792260    -0.523410117729    -0.441392893372    12.000000000000
         C            2.172518792260     1.474192882271     0.308129106628    12.000000000000
         C            3.345474792260     0.815052882271    -0.063495893372    12.000000000000
         H           -3.309285207740    -1.076604117729    -0.256685893372     1.007825032230
         H           -0.414099207740    -2.071735117729    -0.260750893372     1.007825032230
         H           -1.042607207740     0.686887882271    -1.263739893372     1.007825032230
         H           -1.556237207740    -0.860598117729    -1.954886893372     1.007825032230
         H           -3.097518207740     0.122687882271     1.896068106628     1.007825032230
         H           -1.881573207740     1.201638882271     1.180083106628     1.007825032230
         H           -0.466374207740    -0.520658117729     2.141543106628     1.007825032230
         H           -1.608588207740    -1.792512117729     1.693081106628     1.007825032230
         H           -3.958028207740     0.693160882271    -1.907846893372     1.007825032230
         H           -4.603600207740     1.058619882271    -0.300304893372     1.007825032230
         H           -3.170028207740     1.915092882271    -0.894565893372     1.007825032230
         H            1.903454792260    -2.184868117729    -0.715564893372     1.007825032230
         H            4.146824792260    -1.076965117729    -0.737725893372     1.007825032230
         H            2.197301792260     2.519984882271     0.611835106628     1.007825032230
         H            4.296562792260     1.340026882271    -0.054773893372     1.007825032230

  Basis Set: AUG-CC-PVTZ
    Blend: AUG-CC-PVTZ
  Basis Set: (AUG-CC-PVTZ AUX)
    Blend: AUG-CC-PVTZ-JKFIT
	 Reference Energy          =    -479.8684909010953561 [Eh]
	 Singles Energy            =      -0.0000000000000000 [Eh]
	 Same-Spin Energy          =      -0.5332958265108101 [Eh]
	 Opposite-Spin Energy      =      -1.7477441962207600 [Eh]
	 Correlation Energy        =      -2.2810400227315704 [Eh]
	 Total Energy              =    -482.1495309238269442 [Eh]

	 ================> DF-SCS-MP2 Energies <==================
	-----------------------------------------------------------
	 SCS Same-Spin Scale       =       0.3333333333333333 [-]
	 SCS Opposite-Spin Scale   =       1.2000000000000000 [-]
	 SCS Same-Spin Energy      =      -0.1777652755036034 [Eh]
	 SCS Opposite-Spin Energy  =      -2.0972930354649120 [Eh]
	 SCS Correlation Energy    =      -2.2750583109685154 [Eh]
	 SCS Total Energy          =    -482.1435492120638742 [Eh]
	-----------------------------------------------------------

  Dipole Moment: [D]
     X:     1.3018      Y:    -1.0641      Z:    -0.5279     Total:     1.7623

*** Psi4 exiting successfully. Buy a developer a beer!
