                               Psi4 1.4a3.dev225

  ==> Input File <==

--------------------------------------------------------------------------
#psi4
#
memory 32 gb

molecule  {
0 1
  N        1.0430420     0.8835120     0.3262100
  C       -2.6935940    -0.1236090    -0.2650160
  C       -0.4170680    -1.0145740    -0.0079460
  C       -1.3959422    -0.3198516    -1.0561305
  C       -2.2166740     0.1783740     1.1559530
  C       -1.0996000    -0.8433070     1.3811970
  C       -3.6002280     0.9375310    -0.8724950
  C        0.9620280    -0.4146880    -0.0398380
  C        2.0893310    -1.1495780    -0.4236340
  C        3.3396130    -0.5322390    -0.4347340
  C        2.2533150     1.4653640     0.3147880
  C        3.4262710     0.8062240    -0.0568370
  H       -3.2284890    -1.0854330    -0.2500270
  H       -0.3333030    -2.0805640    -0.2540920
  H       -0.9618110     0.6780590    -1.2570810
  H       -1.4754410    -0.8694270    -1.9482280
  H       -3.0167220     0.1138590     1.9027270
  H       -1.8007770     1.1928100     1.1867420
  H       -0.3855780    -0.5294870     2.1482020
  H       -1.5277920    -1.8013410     1.6997400
  H       -3.8772320     0.6843320    -1.9011880
  H       -4.5228040     1.0497910    -0.2936460
  H       -3.0892320     1.9062640    -0.8879070
  H        1.9842510    -2.1936970    -0.7089060
  H        4.2276210    -1.0857940    -0.7310670
  H        2.2780980     2.5111560     0.6184940
  H        4.3773590     1.3311980    -0.0481150
units angstrom
no_reorient  #important for SAPT in psi4, default
symmetry c1  #important for SAPT in psi4, default
}

set PROPERTIES_ORIGIN ["COM"]
properties('MP2/aug-cc-pvtz', properties = ['dipole'])
--------------------------------------------------------------------------

    Molecular point group: c1
  Charge       = 0
  Multiplicity = 1
  Basis Set: AUG-CC-PVTZ
    Blend: AUG-CC-PVTZ
  Basis Set: (AUG-CC-PVTZ AUX)
    Blend: AUG-CC-PVTZ-JKFIT

    Orbital Energies [Eh]
    ---------------------

    Doubly Occupied:

       1A    -15.557683     2A    -11.275072     3A    -11.274079
       4A    -11.257700     5A    -11.235609     6A    -11.234811
       7A    -11.227386     8A    -11.215058     9A    -11.211530
      10A    -11.209219    11A    -11.204639    12A    -11.204325
      13A     -1.251351    14A     -1.123896    15A     -1.081580
      16A     -1.045855    17A     -0.990910    18A     -0.953692
      19A     -0.894032    20A     -0.854832    21A     -0.836648
      22A     -0.764640    23A     -0.756408    24A     -0.695813
      25A     -0.669081    26A     -0.642097    27A     -0.639136
      28A     -0.606550    29A     -0.584039    30A     -0.576977
      31A     -0.573732    32A     -0.553034    33A     -0.538070
      34A     -0.527826    35A     -0.511332    36A     -0.478058
      37A     -0.469433    38A     -0.457282    39A     -0.450356
      40A     -0.444851    41A     -0.441271    42A     -0.409264
      43A     -0.376787    44A     -0.331196

  @DF-RHF Final Energy:  -479.89407599674928

   => Energetics <=

    Nuclear Repulsion Energy =            685.0059892980765426
    One-Electron Energy =               -2008.5258473056010189
    Two-Electron Energy =                 843.6257820107750831
    Total Energy =                       -479.8940759967492795
  Basis Set: (AUG-CC-PVTZ AUX)
    Blend: AUG-CC-PVTZ-RI
    Molecular point group: c1

    Geometry (in Angstrom), charge = 0, multiplicity = 1:

       Center              X                  Y                   Z               Mass
    ------------   -----------------  -----------------  -----------------  -----------------
         N            0.975176404151     0.883090131018     0.325082814135    14.003074004430
         C           -2.761459595849    -0.124030868982    -0.266143185865    12.000000000000
         C           -0.484933595849    -1.014995868982    -0.009073185865    12.000000000000
         C           -1.463807795849    -0.320273468982    -1.057257685865    12.000000000000
         C           -2.284539595849     0.177952131018     1.154825814135    12.000000000000
         C           -1.167465595849    -0.843728868982     1.380069814135    12.000000000000
         C           -3.668093595849     0.937109131018    -0.873622185865    12.000000000000
         C            0.894162404151    -0.415109868982    -0.040965185865    12.000000000000
         C            2.021465404151    -1.149999868982    -0.424761185865    12.000000000000
         C            3.271747404151    -0.532660868982    -0.435861185865    12.000000000000
         C            2.185449404151     1.464942131018     0.313660814135    12.000000000000
         C            3.358405404151     0.805802131018    -0.057964185865    12.000000000000
         H           -3.296354595849    -1.085854868982    -0.251154185865     1.007825032230
         H           -0.401168595849    -2.080985868982    -0.255219185865     1.007825032230
         H           -1.029676595849     0.677637131018    -1.258208185865     1.007825032230
         H           -1.543306595849    -0.869848868982    -1.949355185865     1.007825032230
         H           -3.084587595849     0.113437131018     1.901599814135     1.007825032230
         H           -1.868642595849     1.192388131018     1.185614814135     1.007825032230
         H           -0.453443595849    -0.529908868982     2.147074814135     1.007825032230
         H           -1.595657595849    -1.801762868982     1.698612814135     1.007825032230
         H           -3.945097595849     0.683910131018    -1.902315185865     1.007825032230
         H           -4.590669595849     1.049369131018    -0.294773185865     1.007825032230
         H           -3.157097595849     1.905842131018    -0.889034185865     1.007825032230
         H            1.916385404151    -2.194118868982    -0.710033185865     1.007825032230
         H            4.159755404151    -1.086215868982    -0.732194185865     1.007825032230
         H            2.210232404151     2.510734131018     0.617366814135     1.007825032230
         H            4.309493404151     1.330776131018    -0.049242185865     1.007825032230

  Basis Set: AUG-CC-PVTZ
    Blend: AUG-CC-PVTZ
  Basis Set: (AUG-CC-PVTZ AUX)
    Blend: AUG-CC-PVTZ-JKFIT
	 Reference Energy          =    -479.8940759967492795 [Eh]
	 Singles Energy            =      -0.0000000000000000 [Eh]
	 Same-Spin Energy          =      -0.5326064999489000 [Eh]
	 Opposite-Spin Energy      =      -1.7455303687266239 [Eh]
	 Correlation Energy        =      -2.2781368686755239 [Eh]
	 Total Energy              =    -482.1722128654247967 [Eh]

	 ================> DF-SCS-MP2 Energies <==================
	-----------------------------------------------------------
	 SCS Same-Spin Scale       =       0.3333333333333333 [-]
	 SCS Opposite-Spin Scale   =       1.2000000000000000 [-]
	 SCS Same-Spin Energy      =      -0.1775354999829666 [Eh]
	 SCS Opposite-Spin Energy  =      -2.0946364424719488 [Eh]
	 SCS Correlation Energy    =      -2.2721719424549156 [Eh]
	 SCS Total Energy          =    -482.1662479392041973 [Eh]
	-----------------------------------------------------------

  Dipole Moment: [D]
     X:     1.3160      Y:    -1.0958      Z:    -0.5084     Total:     1.7864

*** Psi4 exiting successfully. Buy a developer a beer!
