                               Psi4 1.4a3.dev225

  ==> Input File <==

--------------------------------------------------------------------------
#psi4
#
memory 32 gb

molecule  {
0 1
  N        1.0430420     0.8835120     0.3262100
  C       -2.6935940    -0.1236090    -0.2650160
  C       -0.4170680    -1.0145740    -0.0079460
  C       -1.3683020    -0.3105490    -1.0112920
  C       -2.2166740     0.1783740     1.1559530
  C       -1.0996000    -0.8433070     1.3811970
  C       -3.6002280     0.9375310    -0.8724950
  C        0.9620280    -0.4146880    -0.0398380
  C        2.0893310    -1.1495780    -0.4236340
  C        3.3396130    -0.5322390    -0.4347340
  C        2.2533150     1.4653640     0.3147880
  C        3.4262710     0.8062240    -0.0568370
  H       -3.2284890    -1.0854330    -0.2500270
  H       -0.3333030    -2.0805640    -0.2540920
  H       -0.9618110     0.6780590    -1.2570810
  H       -1.4754410    -0.8694270    -1.9482280
  H       -3.0167220     0.1138590     1.9027270
  H       -1.8007770     1.1928100     1.1867420
  H       -0.3855780    -0.5294870     2.1482020
  H       -1.5277920    -1.8013410     1.6997400
  H       -3.8772320     0.6843320    -1.9011880
  H       -4.5228040     1.0497910    -0.2936460
  H       -3.0425807     1.9947043    -0.8893140
  H        1.9842510    -2.1936970    -0.7089060
  H        4.2276210    -1.0857940    -0.7310670
  H        2.2780980     2.5111560     0.6184940
  H        4.3773590     1.3311980    -0.0481150
units angstrom
no_reorient  #important for SAPT in psi4, default
symmetry c1  #important for SAPT in psi4, default
}

set PROPERTIES_ORIGIN ["COM"]
properties('MP2/aug-cc-pvtz', properties = ['dipole'])
--------------------------------------------------------------------------

    Molecular point group: c1
  Charge       = 0
  Multiplicity = 1
  Basis Set: AUG-CC-PVTZ
    Blend: AUG-CC-PVTZ
  Basis Set: (AUG-CC-PVTZ AUX)
    Blend: AUG-CC-PVTZ-JKFIT

    Orbital Energies [Eh]
    ---------------------

    Doubly Occupied:

       1A    -15.558004     2A    -11.275360     3A    -11.274338
       4A    -11.257948     5A    -11.235886     6A    -11.235137
       7A    -11.226273     8A    -11.217486     9A    -11.215868
      10A    -11.211559    11A    -11.209870    12A    -11.203905
      13A     -1.251873    14A     -1.127638    15A     -1.081860
      16A     -1.046131    17A     -0.989261    18A     -0.954951
      19A     -0.889888    20A     -0.855098    21A     -0.836345
      22A     -0.764425    23A     -0.753790    24A     -0.696757
      25A     -0.668086    26A     -0.640544    27A     -0.639546
      28A     -0.608072    29A     -0.582616    30A     -0.577912
      31A     -0.574222    32A     -0.552868    33A     -0.537104
      34A     -0.525491    35A     -0.499722    36A     -0.473353
      37A     -0.469124    38A     -0.462087    39A     -0.452795
      40A     -0.445333    41A     -0.440201    42A     -0.410049
      43A     -0.376987    44A     -0.332155

  @DF-RHF Final Energy:  -479.89024863169521

   => Energetics <=

    Nuclear Repulsion Energy =            685.4954238570211373
    One-Electron Energy =               -2009.4955139622986735
    Two-Electron Energy =                 844.1098414735824917
    Total Energy =                       -479.8902486316951581
  Basis Set: (AUG-CC-PVTZ AUX)
    Blend: AUG-CC-PVTZ-RI
    Molecular point group: c1

    Geometry (in Angstrom), charge = 0, multiplicity = 1:

       Center              X                  Y                   Z               Mass
    ------------   -----------------  -----------------  -----------------  -----------------
         N            0.972825996433     0.881844084667     0.321752113458    14.003074004430
         C           -2.763810003567    -0.125276915333    -0.269473886542    12.000000000000
         C           -0.487284003567    -1.016241915333    -0.012403886542    12.000000000000
         C           -1.438518003567    -0.312216915333    -1.015749886542    12.000000000000
         C           -2.286890003567     0.176706084667     1.151495113458    12.000000000000
         C           -1.169816003567    -0.844974915333     1.376739113458    12.000000000000
         C           -3.670444003567     0.935863084667    -0.876952886542    12.000000000000
         C            0.891811996433    -0.416355915333    -0.044295886542    12.000000000000
         C            2.019114996433    -1.151245915333    -0.428091886542    12.000000000000
         C            3.269396996433    -0.533906915333    -0.439191886542    12.000000000000
         C            2.183098996433     1.463696084667     0.310330113458    12.000000000000
         C            3.356054996433     0.804556084667    -0.061294886542    12.000000000000
         H           -3.298705003567    -1.087100915333    -0.254484886542     1.007825032230
         H           -0.403519003567    -2.082231915333    -0.258549886542     1.007825032230
         H           -1.032027003567     0.676391084667    -1.261538886542     1.007825032230
         H           -1.545657003567    -0.871094915333    -1.952685886542     1.007825032230
         H           -3.086938003567     0.112191084667     1.898269113458     1.007825032230
         H           -1.870993003567     1.191142084667     1.182284113458     1.007825032230
         H           -0.455794003567    -0.531154915333     2.143744113458     1.007825032230
         H           -1.598008003567    -1.803008915333     1.695282113458     1.007825032230
         H           -3.947448003567     0.682664084667    -1.905645886542     1.007825032230
         H           -4.593020003567     1.048123084667    -0.298103886542     1.007825032230
         H           -3.112796703567     1.993036384667    -0.893771886542     1.007825032230
         H            1.914034996433    -2.195364915333    -0.713363886542     1.007825032230
         H            4.157404996433    -1.087461915333    -0.735524886542     1.007825032230
         H            2.207881996433     2.509488084667     0.614036113458     1.007825032230
         H            4.307142996433     1.329530084667    -0.052572886542     1.007825032230

  Basis Set: AUG-CC-PVTZ
    Blend: AUG-CC-PVTZ
  Basis Set: (AUG-CC-PVTZ AUX)
    Blend: AUG-CC-PVTZ-JKFIT
	 Reference Energy          =    -479.8902486316952150 [Eh]
	 Singles Energy            =      -0.0000000000000000 [Eh]
	 Same-Spin Energy          =      -0.5327945807097056 [Eh]
	 Opposite-Spin Energy      =      -1.7462453536626250 [Eh]
	 Correlation Energy        =      -2.2790399343723307 [Eh]
	 Total Energy              =    -482.1692885660675643 [Eh]

	 ================> DF-SCS-MP2 Energies <==================
	-----------------------------------------------------------
	 SCS Same-Spin Scale       =       0.3333333333333333 [-]
	 SCS Opposite-Spin Scale   =       1.2000000000000000 [-]
	 SCS Same-Spin Energy      =      -0.1775981935699019 [Eh]
	 SCS Opposite-Spin Energy  =      -2.0954944243951501 [Eh]
	 SCS Correlation Energy    =      -2.2730926179650521 [Eh]
	 SCS Total Energy          =    -482.1633412496602773 [Eh]
	-----------------------------------------------------------

  Dipole Moment: [D]
     X:     1.3169      Y:    -1.1363      Z:    -0.4853     Total:     1.8059

*** Psi4 exiting successfully. Buy a developer a beer!
