                               Psi4 1.4a3.dev225

  ==> Input File <==

--------------------------------------------------------------------------
#psi4
#
memory 32 gb

molecule  {
0 1
  N        1.0430420     0.8835120     0.3262100
  C       -2.6935940    -0.1236090    -0.2650160
  C       -0.4170680    -1.0145740    -0.0079460
  C       -1.3683020    -0.3105490    -1.0112920
  C       -2.2166740     0.1783740     1.1559530
  C       -1.0996000    -0.8433070     1.3811970
  C       -3.5883157     0.9235886    -0.8645133
  C        0.9620280    -0.4146880    -0.0398380
  C        2.0893310    -1.1495780    -0.4236340
  C        3.3396130    -0.5322390    -0.4347340
  C        2.2533150     1.4653640     0.3147880
  C        3.4262710     0.8062240    -0.0568370
  H       -3.2284890    -1.0854330    -0.2500270
  H       -0.3333030    -2.0805640    -0.2540920
  H       -0.9618110     0.6780590    -1.2570810
  H       -1.4754410    -0.8694270    -1.9482280
  H       -3.0167220     0.1138590     1.9027270
  H       -1.8007770     1.1928100     1.1867420
  H       -0.3855780    -0.5294870     2.1482020
  H       -1.5277920    -1.8013410     1.6997400
  H       -3.8772320     0.6843320    -1.9011880
  H       -4.5228040     1.0497910    -0.2936460
  H       -3.0892320     1.9062640    -0.8879070
  H        1.9842510    -2.1936970    -0.7089060
  H        4.2276210    -1.0857940    -0.7310670
  H        2.2780980     2.5111560     0.6184940
  H        4.3773590     1.3311980    -0.0481150
units angstrom
no_reorient  #important for SAPT in psi4, default
symmetry c1  #important for SAPT in psi4, default
}

set PROPERTIES_ORIGIN ["COM"]
properties('MP2/aug-cc-pvtz', properties = ['dipole'])
--------------------------------------------------------------------------

    Molecular point group: c1
  Charge       = 0
  Multiplicity = 1
  Basis Set: AUG-CC-PVTZ
    Blend: AUG-CC-PVTZ
  Basis Set: (AUG-CC-PVTZ AUX)
    Blend: AUG-CC-PVTZ-JKFIT

    Orbital Energies [Eh]
    ---------------------

    Doubly Occupied:

       1A    -15.558038     2A    -11.275359     3A    -11.274378
       4A    -11.257967     5A    -11.235907     6A    -11.235137
       7A    -11.226179     8A    -11.213708     9A    -11.211432
      10A    -11.209795    11A    -11.206246    12A    -11.203797
      13A     -1.251902    14A     -1.128419    15A     -1.081907
      16A     -1.047371    17A     -0.992690    18A     -0.954946
      19A     -0.892878    20A     -0.855196    21A     -0.836645
      22A     -0.764590    23A     -0.756041    24A     -0.696891
      25A     -0.668185    26A     -0.640934    27A     -0.640480
      28A     -0.609021    29A     -0.585111    30A     -0.577503
      31A     -0.574214    32A     -0.550001    33A     -0.538354
      34A     -0.526594    35A     -0.509953    36A     -0.473306
      37A     -0.469146    38A     -0.465039    39A     -0.452783
      40A     -0.446094    41A     -0.438107    42A     -0.410050
      43A     -0.377015    44A     -0.332165

  @DF-RHF Final Energy:  -479.89603144697560

   => Energetics <=

    Nuclear Repulsion Energy =            686.2176897435905403
    One-Electron Energy =               -2010.9244885339762732
    Two-Electron Energy =                 844.8107673434100207
    Total Energy =                       -479.8960314469755986
  Basis Set: (AUG-CC-PVTZ AUX)
    Blend: AUG-CC-PVTZ-RI
    Molecular point group: c1

    Geometry (in Angstrom), charge = 0, multiplicity = 1:

       Center              X                  Y                   Z               Mass
    ------------   -----------------  -----------------  -----------------  -----------------
         N            0.972230595587     0.883435696092     0.321148847950    14.003074004430
         C           -2.764405404413    -0.123685303908    -0.270077152050    12.000000000000
         C           -0.487879404413    -1.014650303908    -0.013007152050    12.000000000000
         C           -1.439113404413    -0.310625303908    -1.016353152050    12.000000000000
         C           -2.287485404413     0.178297696092     1.150891847950    12.000000000000
         C           -1.170411404413    -0.843383303908     1.376135847950    12.000000000000
         C           -3.659127104413     0.923512296092    -0.869574452050    12.000000000000
         C            0.891216595587    -0.414764303908    -0.044899152050    12.000000000000
         C            2.018519595587    -1.149654303908    -0.428695152050    12.000000000000
         C            3.268801595587    -0.532315303908    -0.439795152050    12.000000000000
         C            2.182503595587     1.465287696092     0.309726847950    12.000000000000
         C            3.355459595587     0.806147696092    -0.061898152050    12.000000000000
         H           -3.299300404413    -1.085509303908    -0.255088152050     1.007825032230
         H           -0.404114404413    -2.080640303908    -0.259153152050     1.007825032230
         H           -1.032622404413     0.677982696092    -1.262142152050     1.007825032230
         H           -1.546252404413    -0.869503303908    -1.953289152050     1.007825032230
         H           -3.087533404413     0.113782696092     1.897665847950     1.007825032230
         H           -1.871588404413     1.192733696092     1.181680847950     1.007825032230
         H           -0.456389404413    -0.529563303908     2.143140847950     1.007825032230
         H           -1.598603404413    -1.801417303908     1.694678847950     1.007825032230
         H           -3.948043404413     0.684255696092    -1.906249152050     1.007825032230
         H           -4.593615404413     1.049714696092    -0.298707152050     1.007825032230
         H           -3.160043404413     1.906187696092    -0.892968152050     1.007825032230
         H            1.913439595587    -2.193773303908    -0.713967152050     1.007825032230
         H            4.156809595587    -1.085870303908    -0.736128152050     1.007825032230
         H            2.207286595587     2.511079696092     0.613432847950     1.007825032230
         H            4.306547595587     1.331121696092    -0.053176152050     1.007825032230

  Basis Set: AUG-CC-PVTZ
    Blend: AUG-CC-PVTZ
  Basis Set: (AUG-CC-PVTZ AUX)
    Blend: AUG-CC-PVTZ-JKFIT
	 Reference Energy          =    -479.8960314469755986 [Eh]
	 Singles Energy            =      -0.0000000000000000 [Eh]
	 Same-Spin Energy          =      -0.5329290717017617 [Eh]
	 Opposite-Spin Energy      =      -1.7456777969385746 [Eh]
	 Correlation Energy        =      -2.2786068686403365 [Eh]
	 Total Energy              =    -482.1746383156159368 [Eh]

	 ================> DF-SCS-MP2 Energies <==================
	-----------------------------------------------------------
	 SCS Same-Spin Scale       =       0.3333333333333333 [-]
	 SCS Opposite-Spin Scale   =       1.2000000000000000 [-]
	 SCS Same-Spin Energy      =      -0.1776430239005872 [Eh]
	 SCS Opposite-Spin Energy  =      -2.0948133563262896 [Eh]
	 SCS Correlation Energy    =      -2.2724563802268767 [Eh]
	 SCS Total Energy          =    -482.1684878272024548 [Eh]
	-----------------------------------------------------------

  Dipole Moment: [D]
     X:     1.3323      Y:    -1.0710      Z:    -0.4946     Total:     1.7795

*** Psi4 exiting successfully. Buy a developer a beer!
