                               Psi4 1.4a3.dev225

  ==> Input File <==

--------------------------------------------------------------------------
#psi4
#
memory 32 gb

molecule  {
0 1
  N        1.0430420     0.8835120     0.3262100
  C       -2.6438092    -0.1154938    -0.2824477
  C       -0.4170680    -1.0145740    -0.0079460
  C       -1.3683020    -0.3105490    -1.0112920
  C       -2.2166740     0.1783740     1.1559530
  C       -1.0996000    -0.8433070     1.3811970
  C       -3.6002280     0.9375310    -0.8724950
  C        0.9620280    -0.4146880    -0.0398380
  C        2.0893310    -1.1495780    -0.4236340
  C        3.3396130    -0.5322390    -0.4347340
  C        2.2533150     1.4653640     0.3147880
  C        3.4262710     0.8062240    -0.0568370
  H       -3.2284890    -1.0854330    -0.2500270
  H       -0.3333030    -2.0805640    -0.2540920
  H       -0.9618110     0.6780590    -1.2570810
  H       -1.4754410    -0.8694270    -1.9482280
  H       -3.0167220     0.1138590     1.9027270
  H       -1.8007770     1.1928100     1.1867420
  H       -0.3855780    -0.5294870     2.1482020
  H       -1.5277920    -1.8013410     1.6997400
  H       -3.8772320     0.6843320    -1.9011880
  H       -4.5228040     1.0497910    -0.2936460
  H       -3.0892320     1.9062640    -0.8879070
  H        1.9842510    -2.1936970    -0.7089060
  H        4.2276210    -1.0857940    -0.7310670
  H        2.2780980     2.5111560     0.6184940
  H        4.3773590     1.3311980    -0.0481150
units angstrom
no_reorient  #important for SAPT in psi4, default
symmetry c1  #important for SAPT in psi4, default
}

set PROPERTIES_ORIGIN ["COM"]
properties('MP2/aug-cc-pvtz', properties = ['dipole'])
--------------------------------------------------------------------------

    Molecular point group: c1
  Charge       = 0
  Multiplicity = 1
  Basis Set: AUG-CC-PVTZ
    Blend: AUG-CC-PVTZ
  Basis Set: (AUG-CC-PVTZ AUX)
    Blend: AUG-CC-PVTZ-JKFIT

    Orbital Energies [Eh]
    ---------------------

    Doubly Occupied:

       1A    -15.558230     2A    -11.275585     3A    -11.274549
       4A    -11.258140     5A    -11.236094     6A    -11.235346
       7A    -11.226713     8A    -11.215885     9A    -11.211242
      10A    -11.208340    11A    -11.205901    12A    -11.203705
      13A     -1.252143    14A     -1.132026    15A     -1.082101
      16A     -1.046442    17A     -0.989885    18A     -0.957415
      19A     -0.896176    20A     -0.855361    21A     -0.836638
      22A     -0.766073    23A     -0.750961    24A     -0.697354
      25A     -0.669246    26A     -0.642083    27A     -0.641178
      28A     -0.608833    29A     -0.583650    30A     -0.578129
      31A     -0.574118    32A     -0.551549    33A     -0.537500
      34A     -0.527540    35A     -0.510971    36A     -0.477738
      37A     -0.469813    38A     -0.463159    39A     -0.452898
      40A     -0.444359    41A     -0.436270    42A     -0.409983
      43A     -0.377134    44A     -0.332471

  @DF-RHF Final Energy:  -479.89325970747132

   => Energetics <=

    Nuclear Repulsion Energy =            686.5692754686367607
    One-Electron Energy =               -2011.6032159686071736
    Two-Electron Energy =                 845.1406807924990972
    Total Energy =                       -479.8932597074713158
  Basis Set: (AUG-CC-PVTZ AUX)
    Blend: AUG-CC-PVTZ-RI
    Molecular point group: c1

    Geometry (in Angstrom), charge = 0, multiplicity = 1:

       Center              X                  Y                   Z               Mass
    ------------   -----------------  -----------------  -----------------  -----------------
         N            0.969409910804     0.881792880417     0.323041598380    14.003074004430
         C           -2.717441289196    -0.117212919583    -0.285616101620    12.000000000000
         C           -0.490700089196    -1.016293119583    -0.011114401620    12.000000000000
         C           -1.441934089196    -0.312268119583    -1.014460401620    12.000000000000
         C           -2.290306089196     0.176654880417     1.152784598380    12.000000000000
         C           -1.173232089196    -0.845026119583     1.378028598380    12.000000000000
         C           -3.673860089196     0.935811880417    -0.875663401620    12.000000000000
         C            0.888395910804    -0.416407119583    -0.043006401620    12.000000000000
         C            2.015698910804    -1.151297119583    -0.426802401620    12.000000000000
         C            3.265980910804    -0.533958119583    -0.437902401620    12.000000000000
         C            2.179682910804     1.463644880417     0.311619598380    12.000000000000
         C            3.352638910804     0.804504880417    -0.060005401620    12.000000000000
         H           -3.302121089196    -1.087152119583    -0.253195401620     1.007825032230
         H           -0.406935089196    -2.082283119583    -0.257260401620     1.007825032230
         H           -1.035443089196     0.676339880417    -1.260249401620     1.007825032230
         H           -1.549073089196    -0.871146119583    -1.951396401620     1.007825032230
         H           -3.090354089196     0.112139880417     1.899558598380     1.007825032230
         H           -1.874409089196     1.191090880417     1.183573598380     1.007825032230
         H           -0.459210089196    -0.531206119583     2.145033598380     1.007825032230
         H           -1.601424089196    -1.803060119583     1.696571598380     1.007825032230
         H           -3.950864089196     0.682612880417    -1.904356401620     1.007825032230
         H           -4.596436089196     1.048071880417    -0.296814401620     1.007825032230
         H           -3.162864089196     1.904544880417    -0.891075401620     1.007825032230
         H            1.910618910804    -2.195416119583    -0.712074401620     1.007825032230
         H            4.153988910804    -1.087513119583    -0.734235401620     1.007825032230
         H            2.204465910804     2.509436880417     0.615325598380     1.007825032230
         H            4.303726910804     1.329478880417    -0.051283401620     1.007825032230

  Basis Set: AUG-CC-PVTZ
    Blend: AUG-CC-PVTZ
  Basis Set: (AUG-CC-PVTZ AUX)
    Blend: AUG-CC-PVTZ-JKFIT
	 Reference Energy          =    -479.8932597074713158 [Eh]
	 Singles Energy            =      -0.0000000000000000 [Eh]
	 Same-Spin Energy          =      -0.5330789281335676 [Eh]
	 Opposite-Spin Energy      =      -1.7458921604156870 [Eh]
	 Correlation Energy        =      -2.2789710885492545 [Eh]
	 Total Energy              =    -482.1722307960205853 [Eh]

	 ================> DF-SCS-MP2 Energies <==================
	-----------------------------------------------------------
	 SCS Same-Spin Scale       =       0.3333333333333333 [-]
	 SCS Opposite-Spin Scale   =       1.2000000000000000 [-]
	 SCS Same-Spin Energy      =      -0.1776929760445225 [Eh]
	 SCS Opposite-Spin Energy  =      -2.0950705924988244 [Eh]
	 SCS Correlation Energy    =      -2.2727635685433469 [Eh]
	 SCS Total Energy          =    -482.1660232760146414 [Eh]
	-----------------------------------------------------------

  Dipole Moment: [D]
     X:     1.3693      Y:    -1.0621      Z:    -0.4905     Total:     1.8010

*** Psi4 exiting successfully. Buy a developer a beer!
