                               Psi4 1.4a3.dev225

  ==> Input File <==

--------------------------------------------------------------------------
#psi4
#
memory 32 gb

molecule  {
0 1
  N        1.0430420     0.8835120     0.3262100
  C       -2.6907355    -0.0970957    -0.2670604
  C       -0.4170680    -1.0145740    -0.0079460
  C       -1.3683020    -0.3105490    -1.0112920
  C       -2.2166740     0.1783740     1.1559530
  C       -1.0996000    -0.8433070     1.3811970
  C       -3.6002280     0.9375310    -0.8724950
  C        0.9620280    -0.4146880    -0.0398380
  C        2.0893310    -1.1495780    -0.4236340
  C        3.3396130    -0.5322390    -0.4347340
  C        2.2533150     1.4653640     0.3147880
  C        3.4262710     0.8062240    -0.0568370
  H       -3.2284890    -1.0854330    -0.2500270
  H       -0.3333030    -2.0805640    -0.2540920
  H       -0.9618110     0.6780590    -1.2570810
  H       -1.4754410    -0.8694270    -1.9482280
  H       -3.0167220     0.1138590     1.9027270
  H       -1.8007770     1.1928100     1.1867420
  H       -0.3855780    -0.5294870     2.1482020
  H       -1.5277920    -1.8013410     1.6997400
  H       -3.8772320     0.6843320    -1.9011880
  H       -4.5228040     1.0497910    -0.2936460
  H       -3.0892320     1.9062640    -0.8879070
  H        1.9842510    -2.1936970    -0.7089060
  H        4.2276210    -1.0857940    -0.7310670
  H        2.2780980     2.5111560     0.6184940
  H        4.3773590     1.3311980    -0.0481150
units angstrom
no_reorient  #important for SAPT in psi4, default
symmetry c1  #important for SAPT in psi4, default
}

set PROPERTIES_ORIGIN ["COM"]
properties('MP2/aug-cc-pvtz', properties = ['dipole'])
--------------------------------------------------------------------------

    Molecular point group: c1
  Charge       = 0
  Multiplicity = 1
  Basis Set: AUG-CC-PVTZ
    Blend: AUG-CC-PVTZ
  Basis Set: (AUG-CC-PVTZ AUX)
    Blend: AUG-CC-PVTZ-JKFIT

    Orbital Energies [Eh]
    ---------------------

    Doubly Occupied:

       1A    -15.558081     2A    -11.275464     3A    -11.274416
       4A    -11.258016     5A    -11.235962     6A    -11.235215
       7A    -11.226499     8A    -11.215751     9A    -11.211784
      10A    -11.209825    11A    -11.205077    12A    -11.203792
      13A     -1.251949    14A     -1.128020    15A     -1.081949
      16A     -1.047362    17A     -0.993279    18A     -0.955054
      19A     -0.894889    20A     -0.855291    21A     -0.837120
      22A     -0.764768    23A     -0.751901    24A     -0.696990
      25A     -0.668250    26A     -0.640964    27A     -0.640185
      28A     -0.608892    29A     -0.585398    30A     -0.577370
      31A     -0.574551    32A     -0.553232    33A     -0.538321
      34A     -0.527053    35A     -0.511410    36A     -0.473352
      37A     -0.469398    38A     -0.465894    39A     -0.452353
      40A     -0.441332    41A     -0.439453    42A     -0.410147
      43A     -0.377000    44A     -0.332253

  @DF-RHF Final Energy:  -479.89557226274991

   => Energetics <=

    Nuclear Repulsion Energy =            685.9905094594803359
    One-Electron Energy =               -2010.4616376760523053
    Two-Electron Energy =                 844.5755559538221178
    Total Energy =                       -479.8955722627498517
  Basis Set: (AUG-CC-PVTZ AUX)
    Blend: AUG-CC-PVTZ-RI
    Molecular point group: c1

    Geometry (in Angstrom), charge = 0, multiplicity = 1:

       Center              X                  Y                   Z               Mass
    ------------   -----------------  -----------------  -----------------  -----------------
         N            0.972904908502     0.880422618599     0.321895576254    14.003074004430
         C           -2.760872591498    -0.100185081401    -0.271374823746    12.000000000000
         C           -0.487205091498    -1.017663381401    -0.012260423746    12.000000000000
         C           -1.438439091498    -0.313638381401    -1.015606423746    12.000000000000
         C           -2.286811091498     0.175284618599     1.151638576254    12.000000000000
         C           -1.169737091498    -0.846396381401     1.376882576254    12.000000000000
         C           -3.670365091498     0.934441618599    -0.876809423746    12.000000000000
         C            0.891890908502    -0.417777381401    -0.044152423746    12.000000000000
         C            2.019193908502    -1.152667381401    -0.427948423746    12.000000000000
         C            3.269475908502    -0.535328381401    -0.439048423746    12.000000000000
         C            2.183177908502     1.462274618599     0.310473576254    12.000000000000
         C            3.356133908502     0.803134618599    -0.061151423746    12.000000000000
         H           -3.298626091498    -1.088522381401    -0.254341423746     1.007825032230
         H           -0.403440091498    -2.083653381401    -0.258406423746     1.007825032230
         H           -1.031948091498     0.674969618599    -1.261395423746     1.007825032230
         H           -1.545578091498    -0.872516381401    -1.952542423746     1.007825032230
         H           -3.086859091498     0.110769618599     1.898412576254     1.007825032230
         H           -1.870914091498     1.189720618599     1.182427576254     1.007825032230
         H           -0.455715091498    -0.532576381401     2.143887576254     1.007825032230
         H           -1.597929091498    -1.804430381401     1.695425576254     1.007825032230
         H           -3.947369091498     0.681242618599    -1.905502423746     1.007825032230
         H           -4.592941091498     1.046701618599    -0.297960423746     1.007825032230
         H           -3.159369091498     1.903174618599    -0.892221423746     1.007825032230
         H            1.914113908502    -2.196786381401    -0.713220423746     1.007825032230
         H            4.157483908502    -1.088883381401    -0.735381423746     1.007825032230
         H            2.207960908502     2.508066618599     0.614179576254     1.007825032230
         H            4.307221908502     1.328108618599    -0.052429423746     1.007825032230

  Basis Set: AUG-CC-PVTZ
    Blend: AUG-CC-PVTZ
  Basis Set: (AUG-CC-PVTZ AUX)
    Blend: AUG-CC-PVTZ-JKFIT
	 Reference Energy          =    -479.8955722627499085 [Eh]
	 Singles Energy            =      -0.0000000000000000 [Eh]
	 Same-Spin Energy          =      -0.5329264734150865 [Eh]
	 Opposite-Spin Energy      =      -1.7457352540820712 [Eh]
	 Correlation Energy        =      -2.2786617274971577 [Eh]
	 Total Energy              =    -482.1742339902470462 [Eh]

	 ================> DF-SCS-MP2 Energies <==================
	-----------------------------------------------------------
	 SCS Same-Spin Scale       =       0.3333333333333333 [-]
	 SCS Opposite-Spin Scale   =       1.2000000000000000 [-]
	 SCS Same-Spin Energy      =      -0.1776421578050288 [Eh]
	 SCS Opposite-Spin Energy  =      -2.0948823048984853 [Eh]
	 SCS Correlation Energy    =      -2.2725244627035139 [Eh]
	 SCS Total Energy          =    -482.1680967254534380 [Eh]
	-----------------------------------------------------------

  Dipole Moment: [D]
     X:     1.3389      Y:    -1.0509      Z:    -0.4977     Total:     1.7734

*** Psi4 exiting successfully. Buy a developer a beer!
