                               Psi4 1.4a3.dev225

  ==> Input File <==

--------------------------------------------------------------------------
#psi4
#
memory 32 gb

molecule  {
0 1
  N        1.0430420     0.8835120     0.3262100
  C       -2.6935940    -0.1236090    -0.2650160
  C       -0.4170680    -1.0145740    -0.0079460
  C       -1.3683020    -0.3105490    -1.0112920
  C       -2.2166740     0.1783740     1.1559530
  C       -1.0996000    -0.8433070     1.3811970
  C       -3.6002280     0.9375310    -0.8724950
  C        0.9620280    -0.4146880    -0.0398380
  C        2.0893310    -1.1495780    -0.4236340
  C        3.3396130    -0.5322390    -0.4347340
  C        2.2533150     1.4653640     0.3147880
  C        3.4262710     0.8062240    -0.0568370
  H       -3.2284890    -1.0854330    -0.2500270
  H       -0.3333030    -2.0805640    -0.2540920
  H       -0.9618110     0.6780590    -1.2570810
  H       -1.4754410    -0.8694270    -1.9482280
  H       -3.0167220     0.1138590     1.9027270
  H       -1.7249396     1.3777888     1.1923563
  H       -0.3855780    -0.5294870     2.1482020
  H       -1.5277920    -1.8013410     1.6997400
  H       -3.8772320     0.6843320    -1.9011880
  H       -4.5228040     1.0497910    -0.2936460
  H       -3.0892320     1.9062640    -0.8879070
  H        1.9842510    -2.1936970    -0.7089060
  H        4.2276210    -1.0857940    -0.7310670
  H        2.2780980     2.5111560     0.6184940
  H        4.3773590     1.3311980    -0.0481150
units angstrom
no_reorient  #important for SAPT in psi4, default
symmetry c1  #important for SAPT in psi4, default
}

set PROPERTIES_ORIGIN ["COM"]
properties('MP2/aug-cc-pvtz', properties = ['dipole'])
--------------------------------------------------------------------------

    Molecular point group: c1
  Charge       = 0
  Multiplicity = 1
  Basis Set: AUG-CC-PVTZ
    Blend: AUG-CC-PVTZ
  Basis Set: (AUG-CC-PVTZ AUX)
    Blend: AUG-CC-PVTZ-JKFIT

    Orbital Energies [Eh]
    ---------------------

    Doubly Occupied:

       1A    -15.557551     2A    -11.275321     3A    -11.274081
       4A    -11.257847     5A    -11.235816     6A    -11.235177
       7A    -11.226942     8A    -11.226359     9A    -11.217083
      10A    -11.213903    11A    -11.210293    12A    -11.205288
      13A     -1.251653    14A     -1.127062    15A     -1.081749
      16A     -1.046162    17A     -0.991822    18A     -0.951532
      19A     -0.893524    20A     -0.855028    21A     -0.834754
      22A     -0.762630    23A     -0.747857    24A     -0.696796
      25A     -0.668528    26A     -0.641293    27A     -0.639793
      28A     -0.606286    29A     -0.585441    30A     -0.574239
      31A     -0.570229    32A     -0.551779    33A     -0.535490
      34A     -0.526366    35A     -0.506373    36A     -0.474744
      37A     -0.469816    38A     -0.461771    39A     -0.451068
      40A     -0.441854    41A     -0.432923    42A     -0.407581
      43A     -0.376773    44A     -0.332188

  @DF-RHF Final Energy:  -479.87660735520228

   => Energetics <=

    Nuclear Repulsion Energy =            685.0682106313292934
    One-Electron Energy =               -2008.6281105986060993
    Two-Electron Energy =                 843.6832926120745242
    Total Energy =                       -479.8766073552022817
  Basis Set: (AUG-CC-PVTZ AUX)
    Blend: AUG-CC-PVTZ-RI
    Molecular point group: c1

    Geometry (in Angstrom), charge = 0, multiplicity = 1:

       Center              X                  Y                   Z               Mass
    ------------   -----------------  -----------------  -----------------  -----------------
         N            0.972643434367     0.881240226391     0.321708194502    14.003074004430
         C           -2.763992565633    -0.125880773609    -0.269517805498    12.000000000000
         C           -0.487466565633    -1.016845773609    -0.012447805498    12.000000000000
         C           -1.438700565633    -0.312820773609    -1.015793805498    12.000000000000
         C           -2.287072565633     0.176102226391     1.151451194502    12.000000000000
         C           -1.169998565633    -0.845578773609     1.376695194502    12.000000000000
         C           -3.670626565633     0.935259226391    -0.876996805498    12.000000000000
         C            0.891629434367    -0.416959773609    -0.044339805498    12.000000000000
         C            2.018932434367    -1.151849773609    -0.428135805498    12.000000000000
         C            3.269214434367    -0.534510773609    -0.439235805498    12.000000000000
         C            2.182916434367     1.463092226391     0.310286194502    12.000000000000
         C            3.355872434367     0.803952226391    -0.061338805498    12.000000000000
         H           -3.298887565633    -1.087704773609    -0.254528805498     1.007825032230
         H           -0.403701565633    -2.082835773609    -0.258593805498     1.007825032230
         H           -1.032209565633     0.675787226391    -1.261582805498     1.007825032230
         H           -1.545839565633    -0.871698773609    -1.952729805498     1.007825032230
         H           -3.087120565633     0.111587226391     1.898225194502     1.007825032230
         H           -1.795338165633     1.375517026391     1.187854494502     1.007825032230
         H           -0.455976565633    -0.531758773609     2.143700194502     1.007825032230
         H           -1.598190565633    -1.803612773609     1.695238194502     1.007825032230
         H           -3.947630565633     0.682060226391    -1.905689805498     1.007825032230
         H           -4.593202565633     1.047519226391    -0.298147805498     1.007825032230
         H           -3.159630565633     1.903992226391    -0.892408805498     1.007825032230
         H            1.913852434367    -2.195968773609    -0.713407805498     1.007825032230
         H            4.157222434367    -1.088065773609    -0.735568805498     1.007825032230
         H            2.207699434367     2.508884226391     0.613992194502     1.007825032230
         H            4.306960434367     1.328926226391    -0.052616805498     1.007825032230

  Basis Set: AUG-CC-PVTZ
    Blend: AUG-CC-PVTZ
  Basis Set: (AUG-CC-PVTZ AUX)
    Blend: AUG-CC-PVTZ-JKFIT
	 Reference Energy          =    -479.8766073552022817 [Eh]
	 Singles Energy            =      -0.0000000000000000 [Eh]
	 Same-Spin Energy          =      -0.5330742796879094 [Eh]
	 Opposite-Spin Energy      =      -1.7473899813557017 [Eh]
	 Correlation Energy        =      -2.2804642610436110 [Eh]
	 Total Energy              =    -482.1570716162459007 [Eh]

	 ================> DF-SCS-MP2 Energies <==================
	-----------------------------------------------------------
	 SCS Same-Spin Scale       =       0.3333333333333333 [-]
	 SCS Opposite-Spin Scale   =       1.2000000000000000 [-]
	 SCS Same-Spin Energy      =      -0.1776914265626365 [Eh]
	 SCS Opposite-Spin Energy  =      -2.0968679776268417 [Eh]
	 SCS Correlation Energy    =      -2.2745594041894783 [Eh]
	 SCS Total Energy          =    -482.1511667593917423 [Eh]
	-----------------------------------------------------------

  Dipole Moment: [D]
     X:     1.3209      Y:    -1.1971      Z:    -0.5178     Total:     1.8563

*** Psi4 exiting successfully. Buy a developer a beer!
