                               Psi4 1.4a3.dev225

  ==> Input File <==

--------------------------------------------------------------------------
#psi4
#
memory 32 gb

molecule  {
0 1
  N        1.0430420     0.8835120     0.3262100
  C       -2.6099334    -0.0441596    -0.1535850
  C       -0.4170680    -1.0145740    -0.0079460
  C       -1.3683020    -0.3105490    -1.0112920
  C       -2.2166740     0.1783740     1.1559530
  C       -1.0996000    -0.8433070     1.3811970
  C       -3.6002280     0.9375310    -0.8724950
  C        0.9620280    -0.4146880    -0.0398380
  C        2.0893310    -1.1495780    -0.4236340
  C        3.3396130    -0.5322390    -0.4347340
  C        2.2533150     1.4653640     0.3147880
  C        3.4262710     0.8062240    -0.0568370
  H       -3.2284890    -1.0854330    -0.2500270
  H       -0.3333030    -2.0805640    -0.2540920
  H       -0.9618110     0.6780590    -1.2570810
  H       -1.4754410    -0.8694270    -1.9482280
  H       -3.0167220     0.1138590     1.9027270
  H       -1.8007770     1.1928100     1.1867420
  H       -0.3855780    -0.5294870     2.1482020
  H       -1.5277920    -1.8013410     1.6997400
  H       -3.8772320     0.6843320    -1.9011880
  H       -4.5228040     1.0497910    -0.2936460
  H       -3.0892320     1.9062640    -0.8879070
  H        1.9842510    -2.1936970    -0.7089060
  H        4.2276210    -1.0857940    -0.7310670
  H        2.2780980     2.5111560     0.6184940
  H        4.3773590     1.3311980    -0.0481150
units angstrom
no_reorient  #important for SAPT in psi4, default
symmetry c1  #important for SAPT in psi4, default
}

set PROPERTIES_ORIGIN ["COM"]
properties('MP2/aug-cc-pvtz', properties = ['dipole'])
--------------------------------------------------------------------------

    Molecular point group: c1
  Charge       = 0
  Multiplicity = 1
  Basis Set: AUG-CC-PVTZ
    Blend: AUG-CC-PVTZ
  Basis Set: (AUG-CC-PVTZ AUX)
    Blend: AUG-CC-PVTZ-JKFIT

    Orbital Energies [Eh]
    ---------------------

    Doubly Occupied:

       1A    -15.558019     2A    -11.275435     3A    -11.274528
       4A    -11.258073     5A    -11.235837     6A    -11.235065
       7A    -11.226410     8A    -11.221545     9A    -11.213792
      10A    -11.211128    11A    -11.208193    12A    -11.199420
      13A     -1.252096    14A     -1.143153    15A     -1.082104
      16A     -1.050198    17A     -0.986509    18A     -0.963992
      19A     -0.896283    20A     -0.856214    21A     -0.843211
      22A     -0.768902    23A     -0.742258    24A     -0.696966
      25A     -0.671303    26A     -0.645300    27A     -0.641087
      28A     -0.613033    29A     -0.582869    30A     -0.577715
      31A     -0.575480    32A     -0.551747    33A     -0.537596
      34A     -0.527056    35A     -0.511852    36A     -0.496866
      37A     -0.472353    38A     -0.466542    39A     -0.455403
      40A     -0.442839    41A     -0.414148    42A     -0.404321
      43A     -0.376730    44A     -0.331603

  @DF-RHF Final Energy:  -479.86659510756203

   => Energetics <=

    Nuclear Repulsion Energy =            687.7493937764613747
    One-Electron Energy =               -2013.8416371600021648
    Two-Electron Energy =                 846.2256482759787559
    Total Energy =                       -479.8665951075620342
  Basis Set: (AUG-CC-PVTZ AUX)
    Blend: AUG-CC-PVTZ-RI
    Molecular point group: c1

    Geometry (in Angstrom), charge = 0, multiplicity = 1:

       Center              X                  Y                   Z               Mass
    ------------   -----------------  -----------------  -----------------  -----------------
         N            0.966886894010     0.876480020362     0.313444105293    14.003074004430
         C           -2.686088505990    -0.051191579638    -0.166350894707    12.000000000000
         C           -0.493223105990    -1.021605979638    -0.020711894707    12.000000000000
         C           -1.444457105990    -0.317580979638    -1.024057894707    12.000000000000
         C           -2.292829105990     0.171342020362     1.143187105293    12.000000000000
         C           -1.175755105990    -0.850338979638     1.368431105293    12.000000000000
         C           -3.676383105990     0.930499020362    -0.885260894707    12.000000000000
         C            0.885872894010    -0.421719979638    -0.052603894707    12.000000000000
         C            2.013175894010    -1.156609979638    -0.436399894707    12.000000000000
         C            3.263457894010    -0.539270979638    -0.447499894707    12.000000000000
         C            2.177159894010     1.458332020362     0.302022105293    12.000000000000
         C            3.350115894010     0.799192020362    -0.069602894707    12.000000000000
         H           -3.304644105990    -1.092464979638    -0.262792894707     1.007825032230
         H           -0.409458105990    -2.087595979638    -0.266857894707     1.007825032230
         H           -1.037966105990     0.671027020362    -1.269846894707     1.007825032230
         H           -1.551596105990    -0.876458979638    -1.960993894707     1.007825032230
         H           -3.092877105990     0.106827020362     1.889961105293     1.007825032230
         H           -1.876932105990     1.185778020362     1.173976105293     1.007825032230
         H           -0.461733105990    -0.536518979638     2.135436105293     1.007825032230
         H           -1.603947105990    -1.808372979638     1.686974105293     1.007825032230
         H           -3.953387105990     0.677300020362    -1.913953894707     1.007825032230
         H           -4.598959105990     1.042759020362    -0.306411894707     1.007825032230
         H           -3.165387105990     1.899232020362    -0.900672894707     1.007825032230
         H            1.908095894010    -2.200728979638    -0.721671894707     1.007825032230
         H            4.151465894010    -1.092825979638    -0.743832894707     1.007825032230
         H            2.201942894010     2.504124020362     0.605728105293     1.007825032230
         H            4.301203894010     1.324166020362    -0.060880894707     1.007825032230

  Basis Set: AUG-CC-PVTZ
    Blend: AUG-CC-PVTZ
  Basis Set: (AUG-CC-PVTZ AUX)
    Blend: AUG-CC-PVTZ-JKFIT
	 Reference Energy          =    -479.8665951075620342 [Eh]
	 Singles Energy            =      -0.0000000000000000 [Eh]
	 Same-Spin Energy          =      -0.5344019860797814 [Eh]
	 Opposite-Spin Energy      =      -1.7479550037039835 [Eh]
	 Correlation Energy        =      -2.2823569897837648 [Eh]
	 Total Energy              =    -482.1489520973457843 [Eh]

	 ================> DF-SCS-MP2 Energies <==================
	-----------------------------------------------------------
	 SCS Same-Spin Scale       =       0.3333333333333333 [-]
	 SCS Opposite-Spin Scale   =       1.2000000000000000 [-]
	 SCS Same-Spin Energy      =      -0.1781339953599271 [Eh]
	 SCS Opposite-Spin Energy  =      -2.0975460044447800 [Eh]
	 SCS Correlation Energy    =      -2.2756799998047073 [Eh]
	 SCS Total Energy          =    -482.1422751073667428 [Eh]
	-----------------------------------------------------------

  Dipole Moment: [D]
     X:     1.4006      Y:    -1.0236      Z:    -0.4512     Total:     1.7925

*** Psi4 exiting successfully. Buy a developer a beer!
