                               Psi4 1.4a3.dev225

  ==> Input File <==

--------------------------------------------------------------------------
#psi4
#
memory 32 gb

molecule  {
0 1
  N        1.0430420     0.8835120     0.3262100
  C       -2.6935940    -0.1236090    -0.2650160
  C       -0.4170680    -1.0145740    -0.0079460
  C       -1.3683020    -0.3105490    -1.0112920
  C       -2.2272120     0.1623952     1.1373210
  C       -1.0996000    -0.8433070     1.3811970
  C       -3.6002280     0.9375310    -0.8724950
  C        0.9620280    -0.4146880    -0.0398380
  C        2.0893310    -1.1495780    -0.4236340
  C        3.3396130    -0.5322390    -0.4347340
  C        2.2533150     1.4653640     0.3147880
  C        3.4262710     0.8062240    -0.0568370
  H       -3.2284890    -1.0854330    -0.2500270
  H       -0.3333030    -2.0805640    -0.2540920
  H       -0.9618110     0.6780590    -1.2570810
  H       -1.4754410    -0.8694270    -1.9482280
  H       -3.0167220     0.1138590     1.9027270
  H       -1.8007770     1.1928100     1.1867420
  H       -0.3855780    -0.5294870     2.1482020
  H       -1.5277920    -1.8013410     1.6997400
  H       -3.8772320     0.6843320    -1.9011880
  H       -4.5228040     1.0497910    -0.2936460
  H       -3.0892320     1.9062640    -0.8879070
  H        1.9842510    -2.1936970    -0.7089060
  H        4.2276210    -1.0857940    -0.7310670
  H        2.2780980     2.5111560     0.6184940
  H        4.3773590     1.3311980    -0.0481150
units angstrom
no_reorient  #important for SAPT in psi4, default
symmetry c1  #important for SAPT in psi4, default
}

set PROPERTIES_ORIGIN ["COM"]
properties('MP2/aug-cc-pvtz', properties = ['dipole'])
--------------------------------------------------------------------------

    Molecular point group: c1
  Charge       = 0
  Multiplicity = 1
  Basis Set: AUG-CC-PVTZ
    Blend: AUG-CC-PVTZ
  Basis Set: (AUG-CC-PVTZ AUX)
    Blend: AUG-CC-PVTZ-JKFIT

    Orbital Energies [Eh]
    ---------------------

    Doubly Occupied:

       1A    -15.557957     2A    -11.275321     3A    -11.274319
       4A    -11.257928     5A    -11.235873     6A    -11.235107
       7A    -11.226125     8A    -11.213693     9A    -11.211467
      10A    -11.209900    11A    -11.205568    12A    -11.204642
      13A     -1.251854    14A     -1.129713    15A     -1.081882
      16A     -1.047352    17A     -0.991555    18A     -0.954563
      19A     -0.894541    20A     -0.855269    21A     -0.837116
      22A     -0.764051    23A     -0.755387    24A     -0.696762
      25A     -0.668342    26A     -0.641217    27A     -0.640391
      28A     -0.608586    29A     -0.585138    30A     -0.576647
      31A     -0.574246    32A     -0.552066    33A     -0.537728
      34A     -0.526791    35A     -0.511137    36A     -0.473353
      37A     -0.468562    38A     -0.461487    39A     -0.451082
      40A     -0.446546    41A     -0.442572    42A     -0.409849
      43A     -0.376961    44A     -0.332093

  @DF-RHF Final Energy:  -479.89565166823093

   => Energetics <=

    Nuclear Repulsion Energy =            686.1331336517149566
    One-Electron Energy =               -2010.7520891213630421
    Two-Electron Energy =                 844.7233038014170461
    Total Energy =                       -479.8956516682309257
  Basis Set: (AUG-CC-PVTZ AUX)
    Blend: AUG-CC-PVTZ-RI
    Molecular point group: c1

    Geometry (in Angstrom), charge = 0, multiplicity = 1:

       Center              X                  Y                   Z               Mass
    ------------   -----------------  -----------------  -----------------  -----------------
         N            0.973902658946     0.883587363990     0.323130994853    14.003074004430
         C           -2.762733341054    -0.123533636010    -0.268095005147    12.000000000000
         C           -0.486207341054    -1.014498636010    -0.011025005147    12.000000000000
         C           -1.437441341054    -0.310473636010    -1.014371005147    12.000000000000
         C           -2.296351341054     0.162470563990     1.134241994853    12.000000000000
         C           -1.168739341054    -0.843231636010     1.378117994853    12.000000000000
         C           -3.669367341054     0.937606363990    -0.875574005147    12.000000000000
         C            0.892888658946    -0.414612636010    -0.042917005147    12.000000000000
         C            2.020191658946    -1.149502636010    -0.426713005147    12.000000000000
         C            3.270473658946    -0.532163636010    -0.437813005147    12.000000000000
         C            2.184175658946     1.465439363990     0.311708994853    12.000000000000
         C            3.357131658946     0.806299363990    -0.059916005147    12.000000000000
         H           -3.297628341054    -1.085357636010    -0.253106005147     1.007825032230
         H           -0.402442341054    -2.080488636010    -0.257171005147     1.007825032230
         H           -1.030950341054     0.678134363990    -1.260160005147     1.007825032230
         H           -1.544580341054    -0.869351636010    -1.951307005147     1.007825032230
         H           -3.085861341054     0.113934363990     1.899647994853     1.007825032230
         H           -1.869916341054     1.192885363990     1.183662994853     1.007825032230
         H           -0.454717341054    -0.529411636010     2.145122994853     1.007825032230
         H           -1.596931341054    -1.801265636010     1.696660994853     1.007825032230
         H           -3.946371341054     0.684407363990    -1.904267005147     1.007825032230
         H           -4.591943341054     1.049866363990    -0.296725005147     1.007825032230
         H           -3.158371341054     1.906339363990    -0.890986005147     1.007825032230
         H            1.915111658946    -2.193621636010    -0.711985005147     1.007825032230
         H            4.158481658946    -1.085718636010    -0.734146005147     1.007825032230
         H            2.208958658946     2.511231363990     0.615414994853     1.007825032230
         H            4.308219658946     1.331273363990    -0.051194005147     1.007825032230

  Basis Set: AUG-CC-PVTZ
    Blend: AUG-CC-PVTZ
  Basis Set: (AUG-CC-PVTZ AUX)
    Blend: AUG-CC-PVTZ-JKFIT
	 Reference Energy          =    -479.8956516682309257 [Eh]
	 Singles Energy            =      -0.0000000000000000 [Eh]
	 Same-Spin Energy          =      -0.5329626065376512 [Eh]
	 Opposite-Spin Energy      =      -1.7457038910263181 [Eh]
	 Correlation Energy        =      -2.2786664975639690 [Eh]
	 Total Energy              =    -482.1743181657948867 [Eh]

	 ================> DF-SCS-MP2 Energies <==================
	-----------------------------------------------------------
	 SCS Same-Spin Scale       =       0.3333333333333333 [-]
	 SCS Opposite-Spin Scale   =       1.2000000000000000 [-]
	 SCS Same-Spin Energy      =      -0.1776542021792170 [Eh]
	 SCS Opposite-Spin Energy  =      -2.0948446692315814 [Eh]
	 SCS Correlation Energy    =      -2.2724988714107983 [Eh]
	 SCS Total Energy          =    -482.1681505396417151 [Eh]
	-----------------------------------------------------------

  Dipole Moment: [D]
     X:     1.3306      Y:    -1.0744      Z:    -0.4974     Total:     1.7811

*** Psi4 exiting successfully. Buy a developer a beer!
