                               Psi4 1.4a3.dev225

  ==> Input File <==

--------------------------------------------------------------------------
#psi4
#
memory 32 gb

molecule  {
0 1
  N        1.0430420     0.8835120     0.3262100
  C       -2.6935940    -0.1236090    -0.2650160
  C       -0.4170680    -1.0145740    -0.0079460
  C       -1.3683020    -0.3105490    -1.0112920
  C       -2.2166740     0.1783740     1.1559530
  C       -1.0996000    -0.8433070     1.3811970
  C       -3.6002280     0.9375310    -0.8724950
  C        0.9620280    -0.4146880    -0.0398380
  C        2.0893310    -1.1495780    -0.4236340
  C        3.3396130    -0.5322390    -0.4347340
  C        2.2082539     1.4437004     0.3152133
  C        3.4262710     0.8062240    -0.0568370
  H       -3.2284890    -1.0854330    -0.2500270
  H       -0.3333030    -2.0805640    -0.2540920
  H       -0.9618110     0.6780590    -1.2570810
  H       -1.4754410    -0.8694270    -1.9482280
  H       -3.0167220     0.1138590     1.9027270
  H       -1.8007770     1.1928100     1.1867420
  H       -0.3855780    -0.5294870     2.1482020
  H       -1.5277920    -1.8013410     1.6997400
  H       -3.8772320     0.6843320    -1.9011880
  H       -4.5228040     1.0497910    -0.2936460
  H       -3.0892320     1.9062640    -0.8879070
  H        1.9842510    -2.1936970    -0.7089060
  H        4.2276210    -1.0857940    -0.7310670
  H        2.2780980     2.5111560     0.6184940
  H        4.3773590     1.3311980    -0.0481150
units angstrom
no_reorient  #important for SAPT in psi4, default
symmetry c1  #important for SAPT in psi4, default
}

set PROPERTIES_ORIGIN ["COM"]
properties('MP2/aug-cc-pvtz', properties = ['dipole'])
--------------------------------------------------------------------------

    Molecular point group: c1
  Charge       = 0
  Multiplicity = 1
  Basis Set: AUG-CC-PVTZ
    Blend: AUG-CC-PVTZ
  Basis Set: (AUG-CC-PVTZ AUX)
    Blend: AUG-CC-PVTZ-JKFIT

    Orbital Energies [Eh]
    ---------------------

    Doubly Occupied:

       1A    -15.555662     2A    -11.275762     3A    -11.275217
       4A    -11.256722     5A    -11.237364     6A    -11.234081
       7A    -11.226275     8A    -11.214940     9A    -11.211783
      10A    -11.210083    11A    -11.205527    12A    -11.204143
      13A     -1.265720    14A     -1.128423    15A     -1.084272
      16A     -1.045839    17A     -0.989914    18A     -0.954173
      19A     -0.893867    20A     -0.851855    21A     -0.840240
      22A     -0.765401    23A     -0.756054    24A     -0.696493
      25A     -0.670688    26A     -0.641931    27A     -0.638390
      28A     -0.605028    29A     -0.585475    30A     -0.578200
      31A     -0.572684    32A     -0.552695    33A     -0.541829
      34A     -0.529512    35A     -0.512774    36A     -0.472958
      37A     -0.469191    38A     -0.461296    39A     -0.453088
      40A     -0.447330    41A     -0.439712    42A     -0.407964
      43A     -0.383875    44A     -0.327543

  @DF-RHF Final Energy:  -479.89528286734657

   => Energetics <=

    Nuclear Repulsion Energy =            686.6904526116504712
    One-Electron Energy =               -2011.8275250278697968
    Two-Electron Energy =                 845.2417895488727027
    Total Energy =                       -479.8952828673466229
  Basis Set: (AUG-CC-PVTZ AUX)
    Blend: AUG-CC-PVTZ-RI
    Molecular point group: c1

    Geometry (in Angstrom), charge = 0, multiplicity = 1:

       Center              X                  Y                   Z               Mass
    ------------   -----------------  -----------------  -----------------  -----------------
         N            0.976473885636     0.884010759036     0.321711636847    14.003074004430
         C           -2.760162114364    -0.123110240964    -0.269514363153    12.000000000000
         C           -0.483636114364    -1.014075240964    -0.012444363153    12.000000000000
         C           -1.434870114364    -0.310050240964    -1.015790363153    12.000000000000
         C           -2.283242114364     0.178872759036     1.151454636847    12.000000000000
         C           -1.166168114364    -0.842808240964     1.376698636847    12.000000000000
         C           -3.666796114364     0.938029759036    -0.876993363153    12.000000000000
         C            0.895459885636    -0.414189240964    -0.044336363153    12.000000000000
         C            2.022762885636    -1.149079240964    -0.428132363153    12.000000000000
         C            3.273044885636    -0.531740240964    -0.439232363153    12.000000000000
         C            2.141685785636     1.444199159036     0.310714936847    12.000000000000
         C            3.359702885636     0.806722759036    -0.061335363153    12.000000000000
         H           -3.295057114364    -1.084934240964    -0.254525363153     1.007825032230
         H           -0.399871114364    -2.080065240964    -0.258590363153     1.007825032230
         H           -1.028379114364     0.678557759036    -1.261579363153     1.007825032230
         H           -1.542009114364    -0.868928240964    -1.952726363153     1.007825032230
         H           -3.083290114364     0.114357759036     1.898228636847     1.007825032230
         H           -1.867345114364     1.193308759036     1.182243636847     1.007825032230
         H           -0.452146114364    -0.528988240964     2.143703636847     1.007825032230
         H           -1.594360114364    -1.800842240964     1.695241636847     1.007825032230
         H           -3.943800114364     0.684830759036    -1.905686363153     1.007825032230
         H           -4.589372114364     1.050289759036    -0.298144363153     1.007825032230
         H           -3.155800114364     1.906762759036    -0.892405363153     1.007825032230
         H            1.917682885636    -2.193198240964    -0.713404363153     1.007825032230
         H            4.161052885636    -1.085295240964    -0.735565363153     1.007825032230
         H            2.211529885636     2.511654759036     0.613995636847     1.007825032230
         H            4.310790885636     1.331696759036    -0.052613363153     1.007825032230

  Basis Set: AUG-CC-PVTZ
    Blend: AUG-CC-PVTZ
  Basis Set: (AUG-CC-PVTZ AUX)
    Blend: AUG-CC-PVTZ-JKFIT
	 Reference Energy          =    -479.8952828673465660 [Eh]
	 Singles Energy            =      -0.0000000000000000 [Eh]
	 Same-Spin Energy          =      -0.5322986572856024 [Eh]
	 Opposite-Spin Energy      =      -1.7445943245387170 [Eh]
	 Correlation Energy        =      -2.2768929818243193 [Eh]
	 Total Energy              =    -482.1721758491709124 [Eh]

	 ================> DF-SCS-MP2 Energies <==================
	-----------------------------------------------------------
	 SCS Same-Spin Scale       =       0.3333333333333333 [-]
	 SCS Opposite-Spin Scale   =       1.2000000000000000 [-]
	 SCS Same-Spin Energy      =      -0.1774328857618675 [Eh]
	 SCS Opposite-Spin Energy  =      -2.0935131894464605 [Eh]
	 SCS Correlation Energy    =      -2.2709460752083279 [Eh]
	 SCS Total Energy          =    -482.1662289425548806 [Eh]
	-----------------------------------------------------------

  Dipole Moment: [D]
     X:     1.2875      Y:    -1.0846      Z:    -0.4926     Total:     1.7541

*** Psi4 exiting successfully. Buy a developer a beer!
