                               Psi4 1.4a3.dev225

  ==> Input File <==

--------------------------------------------------------------------------
#psi4
#
memory 32 gb

molecule  {
0 1
  N        1.0430420     0.8835120     0.3262100
  C       -2.6935940    -0.1236090    -0.2650160
  C       -0.4170680    -1.0145740    -0.0079460
  C       -1.3683020    -0.3105490    -1.0112920
  C       -2.1711527     0.2391300     1.2311099
  C       -1.0996000    -0.8433070     1.3811970
  C       -3.6002280     0.9375310    -0.8724950
  C        0.9620280    -0.4146880    -0.0398380
  C        2.0893310    -1.1495780    -0.4236340
  C        3.3396130    -0.5322390    -0.4347340
  C        2.2533150     1.4653640     0.3147880
  C        3.4262710     0.8062240    -0.0568370
  H       -3.2284890    -1.0854330    -0.2500270
  H       -0.3333030    -2.0805640    -0.2540920
  H       -0.9618110     0.6780590    -1.2570810
  H       -1.4754410    -0.8694270    -1.9482280
  H       -3.0167220     0.1138590     1.9027270
  H       -1.8007770     1.1928100     1.1867420
  H       -0.3855780    -0.5294870     2.1482020
  H       -1.5277920    -1.8013410     1.6997400
  H       -3.8772320     0.6843320    -1.9011880
  H       -4.5228040     1.0497910    -0.2936460
  H       -3.0892320     1.9062640    -0.8879070
  H        1.9842510    -2.1936970    -0.7089060
  H        4.2276210    -1.0857940    -0.7310670
  H        2.2780980     2.5111560     0.6184940
  H        4.3773590     1.3311980    -0.0481150
units angstrom
no_reorient  #important for SAPT in psi4, default
symmetry c1  #important for SAPT in psi4, default
}

set PROPERTIES_ORIGIN ["COM"]
properties('MP2/aug-cc-pvtz', properties = ['dipole'])
--------------------------------------------------------------------------

    Molecular point group: c1
  Charge       = 0
  Multiplicity = 1
  Basis Set: AUG-CC-PVTZ
    Blend: AUG-CC-PVTZ
  Basis Set: (AUG-CC-PVTZ AUX)
    Blend: AUG-CC-PVTZ-JKFIT

    Orbital Energies [Eh]
    ---------------------

    Doubly Occupied:

       1A    -15.558238     2A    -11.275431     3A    -11.274522
       4A    -11.258041     5A    -11.235958     6A    -11.235169
       7A    -11.226351     8A    -11.218020     9A    -11.211934
      10A    -11.209226    11A    -11.204252    12A    -11.201857
      13A     -1.251987    14A     -1.120653    15A     -1.081813
      16A     -1.043400    17A     -0.990408    18A     -0.956031
      19A     -0.891483    20A     -0.855072    21A     -0.836252
      22A     -0.769085    23A     -0.753443    24A     -0.696961
      25A     -0.667380    26A     -0.640041    27A     -0.638100
      28A     -0.606525    29A     -0.584611    30A     -0.582331
      31A     -0.573330    32A     -0.550989    33A     -0.540232
      34A     -0.528021    35A     -0.515639    36A     -0.474152
      37A     -0.469867    38A     -0.469623    39A     -0.456284
      40A     -0.448410    41A     -0.413772    42A     -0.409088
      43A     -0.377070    44A     -0.332255

  @DF-RHF Final Energy:  -479.88670382695216

   => Energetics <=

    Nuclear Repulsion Energy =            684.8304329485160906
    One-Electron Energy =               -2008.1676608956297514
    Two-Electron Energy =                 843.4505241201615036
    Total Energy =                       -479.8867038269521572
  Basis Set: (AUG-CC-PVTZ AUX)
    Blend: AUG-CC-PVTZ-RI
    Molecular point group: c1

    Geometry (in Angstrom), charge = 0, multiplicity = 1:

       Center              X                  Y                   Z               Mass
    ------------   -----------------  -----------------  -----------------  -----------------
         N            0.969727449640     0.877872275664     0.316145743735    14.003074004430
         C           -2.766908550360    -0.129248724336    -0.275080256265    12.000000000000
         C           -0.490382550360    -1.020213724336    -0.018010256265    12.000000000000
         C           -1.441616550360    -0.316188724336    -1.021356256265    12.000000000000
         C           -2.244467250360     0.233490275664     1.221045643735    12.000000000000
         C           -1.172914550360    -0.848946724336     1.371132743735    12.000000000000
         C           -3.673542550360     0.931891275664    -0.882559256265    12.000000000000
         C            0.888713449640    -0.420327724336    -0.049902256265    12.000000000000
         C            2.016016449640    -1.155217724336    -0.433698256265    12.000000000000
         C            3.266298449640    -0.537878724336    -0.444798256265    12.000000000000
         C            2.180000449640     1.459724275664     0.304723743735    12.000000000000
         C            3.352956449640     0.800584275664    -0.066901256265    12.000000000000
         H           -3.301803550360    -1.091072724336    -0.260091256265     1.007825032230
         H           -0.406617550360    -2.086203724336    -0.264156256265     1.007825032230
         H           -1.035125550360     0.672419275664    -1.267145256265     1.007825032230
         H           -1.548755550360    -0.875066724336    -1.958292256265     1.007825032230
         H           -3.090036550360     0.108219275664     1.892662743735     1.007825032230
         H           -1.874091550360     1.187170275664     1.176677743735     1.007825032230
         H           -0.458892550360    -0.535126724336     2.138137743735     1.007825032230
         H           -1.601106550360    -1.806980724336     1.689675743735     1.007825032230
         H           -3.950546550360     0.678692275664    -1.911252256265     1.007825032230
         H           -4.596118550360     1.044151275664    -0.303710256265     1.007825032230
         H           -3.162546550360     1.900624275664    -0.897971256265     1.007825032230
         H            1.910936449640    -2.199336724336    -0.718970256265     1.007825032230
         H            4.154306449640    -1.091433724336    -0.741131256265     1.007825032230
         H            2.204783449640     2.505516275664     0.608429743735     1.007825032230
         H            4.304044449640     1.325558275664    -0.058179256265     1.007825032230

  Basis Set: AUG-CC-PVTZ
    Blend: AUG-CC-PVTZ
  Basis Set: (AUG-CC-PVTZ AUX)
    Blend: AUG-CC-PVTZ-JKFIT
	 Reference Energy          =    -479.8867038269521572 [Eh]
	 Singles Energy            =      -0.0000000000000000 [Eh]
	 Same-Spin Energy          =      -0.5326042349742804 [Eh]
	 Opposite-Spin Energy      =      -1.7459136058783964 [Eh]
	 Correlation Energy        =      -2.2785178408526767 [Eh]
	 Total Energy              =    -482.1652216678048148 [Eh]

	 ================> DF-SCS-MP2 Energies <==================
	-----------------------------------------------------------
	 SCS Same-Spin Scale       =       0.3333333333333333 [-]
	 SCS Opposite-Spin Scale   =       1.2000000000000000 [-]
	 SCS Same-Spin Energy      =      -0.1775347449914268 [Eh]
	 SCS Opposite-Spin Energy  =      -2.0950963270540757 [Eh]
	 SCS Correlation Energy    =      -2.2726310720455025 [Eh]
	 SCS Total Energy          =    -482.1593348989976562 [Eh]
	-----------------------------------------------------------

  Dipole Moment: [D]
     X:     1.3333      Y:    -1.0681      Z:    -0.5024     Total:     1.7807

*** Psi4 exiting successfully. Buy a developer a beer!
