                               Psi4 1.4a3.dev225

  ==> Input File <==

--------------------------------------------------------------------------
#psi4
#
memory 32 gb

molecule  {
0 1
  N        0.9497266     0.8820675     0.3398348
  C       -2.6935940    -0.1236090    -0.2650160
  C       -0.4170680    -1.0145740    -0.0079460
  C       -1.3683020    -0.3105490    -1.0112920
  C       -2.2166740     0.1783740     1.1559530
  C       -1.0996000    -0.8433070     1.3811970
  C       -3.6002280     0.9375310    -0.8724950
  C        0.9620280    -0.4146880    -0.0398380
  C        2.0893310    -1.1495780    -0.4236340
  C        3.3396130    -0.5322390    -0.4347340
  C        2.2533150     1.4653640     0.3147880
  C        3.4262710     0.8062240    -0.0568370
  H       -3.2284890    -1.0854330    -0.2500270
  H       -0.3333030    -2.0805640    -0.2540920
  H       -0.9618110     0.6780590    -1.2570810
  H       -1.4754410    -0.8694270    -1.9482280
  H       -3.0167220     0.1138590     1.9027270
  H       -1.8007770     1.1928100     1.1867420
  H       -0.3855780    -0.5294870     2.1482020
  H       -1.5277920    -1.8013410     1.6997400
  H       -3.8772320     0.6843320    -1.9011880
  H       -4.5228040     1.0497910    -0.2936460
  H       -3.0892320     1.9062640    -0.8879070
  H        1.9842510    -2.1936970    -0.7089060
  H        4.2276210    -1.0857940    -0.7310670
  H        2.2780980     2.5111560     0.6184940
  H        4.3773590     1.3311980    -0.0481150
units angstrom
no_reorient  #important for SAPT in psi4, default
symmetry c1  #important for SAPT in psi4, default
}

set PROPERTIES_ORIGIN ["COM"]
properties('MP2/aug-cc-pvtz', properties = ['dipole'])
--------------------------------------------------------------------------

    Molecular point group: c1
  Charge       = 0
  Multiplicity = 1
  Basis Set: AUG-CC-PVTZ
    Blend: AUG-CC-PVTZ
  Basis Set: (AUG-CC-PVTZ AUX)
    Blend: AUG-CC-PVTZ-JKFIT

    Orbital Energies [Eh]
    ---------------------

    Doubly Occupied:

       1A    -15.569010     2A    -11.283860     3A    -11.275746
       4A    -11.262098     5A    -11.239539     6A    -11.237165
       7A    -11.223409     8A    -11.213359     9A    -11.209879
      10A    -11.208137    11A    -11.204297    12A    -11.202166
      13A     -1.237226    14A     -1.124892    15A     -1.084508
      16A     -1.040948    17A     -0.990332    18A     -0.953623
      19A     -0.892532    20A     -0.860437    21A     -0.828914
      22A     -0.760254    23A     -0.754034    24A     -0.694969
      25A     -0.666189    26A     -0.641902    27A     -0.636871
      28A     -0.607394    29A     -0.583421    30A     -0.575688
      31A     -0.572964    32A     -0.550478    33A     -0.533559
      34A     -0.522157    35A     -0.507478    36A     -0.472422
      37A     -0.467059    38A     -0.459921    39A     -0.449546
      40A     -0.445600    41A     -0.439188    42A     -0.421737
      43A     -0.372906    44A     -0.334707

  @DF-RHF Final Energy:  -479.88338311955425

   => Energetics <=

    Nuclear Repulsion Energy =            685.2186189769329303
    One-Electron Energy =               -2008.9789583795645740
    Two-Electron Energy =                 843.8769562830773339
    Total Energy =                       -479.8833831195543098
  Basis Set: (AUG-CC-PVTZ AUX)
    Blend: AUG-CC-PVTZ-RI
    Molecular point group: c1

    Geometry (in Angstrom), charge = 0, multiplicity = 1:

       Center              X                  Y                   Z               Mass
    ------------   -----------------  -----------------  -----------------  -----------------
         N            0.887912501990     0.881078330220     0.334183973064    14.003074004430
         C           -2.755408098010    -0.124598169780    -0.270666826936    12.000000000000
         C           -0.478882098010    -1.015563169780    -0.013596826936    12.000000000000
         C           -1.430116098010    -0.311538169780    -1.016942826936    12.000000000000
         C           -2.278488098010     0.177384830220     1.150302173064    12.000000000000
         C           -1.161414098010    -0.844296169780     1.375546173064    12.000000000000
         C           -3.662042098010     0.936541830220    -0.878145826936    12.000000000000
         C            0.900213901990    -0.415677169780    -0.045488826936    12.000000000000
         C            2.027516901990    -1.150567169780    -0.429284826936    12.000000000000
         C            3.277798901990    -0.533228169780    -0.440384826936    12.000000000000
         C            2.191500901990     1.464374830220     0.309137173064    12.000000000000
         C            3.364456901990     0.805234830220    -0.062487826936    12.000000000000
         H           -3.290303098010    -1.086422169780    -0.255677826936     1.007825032230
         H           -0.395117098010    -2.081553169780    -0.259742826936     1.007825032230
         H           -1.023625098010     0.677069830220    -1.262731826936     1.007825032230
         H           -1.537255098010    -0.870416169780    -1.953878826936     1.007825032230
         H           -3.078536098010     0.112869830220     1.897076173064     1.007825032230
         H           -1.862591098010     1.191820830220     1.181091173064     1.007825032230
         H           -0.447392098010    -0.530476169780     2.142551173064     1.007825032230
         H           -1.589606098010    -1.802330169780     1.694089173064     1.007825032230
         H           -3.939046098010     0.683342830220    -1.906838826936     1.007825032230
         H           -4.584618098010     1.048801830220    -0.299296826936     1.007825032230
         H           -3.151046098010     1.905274830220    -0.893557826936     1.007825032230
         H            1.922436901990    -2.194686169780    -0.714556826936     1.007825032230
         H            4.165806901990    -1.086783169780    -0.736717826936     1.007825032230
         H            2.216283901990     2.510166830220     0.612843173064     1.007825032230
         H            4.315544901990     1.330208830220    -0.053765826936     1.007825032230

  Basis Set: AUG-CC-PVTZ
    Blend: AUG-CC-PVTZ
  Basis Set: (AUG-CC-PVTZ AUX)
    Blend: AUG-CC-PVTZ-JKFIT
	 Reference Energy          =    -479.8833831195542530 [Eh]
	 Singles Energy            =      -0.0000000000000000 [Eh]
	 Same-Spin Energy          =      -0.5339538933286301 [Eh]
	 Opposite-Spin Energy      =      -1.7493642325116578 [Eh]
	 Correlation Energy        =      -2.2833181258402879 [Eh]
	 Total Energy              =    -482.1667012453945631 [Eh]

	 ================> DF-SCS-MP2 Energies <==================
	-----------------------------------------------------------
	 SCS Same-Spin Scale       =       0.3333333333333333 [-]
	 SCS Opposite-Spin Scale   =       1.2000000000000000 [-]
	 SCS Same-Spin Energy      =      -0.1779846311095434 [Eh]
	 SCS Opposite-Spin Energy  =      -2.0992370790139891 [Eh]
	 SCS Correlation Energy    =      -2.2772217101235324 [Eh]
	 SCS Total Energy          =    -482.1606048296777658 [Eh]
	-----------------------------------------------------------

  Dipole Moment: [D]
     X:     1.5369      Y:    -1.0731      Z:    -0.5246     Total:     1.9465

*** Psi4 exiting successfully. Buy a developer a beer!
