                               Psi4 1.4a3.dev225

  ==> Input File <==

--------------------------------------------------------------------------
#psi4
#
memory 32 gb

molecule  {
0 1
  N        1.0430420     0.8835120     0.3262100
  C       -2.6935940    -0.1236090    -0.2650160
  C       -0.3697702    -1.0000685     0.0145680
  C       -1.3683020    -0.3105490    -1.0112920
  C       -2.2166740     0.1783740     1.1559530
  C       -1.0996000    -0.8433070     1.3811970
  C       -3.6002280     0.9375310    -0.8724950
  C        0.9620280    -0.4146880    -0.0398380
  C        2.0893310    -1.1495780    -0.4236340
  C        3.3396130    -0.5322390    -0.4347340
  C        2.2533150     1.4653640     0.3147880
  C        3.4262710     0.8062240    -0.0568370
  H       -3.2284890    -1.0854330    -0.2500270
  H       -0.3333030    -2.0805640    -0.2540920
  H       -0.9618110     0.6780590    -1.2570810
  H       -1.4754410    -0.8694270    -1.9482280
  H       -3.0167220     0.1138590     1.9027270
  H       -1.8007770     1.1928100     1.1867420
  H       -0.3855780    -0.5294870     2.1482020
  H       -1.5277920    -1.8013410     1.6997400
  H       -3.8772320     0.6843320    -1.9011880
  H       -4.5228040     1.0497910    -0.2936460
  H       -3.0892320     1.9062640    -0.8879070
  H        1.9842510    -2.1936970    -0.7089060
  H        4.2276210    -1.0857940    -0.7310670
  H        2.2780980     2.5111560     0.6184940
  H        4.3773590     1.3311980    -0.0481150
units angstrom
no_reorient  #important for SAPT in psi4, default
symmetry c1  #important for SAPT in psi4, default
}

set PROPERTIES_ORIGIN ["COM"]
properties('MP2/aug-cc-pvtz', properties = ['dipole'])
--------------------------------------------------------------------------

    Molecular point group: c1
  Charge       = 0
  Multiplicity = 1
  Basis Set: AUG-CC-PVTZ
    Blend: AUG-CC-PVTZ
  Basis Set: (AUG-CC-PVTZ AUX)
    Blend: AUG-CC-PVTZ-JKFIT

    Orbital Energies [Eh]
    ---------------------

    Doubly Occupied:

       1A    -15.557932     2A    -11.274438     3A    -11.273380
       4A    -11.258019     5A    -11.236033     6A    -11.235209
       7A    -11.225876     8A    -11.214915     9A    -11.212203
      10A    -11.211931    11A    -11.205623    12A    -11.204079
      13A     -1.253440    14A     -1.125728    15A     -1.082118
      16A     -1.050806    17A     -0.991084    18A     -0.951943
      19A     -0.895688    20A     -0.856186    21A     -0.838621
      22A     -0.765404    23A     -0.754910    24A     -0.696274
      25A     -0.668707    26A     -0.642237    27A     -0.639168
      28A     -0.607428    29A     -0.584482    30A     -0.577727
      31A     -0.574134    32A     -0.552223    33A     -0.539134
      34A     -0.526951    35A     -0.513160    36A     -0.475209
      37A     -0.467089    38A     -0.460349    39A     -0.451258
      40A     -0.446881    41A     -0.438658    42A     -0.411263
      43A     -0.377119    44A     -0.330558

  @DF-RHF Final Energy:  -479.89329369748566

   => Energetics <=

    Nuclear Repulsion Energy =            686.1523418732538175
    One-Electron Energy =               -2010.7801250479840292
    Two-Electron Energy =                 844.7344894772445514
    Total Energy =                       -479.8932936974856602
  Basis Set: (AUG-CC-PVTZ AUX)
    Blend: AUG-CC-PVTZ-RI
    Molecular point group: c1

    Geometry (in Angstrom), charge = 0, multiplicity = 1:

       Center              X                  Y                   Z               Mass
    ------------   -----------------  -----------------  -----------------  -----------------
         N            0.969595138689     0.881316940831     0.320066504892    14.003074004430
         C           -2.767040861311    -0.125804059169    -0.271159495108    12.000000000000
         C           -0.443217061311    -1.002263559169     0.008424504892    12.000000000000
         C           -1.441748861311    -0.312744059169    -1.017435495108    12.000000000000
         C           -2.290120861311     0.176178940831     1.149809504892    12.000000000000
         C           -1.173046861311    -0.845502059169     1.375053504892    12.000000000000
         C           -3.673674861311     0.935335940831    -0.878638495108    12.000000000000
         C            0.888581138689    -0.416883059169    -0.045981495108    12.000000000000
         C            2.015884138689    -1.151773059169    -0.429777495108    12.000000000000
         C            3.266166138689    -0.534434059169    -0.440877495108    12.000000000000
         C            2.179868138689     1.463168940831     0.308644504892    12.000000000000
         C            3.352824138689     0.804028940831    -0.062980495108    12.000000000000
         H           -3.301935861311    -1.087628059169    -0.256170495108     1.007825032230
         H           -0.406749861311    -2.082759059169    -0.260235495108     1.007825032230
         H           -1.035257861311     0.675863940831    -1.263224495108     1.007825032230
         H           -1.548887861311    -0.871622059169    -1.954371495108     1.007825032230
         H           -3.090168861311     0.111663940831     1.896583504892     1.007825032230
         H           -1.874223861311     1.190614940831     1.180598504892     1.007825032230
         H           -0.459024861311    -0.531682059169     2.142058504892     1.007825032230
         H           -1.601238861311    -1.803536059169     1.693596504892     1.007825032230
         H           -3.950678861311     0.682136940831    -1.907331495108     1.007825032230
         H           -4.596250861311     1.047595940831    -0.299789495108     1.007825032230
         H           -3.162678861311     1.904068940831    -0.894050495108     1.007825032230
         H            1.910804138689    -2.195892059169    -0.715049495108     1.007825032230
         H            4.154174138689    -1.087989059169    -0.737210495108     1.007825032230
         H            2.204651138689     2.508960940831     0.612350504892     1.007825032230
         H            4.303912138689     1.329002940831    -0.054258495108     1.007825032230

  Basis Set: AUG-CC-PVTZ
    Blend: AUG-CC-PVTZ
  Basis Set: (AUG-CC-PVTZ AUX)
    Blend: AUG-CC-PVTZ-JKFIT
	 Reference Energy          =    -479.8932936974856602 [Eh]
	 Singles Energy            =      -0.0000000000000000 [Eh]
	 Same-Spin Energy          =      -0.5331777820720404 [Eh]
	 Opposite-Spin Energy      =      -1.7461699584007357 [Eh]
	 Correlation Energy        =      -2.2793477404727760 [Eh]
	 Total Energy              =    -482.1726414379584185 [Eh]

	 ================> DF-SCS-MP2 Energies <==================
	-----------------------------------------------------------
	 SCS Same-Spin Scale       =       0.3333333333333333 [-]
	 SCS Opposite-Spin Scale   =       1.2000000000000000 [-]
	 SCS Same-Spin Energy      =      -0.1777259273573468 [Eh]
	 SCS Opposite-Spin Energy  =      -2.0954039500808830 [Eh]
	 SCS Correlation Energy    =      -2.2731298774382296 [Eh]
	 SCS Total Energy          =    -482.1664235749238969 [Eh]
	-----------------------------------------------------------

  Dipole Moment: [D]
     X:     1.3010      Y:    -1.0613      Z:    -0.4901     Total:     1.7490

*** Psi4 exiting successfully. Buy a developer a beer!
