                               Psi4 1.4a3.dev225

  ==> Input File <==

--------------------------------------------------------------------------
#psi4
#
memory 32 gb

molecule  {
0 1
  N        1.0430420     0.8835120     0.3262100
  C       -2.6935940    -0.1236090    -0.2650160
  C       -0.4170680    -1.0145740    -0.0079460
  C       -1.3819223    -0.3152295    -1.0338283
  C       -2.2166740     0.1783740     1.1559530
  C       -1.0996000    -0.8433070     1.3811970
  C       -3.6002280     0.9375310    -0.8724950
  C        0.9620280    -0.4146880    -0.0398380
  C        2.0893310    -1.1495780    -0.4236340
  C        3.3396130    -0.5322390    -0.4347340
  C        2.2533150     1.4653640     0.3147880
  C        3.4262710     0.8062240    -0.0568370
  H       -3.2284890    -1.0854330    -0.2500270
  H       -0.3333030    -2.0805640    -0.2540920
  H       -0.9618110     0.6780590    -1.2570810
  H       -1.4754410    -0.8694270    -1.9482280
  H       -3.0167220     0.1138590     1.9027270
  H       -1.8007770     1.1928100     1.1867420
  H       -0.3855780    -0.5294870     2.1482020
  H       -1.5277920    -1.8013410     1.6997400
  H       -3.8772320     0.6843320    -1.9011880
  H       -4.5228040     1.0497910    -0.2936460
  H       -3.0892320     1.9062640    -0.8879070
  H        1.9842510    -2.1936970    -0.7089060
  H        4.2276210    -1.0857940    -0.7310670
  H        2.2780980     2.5111560     0.6184940
  H        4.3773590     1.3311980    -0.0481150
units angstrom
no_reorient  #important for SAPT in psi4, default
symmetry c1  #important for SAPT in psi4, default
}

set PROPERTIES_ORIGIN ["COM"]
properties('MP2/aug-cc-pvtz', properties = ['dipole'])
--------------------------------------------------------------------------

    Molecular point group: c1
  Charge       = 0
  Multiplicity = 1
  Basis Set: AUG-CC-PVTZ
    Blend: AUG-CC-PVTZ
  Basis Set: (AUG-CC-PVTZ AUX)
    Blend: AUG-CC-PVTZ-JKFIT

    Orbital Energies [Eh]
    ---------------------

    Doubly Occupied:

       1A    -15.557842     2A    -11.275192     3A    -11.274214
       4A    -11.257820     5A    -11.235744     6A    -11.234956
       7A    -11.226764     8A    -11.214784     9A    -11.211444
      10A    -11.209366    11A    -11.204929    12A    -11.203993
      13A     -1.251601    14A     -1.125640    15A     -1.081716
      16A     -1.046145    17A     -0.991015    18A     -0.954208
      19A     -0.893880    20A     -0.855012    21A     -0.836671
      22A     -0.764445    23A     -0.755991    24A     -0.696284
      25A     -0.668532    26A     -0.641149    27A     -0.639761
      28A     -0.607218    29A     -0.584423    30A     -0.577329
      31A     -0.573890    32A     -0.552324    33A     -0.538059
      34A     -0.527460    35A     -0.511549    36A     -0.474917
      37A     -0.469522    38A     -0.458967    39A     -0.451768
      40A     -0.446030    41A     -0.440954    42A     -0.409666
      43A     -0.376890    44A     -0.331680

  @DF-RHF Final Energy:  -479.89611807144047

   => Energetics <=

    Nuclear Repulsion Energy =            685.4326080528105649
    One-Electron Energy =               -2009.3739649176352486
    Two-Electron Energy =                 844.0452387933842147
    Total Energy =                       -479.8961180714404691
  Basis Set: (AUG-CC-PVTZ AUX)
    Blend: AUG-CC-PVTZ-RI
    Molecular point group: c1

    Geometry (in Angstrom), charge = 0, multiplicity = 1:

       Center              X                  Y                   Z               Mass
    ------------   -----------------  -----------------  -----------------  -----------------
         N            0.974132223847     0.882745884213     0.323421781033    14.003074004430
         C           -2.762503776153    -0.124375115787    -0.267804218967    12.000000000000
         C           -0.485977776153    -1.015340115787    -0.010734218967    12.000000000000
         C           -1.450832076153    -0.315995615787    -1.036616518967    12.000000000000
         C           -2.285583776153     0.177607884213     1.153164781033    12.000000000000
         C           -1.168509776153    -0.844073115787     1.378408781033    12.000000000000
         C           -3.669137776153     0.936764884213    -0.875283218967    12.000000000000
         C            0.893118223847    -0.415454115787    -0.042626218967    12.000000000000
         C            2.020421223847    -1.150344115787    -0.426422218967    12.000000000000
         C            3.270703223847    -0.533005115787    -0.437522218967    12.000000000000
         C            2.184405223847     1.464597884213     0.311999781033    12.000000000000
         C            3.357361223847     0.805457884213    -0.059625218967    12.000000000000
         H           -3.297398776153    -1.086199115787    -0.252815218967     1.007825032230
         H           -0.402212776153    -2.081330115787    -0.256880218967     1.007825032230
         H           -1.030720776153     0.677292884213    -1.259869218967     1.007825032230
         H           -1.544350776153    -0.870193115787    -1.951016218967     1.007825032230
         H           -3.085631776153     0.113092884213     1.899938781033     1.007825032230
         H           -1.869686776153     1.192043884213     1.183953781033     1.007825032230
         H           -0.454487776153    -0.530253115787     2.145413781033     1.007825032230
         H           -1.596701776153    -1.802107115787     1.696951781033     1.007825032230
         H           -3.946141776153     0.683565884213    -1.903976218967     1.007825032230
         H           -4.591713776153     1.049024884213    -0.296434218967     1.007825032230
         H           -3.158141776153     1.905497884213    -0.890695218967     1.007825032230
         H            1.915341223847    -2.194463115787    -0.711694218967     1.007825032230
         H            4.158711223847    -1.086560115787    -0.733855218967     1.007825032230
         H            2.209188223847     2.510389884213     0.615705781033     1.007825032230
         H            4.308449223847     1.330431884213    -0.050903218967     1.007825032230

  Basis Set: AUG-CC-PVTZ
    Blend: AUG-CC-PVTZ
  Basis Set: (AUG-CC-PVTZ AUX)
    Blend: AUG-CC-PVTZ-JKFIT
	 Reference Energy          =    -479.8961180714404691 [Eh]
	 Singles Energy            =      -0.0000000000000000 [Eh]
	 Same-Spin Energy          =      -0.5326717033857074 [Eh]
	 Opposite-Spin Energy      =      -1.7454889491978156 [Eh]
	 Correlation Energy        =      -2.2781606525835230 [Eh]
	 Total Energy              =    -482.1742787240240204 [Eh]

	 ================> DF-SCS-MP2 Energies <==================
	-----------------------------------------------------------
	 SCS Same-Spin Scale       =       0.3333333333333333 [-]
	 SCS Opposite-Spin Scale   =       1.2000000000000000 [-]
	 SCS Same-Spin Energy      =      -0.1775572344619024 [Eh]
	 SCS Opposite-Spin Energy  =      -2.0945867390373785 [Eh]
	 SCS Correlation Energy    =      -2.2721439734992810 [Eh]
	 SCS Total Energy          =    -482.1682620449397518 [Eh]
	-----------------------------------------------------------

  Dipole Moment: [D]
     X:     1.3232      Y:    -1.0835      Z:    -0.5032     Total:     1.7828

*** Psi4 exiting successfully. Buy a developer a beer!
