                               Psi4 1.4a3.dev225

  ==> Input File <==

--------------------------------------------------------------------------
#psi4
#
memory 32 gb

molecule  {
0 1
  N        1.0430420     0.8835120     0.3262100
  C       -2.6935940    -0.1236090    -0.2650160
  C       -0.4170680    -1.0145740    -0.0079460
  C       -1.3422764    -0.3010187    -0.9655443
  C       -2.2166740     0.1783740     1.1559530
  C       -1.0996000    -0.8433070     1.3811970
  C       -3.6002280     0.9375310    -0.8724950
  C        0.9620280    -0.4146880    -0.0398380
  C        2.0893310    -1.1495780    -0.4236340
  C        3.3396130    -0.5322390    -0.4347340
  C        2.2533150     1.4653640     0.3147880
  C        3.4262710     0.8062240    -0.0568370
  H       -3.2284890    -1.0854330    -0.2500270
  H       -0.3333030    -2.0805640    -0.2540920
  H       -0.9618110     0.6780590    -1.2570810
  H       -1.4754410    -0.8694270    -1.9482280
  H       -3.0167220     0.1138590     1.9027270
  H       -1.8007770     1.1928100     1.1867420
  H       -0.3855780    -0.5294870     2.1482020
  H       -1.5277920    -1.8013410     1.6997400
  H       -3.8772320     0.6843320    -1.9011880
  H       -4.5228040     1.0497910    -0.2936460
  H       -3.0892320     1.9062640    -0.8879070
  H        1.9842510    -2.1936970    -0.7089060
  H        4.2276210    -1.0857940    -0.7310670
  H        2.2780980     2.5111560     0.6184940
  H        4.3773590     1.3311980    -0.0481150
units angstrom
no_reorient  #important for SAPT in psi4, default
symmetry c1  #important for SAPT in psi4, default
}

set PROPERTIES_ORIGIN ["COM"]
properties('MP2/aug-cc-pvtz', properties = ['dipole'])
--------------------------------------------------------------------------

    Molecular point group: c1
  Charge       = 0
  Multiplicity = 1
  Basis Set: AUG-CC-PVTZ
    Blend: AUG-CC-PVTZ
  Basis Set: (AUG-CC-PVTZ AUX)
    Blend: AUG-CC-PVTZ-JKFIT

    Orbital Energies [Eh]
    ---------------------

    Doubly Occupied:

       1A    -15.558381     2A    -11.275668     3A    -11.274665
       4A    -11.258211     5A    -11.236182     6A    -11.235443
       7A    -11.224891     8A    -11.214492     9A    -11.211415
      10A    -11.210977    11A    -11.205939    12A    -11.203294
      13A     -1.252483    14A     -1.131857    15A     -1.082170
      16A     -1.047272    17A     -0.991930    18A     -0.956089
      19A     -0.893718    20A     -0.855626    21A     -0.836977
      22A     -0.764677    23A     -0.754975    24A     -0.697892
      25A     -0.667605    26A     -0.642172    27A     -0.638903
      28A     -0.609764    29A     -0.586601    30A     -0.577407
      31A     -0.574432    32A     -0.551123    33A     -0.538169
      34A     -0.526273    35A     -0.512685    36A     -0.476573
      37A     -0.468799    38A     -0.459895    39A     -0.452843
      40A     -0.448386    41A     -0.434633    42A     -0.410515
      43A     -0.377174    44A     -0.332893

  @DF-RHF Final Energy:  -479.89310380288617

   => Energetics <=

    Nuclear Repulsion Energy =            686.7390708479404111
    One-Electron Energy =               -2011.9402083750080692
    Two-Electron Energy =                 845.3080337241815414
    Total Energy =                       -479.8931038028861167
  Basis Set: (AUG-CC-PVTZ AUX)
    Blend: AUG-CC-PVTZ-RI
    Molecular point group: c1

    Geometry (in Angstrom), charge = 0, multiplicity = 1:

       Center              X                  Y                   Z               Mass
    ------------   -----------------  -----------------  -----------------  -----------------
         N            0.971179458996     0.881687485974     0.318336095122    14.003074004430
         C           -2.765456541004    -0.125433514026    -0.272889904878    12.000000000000
         C           -0.488930541004    -1.016398514026    -0.015819904878    12.000000000000
         C           -1.414138941004    -0.302843214026    -0.973418204878    12.000000000000
         C           -2.288536541004     0.176549485974     1.148079095122    12.000000000000
         C           -1.171462541004    -0.845131514026     1.373323095122    12.000000000000
         C           -3.672090541004     0.935706485974    -0.880368904878    12.000000000000
         C            0.890165458996    -0.416512514026    -0.047711904878    12.000000000000
         C            2.017468458996    -1.151402514026    -0.431507904878    12.000000000000
         C            3.267750458996    -0.534063514026    -0.442607904878    12.000000000000
         C            2.181452458996     1.463539485974     0.306914095122    12.000000000000
         C            3.354408458996     0.804399485974    -0.064710904878    12.000000000000
         H           -3.300351541004    -1.087257514026    -0.257900904878     1.007825032230
         H           -0.405165541004    -2.082388514026    -0.261965904878     1.007825032230
         H           -1.033673541004     0.676234485974    -1.264954904878     1.007825032230
         H           -1.547303541004    -0.871251514026    -1.956101904878     1.007825032230
         H           -3.088584541004     0.112034485974     1.894853095122     1.007825032230
         H           -1.872639541004     1.190985485974     1.178868095122     1.007825032230
         H           -0.457440541004    -0.531311514026     2.140328095122     1.007825032230
         H           -1.599654541004    -1.803165514026     1.691866095122     1.007825032230
         H           -3.949094541004     0.682507485974    -1.909061904878     1.007825032230
         H           -4.594666541004     1.047966485974    -0.301519904878     1.007825032230
         H           -3.161094541004     1.904439485974    -0.895780904878     1.007825032230
         H            1.912388458996    -2.195521514026    -0.716779904878     1.007825032230
         H            4.155758458996    -1.087618514026    -0.738940904878     1.007825032230
         H            2.206235458996     2.509331485974     0.610620095122     1.007825032230
         H            4.305496458996     1.329373485974    -0.055988904878     1.007825032230

  Basis Set: AUG-CC-PVTZ
    Blend: AUG-CC-PVTZ
  Basis Set: (AUG-CC-PVTZ AUX)
    Blend: AUG-CC-PVTZ-JKFIT
	 Reference Energy          =    -479.8931038028861735 [Eh]
	 Singles Energy            =      -0.0000000000000000 [Eh]
	 Same-Spin Energy          =      -0.5331745589278354 [Eh]
	 Opposite-Spin Energy      =      -1.7459520072662678 [Eh]
	 Correlation Energy        =      -2.2791265661941029 [Eh]
	 Total Energy              =    -482.1722303690802960 [Eh]

	 ================> DF-SCS-MP2 Energies <==================
	-----------------------------------------------------------
	 SCS Same-Spin Scale       =       0.3333333333333333 [-]
	 SCS Opposite-Spin Scale   =       1.2000000000000000 [-]
	 SCS Same-Spin Energy      =      -0.1777248529759451 [Eh]
	 SCS Opposite-Spin Energy  =      -2.0951424087195214 [Eh]
	 SCS Correlation Energy    =      -2.2728672616954664 [Eh]
	 SCS Total Energy          =    -482.1659710645816403 [Eh]
	-----------------------------------------------------------

  Dipole Moment: [D]
     X:     1.3467      Y:    -1.0427      Z:    -0.4687     Total:     1.7665

*** Psi4 exiting successfully. Buy a developer a beer!
