                               Psi4 1.4a3.dev225

  ==> Input File <==

--------------------------------------------------------------------------
#psi4
#
memory 32 gb

molecule  {
0 1
  N        1.0430420     0.8835120     0.3262100
  C       -2.6935940    -0.1236090    -0.2650160
  C       -0.4170680    -1.0145740    -0.0079460
  C       -1.3683020    -0.3105490    -1.0112920
  C       -2.2166740     0.1783740     1.1559530
  C       -1.0631062    -0.8766844     1.3885555
  C       -3.6002280     0.9375310    -0.8724950
  C        0.9620280    -0.4146880    -0.0398380
  C        2.0893310    -1.1495780    -0.4236340
  C        3.3396130    -0.5322390    -0.4347340
  C        2.2533150     1.4653640     0.3147880
  C        3.4262710     0.8062240    -0.0568370
  H       -3.2284890    -1.0854330    -0.2500270
  H       -0.3333030    -2.0805640    -0.2540920
  H       -0.9618110     0.6780590    -1.2570810
  H       -1.4754410    -0.8694270    -1.9482280
  H       -3.0167220     0.1138590     1.9027270
  H       -1.8007770     1.1928100     1.1867420
  H       -0.3855780    -0.5294870     2.1482020
  H       -1.5277920    -1.8013410     1.6997400
  H       -3.8772320     0.6843320    -1.9011880
  H       -4.5228040     1.0497910    -0.2936460
  H       -3.0892320     1.9062640    -0.8879070
  H        1.9842510    -2.1936970    -0.7089060
  H        4.2276210    -1.0857940    -0.7310670
  H        2.2780980     2.5111560     0.6184940
  H        4.3773590     1.3311980    -0.0481150
units angstrom
no_reorient  #important for SAPT in psi4, default
symmetry c1  #important for SAPT in psi4, default
}

set PROPERTIES_ORIGIN ["COM"]
properties('MP2/aug-cc-pvtz', properties = ['dipole'])
--------------------------------------------------------------------------

    Molecular point group: c1
  Charge       = 0
  Multiplicity = 1
  Basis Set: AUG-CC-PVTZ
    Blend: AUG-CC-PVTZ
  Basis Set: (AUG-CC-PVTZ AUX)
    Blend: AUG-CC-PVTZ-JKFIT

    Orbital Energies [Eh]
    ---------------------

    Doubly Occupied:

       1A    -15.558006     2A    -11.275349     3A    -11.274378
       4A    -11.257921     5A    -11.235869     6A    -11.235019
       7A    -11.225969     8A    -11.214398     9A    -11.210247
      10A    -11.209917    11A    -11.205628    12A    -11.205238
      13A     -1.251943    14A     -1.124934    15A     -1.081810
      16A     -1.046419    17A     -0.991030    18A     -0.950556
      19A     -0.895026    20A     -0.855235    21A     -0.837986
      22A     -0.766394    23A     -0.754360    24A     -0.697312
      25A     -0.667887    26A     -0.641030    27A     -0.639118
      28A     -0.606989    29A     -0.585746    30A     -0.577425
      31A     -0.573064    32A     -0.552104    33A     -0.537891
      34A     -0.527290    35A     -0.513659    36A     -0.475705
      37A     -0.471221    38A     -0.460389    39A     -0.449915
      40A     -0.447346    41A     -0.434892    42A     -0.409513
      43A     -0.377082    44A     -0.332452

  @DF-RHF Final Energy:  -479.89480939419673

   => Energetics <=

    Nuclear Repulsion Energy =            685.5014303651139471
    One-Electron Energy =               -2009.5091510155257311
    Two-Electron Energy =                 844.1129112562150567
    Total Energy =                       -479.8948093941967272
  Basis Set: (AUG-CC-PVTZ AUX)
    Blend: AUG-CC-PVTZ-RI
    Molecular point group: c1

    Geometry (in Angstrom), charge = 0, multiplicity = 1:

       Center              X                  Y                   Z               Mass
    ------------   -----------------  -----------------  -----------------  -----------------
         N            0.970399803773     0.884883184606     0.321195262915    14.003074004430
         C           -2.766236196227    -0.122237815394    -0.270030737085    12.000000000000
         C           -0.489710196227    -1.013202815394    -0.012960737085    12.000000000000
         C           -1.440944196227    -0.309177815394    -1.016306737085    12.000000000000
         C           -2.289316196227     0.179745184606     1.150938262915    12.000000000000
         C           -1.135748396227    -0.875313215394     1.383540762915    12.000000000000
         C           -3.672870196227     0.938902184606    -0.877509737085    12.000000000000
         C            0.889385803773    -0.413316815394    -0.044852737085    12.000000000000
         C            2.016688803773    -1.148206815394    -0.428648737085    12.000000000000
         C            3.266970803773    -0.530867815394    -0.439748737085    12.000000000000
         C            2.180672803773     1.466735184606     0.309773262915    12.000000000000
         C            3.353628803773     0.807595184606    -0.061851737085    12.000000000000
         H           -3.301131196227    -1.084061815394    -0.255041737085     1.007825032230
         H           -0.405945196227    -2.079192815394    -0.259106737085     1.007825032230
         H           -1.034453196227     0.679430184606    -1.262095737085     1.007825032230
         H           -1.548083196227    -0.868055815394    -1.953242737085     1.007825032230
         H           -3.089364196227     0.115230184606     1.897712262915     1.007825032230
         H           -1.873419196227     1.194181184606     1.181727262915     1.007825032230
         H           -0.458220196227    -0.528115815394     2.143187262915     1.007825032230
         H           -1.600434196227    -1.799969815394     1.694725262915     1.007825032230
         H           -3.949874196227     0.685703184606    -1.906202737085     1.007825032230
         H           -4.595446196227     1.051162184606    -0.298660737085     1.007825032230
         H           -3.161874196227     1.907635184606    -0.892921737085     1.007825032230
         H            1.911608803773    -2.192325815394    -0.713920737085     1.007825032230
         H            4.154978803773    -1.084422815394    -0.736081737085     1.007825032230
         H            2.205455803773     2.512527184606     0.613479262915     1.007825032230
         H            4.304716803773     1.332569184606    -0.053129737085     1.007825032230

  Basis Set: AUG-CC-PVTZ
    Blend: AUG-CC-PVTZ
  Basis Set: (AUG-CC-PVTZ AUX)
    Blend: AUG-CC-PVTZ-JKFIT
	 Reference Energy          =    -479.8948093941967272 [Eh]
	 Singles Energy            =      -0.0000000000000000 [Eh]
	 Same-Spin Energy          =      -0.5326255268538950 [Eh]
	 Opposite-Spin Energy      =      -1.7455783740249060 [Eh]
	 Correlation Energy        =      -2.2782039008788009 [Eh]
	 Total Energy              =    -482.1730132950755205 [Eh]

	 ================> DF-SCS-MP2 Energies <==================
	-----------------------------------------------------------
	 SCS Same-Spin Scale       =       0.3333333333333333 [-]
	 SCS Opposite-Spin Scale   =       1.2000000000000000 [-]
	 SCS Same-Spin Energy      =      -0.1775418422846317 [Eh]
	 SCS Opposite-Spin Energy  =      -2.0946940488298873 [Eh]
	 SCS Correlation Energy    =      -2.2722358911145188 [Eh]
	 SCS Total Energy          =    -482.1670452853112465 [Eh]
	-----------------------------------------------------------

  Dipole Moment: [D]
     X:     1.3362      Y:    -1.0783      Z:    -0.4947     Total:     1.7868

*** Psi4 exiting successfully. Buy a developer a beer!
