                               Psi4 1.4a3.dev225

  ==> Input File <==

--------------------------------------------------------------------------
#psi4
#
memory 32 gb

molecule  {
0 1
  N        1.0430420     0.8835120     0.3262100
  C       -2.6935940    -0.1236090    -0.2650160
  C       -0.4170680    -1.0145740    -0.0079460
  C       -1.3683020    -0.3105490    -1.0112920
  C       -2.2166740     0.1783740     1.1559530
  C       -1.0996000    -0.8433070     1.3811970
  C       -3.6002280     0.9375310    -0.8724950
  C        0.9762335    -0.3951327    -0.0363344
  C        2.0893310    -1.1495780    -0.4236340
  C        3.3396130    -0.5322390    -0.4347340
  C        2.2533150     1.4653640     0.3147880
  C        3.4262710     0.8062240    -0.0568370
  H       -3.2284890    -1.0854330    -0.2500270
  H       -0.3333030    -2.0805640    -0.2540920
  H       -0.9618110     0.6780590    -1.2570810
  H       -1.4754410    -0.8694270    -1.9482280
  H       -3.0167220     0.1138590     1.9027270
  H       -1.8007770     1.1928100     1.1867420
  H       -0.3855780    -0.5294870     2.1482020
  H       -1.5277920    -1.8013410     1.6997400
  H       -3.8772320     0.6843320    -1.9011880
  H       -4.5228040     1.0497910    -0.2936460
  H       -3.0892320     1.9062640    -0.8879070
  H        1.9842510    -2.1936970    -0.7089060
  H        4.2276210    -1.0857940    -0.7310670
  H        2.2780980     2.5111560     0.6184940
  H        4.3773590     1.3311980    -0.0481150
units angstrom
no_reorient  #important for SAPT in psi4, default
symmetry c1  #important for SAPT in psi4, default
}

set PROPERTIES_ORIGIN ["COM"]
properties('MP2/aug-cc-pvtz', properties = ['dipole'])
--------------------------------------------------------------------------

    Molecular point group: c1
  Charge       = 0
  Multiplicity = 1
  Basis Set: AUG-CC-PVTZ
    Blend: AUG-CC-PVTZ
  Basis Set: (AUG-CC-PVTZ AUX)
    Blend: AUG-CC-PVTZ-JKFIT

    Orbital Energies [Eh]
    ---------------------

    Doubly Occupied:

       1A    -15.557382     2A    -11.274823     3A    -11.274177
       4A    -11.258049     5A    -11.236114     6A    -11.235200
       7A    -11.226124     8A    -11.214107     9A    -11.210584
      10A    -11.208899    11A    -11.204900    12A    -11.203270
      13A     -1.257996    14A     -1.126215    15A     -1.083778
      16A     -1.044745    17A     -0.990991    18A     -0.953788
      19A     -0.892307    20A     -0.857183    21A     -0.836727
      22A     -0.763211    23A     -0.754893    24A     -0.697907
      25A     -0.667485    26A     -0.641570    27A     -0.640024
      28A     -0.607387    29A     -0.585037    30A     -0.577223
      31A     -0.574090    32A     -0.551694    33A     -0.539980
      34A     -0.527879    35A     -0.511162    36A     -0.471903
      37A     -0.467927    38A     -0.460412    39A     -0.452042
      40A     -0.446048    41A     -0.439117    42A     -0.409889
      43A     -0.378923    44A     -0.333087

  @DF-RHF Final Energy:  -479.89703702651133

   => Energetics <=

    Nuclear Repulsion Energy =            685.9785584104698728
    One-Electron Energy =               -2010.4586892625179644
    Two-Electron Energy =                 844.5830938255369347
    Total Energy =                       -479.8970370265112706
  Basis Set: (AUG-CC-PVTZ AUX)
    Blend: AUG-CC-PVTZ-RI
    Molecular point group: c1

    Geometry (in Angstrom), charge = 0, multiplicity = 1:

       Center              X                  Y                   Z               Mass
    ------------   -----------------  -----------------  -----------------  -----------------
         N            0.972059801624     0.880940839596     0.321482369860    14.003074004430
         C           -2.764576198376    -0.126180160404    -0.269743630140    12.000000000000
         C           -0.488050198376    -1.017145160404    -0.012673630140    12.000000000000
         C           -1.439284198376    -0.313120160404    -1.016019630140    12.000000000000
         C           -2.287656198376     0.175802839596     1.151225369860    12.000000000000
         C           -1.170582198376    -0.845878160404     1.376469369860    12.000000000000
         C           -3.671210198376     0.934959839596    -0.877222630140    12.000000000000
         C            0.905251301624    -0.397703860404    -0.041062030140    12.000000000000
         C            2.018348801624    -1.152149160404    -0.428361630140    12.000000000000
         C            3.268630801624    -0.534810160404    -0.439461630140    12.000000000000
         C            2.182332801624     1.462792839596     0.310060369860    12.000000000000
         C            3.355288801624     0.803652839596    -0.061564630140    12.000000000000
         H           -3.299471198376    -1.088004160404    -0.254754630140     1.007825032230
         H           -0.404285198376    -2.083135160404    -0.258819630140     1.007825032230
         H           -1.032793198376     0.675487839596    -1.261808630140     1.007825032230
         H           -1.546423198376    -0.871998160404    -1.952955630140     1.007825032230
         H           -3.087704198376     0.111287839596     1.897999369860     1.007825032230
         H           -1.871759198376     1.190238839596     1.182014369860     1.007825032230
         H           -0.456560198376    -0.532058160404     2.143474369860     1.007825032230
         H           -1.598774198376    -1.803912160404     1.695012369860     1.007825032230
         H           -3.948214198376     0.681760839596    -1.905915630140     1.007825032230
         H           -4.593786198376     1.047219839596    -0.298373630140     1.007825032230
         H           -3.160214198376     1.903692839596    -0.892634630140     1.007825032230
         H            1.913268801624    -2.196268160404    -0.713633630140     1.007825032230
         H            4.156638801624    -1.088365160404    -0.735794630140     1.007825032230
         H            2.207115801624     2.508584839596     0.613766369860     1.007825032230
         H            4.306376801624     1.328626839596    -0.052842630140     1.007825032230

  Basis Set: AUG-CC-PVTZ
    Blend: AUG-CC-PVTZ
  Basis Set: (AUG-CC-PVTZ AUX)
    Blend: AUG-CC-PVTZ-JKFIT
	 Reference Energy          =    -479.8970370265113274 [Eh]
	 Singles Energy            =      -0.0000000000000000 [Eh]
	 Same-Spin Energy          =      -0.5324394259771129 [Eh]
	 Opposite-Spin Energy      =      -1.7449291793351533 [Eh]
	 Correlation Energy        =      -2.2773686053122661 [Eh]
	 Total Energy              =    -482.1744056318236176 [Eh]

	 ================> DF-SCS-MP2 Energies <==================
	-----------------------------------------------------------
	 SCS Same-Spin Scale       =       0.3333333333333333 [-]
	 SCS Opposite-Spin Scale   =       1.2000000000000000 [-]
	 SCS Same-Spin Energy      =      -0.1774798086590376 [Eh]
	 SCS Opposite-Spin Energy  =      -2.0939150152021839 [Eh]
	 SCS Correlation Energy    =      -2.2713948238612214 [Eh]
	 SCS Total Energy          =    -482.1684318503725422 [Eh]
	-----------------------------------------------------------

  Dipole Moment: [D]
     X:     1.3972      Y:    -1.0581      Z:    -0.4978     Total:     1.8220

*** Psi4 exiting successfully. Buy a developer a beer!
