                               Psi4 1.4a3.dev225

  ==> Input File <==

--------------------------------------------------------------------------
#psi4
#
memory 32 gb

molecule  {
0 1
  N        1.0430420     0.8835120     0.3262100
  C       -2.6935940    -0.1236090    -0.2650160
  C       -0.4170680    -1.0145740    -0.0079460
  C       -1.3683020    -0.3105490    -1.0112920
  C       -2.2166740     0.1783740     1.1559530
  C       -1.0996000    -0.8433070     1.3811970
  C       -3.6002280     0.9375310    -0.8724950
  C        0.9620280    -0.4146880    -0.0398380
  C        2.0893310    -1.1495780    -0.4236340
  C        3.3396130    -0.5322390    -0.4347340
  C        2.2533150     1.4653640     0.3147880
  C        3.4262710     0.8062240    -0.0568370
  H       -3.2284890    -1.0854330    -0.2500270
  H       -0.3333030    -2.0805640    -0.2540920
  H       -0.9618110     0.6780590    -1.2570810
  H       -1.4754410    -0.8694270    -1.9482280
  H       -3.0167220     0.1138590     1.9027270
  H       -1.8007770     1.1928100     1.1867420
  H       -0.3855780    -0.5294870     2.1482020
  H       -1.5668374    -1.8887008     1.7287868
  H       -3.8772320     0.6843320    -1.9011880
  H       -4.5228040     1.0497910    -0.2936460
  H       -3.0892320     1.9062640    -0.8879070
  H        1.9842510    -2.1936970    -0.7089060
  H        4.2276210    -1.0857940    -0.7310670
  H        2.2780980     2.5111560     0.6184940
  H        4.3773590     1.3311980    -0.0481150
units angstrom
no_reorient  #important for SAPT in psi4, default
symmetry c1  #important for SAPT in psi4, default
}

set PROPERTIES_ORIGIN ["COM"]
properties('MP2/aug-cc-pvtz', properties = ['dipole'])
--------------------------------------------------------------------------

    Molecular point group: c1
  Charge       = 0
  Multiplicity = 1
  Basis Set: AUG-CC-PVTZ
    Blend: AUG-CC-PVTZ
  Basis Set: (AUG-CC-PVTZ AUX)
    Blend: AUG-CC-PVTZ-JKFIT

    Orbital Energies [Eh]
    ---------------------

    Doubly Occupied:

       1A    -15.558693     2A    -11.275941     3A    -11.274854
       4A    -11.258407     5A    -11.236431     6A    -11.235674
       7A    -11.227142     8A    -11.223680     9A    -11.214872
      10A    -11.210178    11A    -11.205510    12A    -11.204912
      13A     -1.252500    14A     -1.127369    15A     -1.082375
      16A     -1.047034    17A     -0.989781    18A     -0.954185
      19A     -0.893465    20A     -0.855702    21A     -0.834980
      22A     -0.760428    23A     -0.755986    24A     -0.697339
      25A     -0.667351    26A     -0.641245    27A     -0.639801
      28A     -0.608508    29A     -0.582561    30A     -0.575554
      31A     -0.572541    32A     -0.551263    33A     -0.538614
      34A     -0.527608    35A     -0.510751    36A     -0.473909
      37A     -0.469285    38A     -0.461677    39A     -0.447600
      40A     -0.445042    41A     -0.440120    42A     -0.410587
      43A     -0.377460    44A     -0.332629

  @DF-RHF Final Energy:  -479.89012700339504

   => Energetics <=

    Nuclear Repulsion Energy =            685.3500954757726049
    One-Electron Energy =               -2009.1773590614964178
    Two-Electron Energy =                 843.9371365823287761
    Total Energy =                       -479.8901270033950368
  Basis Set: (AUG-CC-PVTZ AUX)
    Blend: AUG-CC-PVTZ-RI
    Molecular point group: c1

    Geometry (in Angstrom), charge = 0, multiplicity = 1:

       Center              X                  Y                   Z               Mass
    ------------   -----------------  -----------------  -----------------  -----------------
         N            0.973362038132     0.882943732427     0.321561621797    14.003074004430
         C           -2.763273961868    -0.124177267573    -0.269664378203    12.000000000000
         C           -0.486747961868    -1.015142267573    -0.012594378203    12.000000000000
         C           -1.437981961868    -0.311117267573    -1.015940378203    12.000000000000
         C           -2.286353961868     0.177805732427     1.151304621797    12.000000000000
         C           -1.169279961868    -0.843875267573     1.376548621797    12.000000000000
         C           -3.669907961868     0.936962732427    -0.877143378203    12.000000000000
         C            0.892348038132    -0.415256267573    -0.044486378203    12.000000000000
         C            2.019651038132    -1.150146267573    -0.428282378203    12.000000000000
         C            3.269933038132    -0.532807267573    -0.439382378203    12.000000000000
         C            2.183635038132     1.464795732427     0.310139621797    12.000000000000
         C            3.356591038132     0.805655732427    -0.061485378203    12.000000000000
         H           -3.298168961868    -1.086001267573    -0.254675378203     1.007825032230
         H           -0.402982961868    -2.081132267573    -0.258740378203     1.007825032230
         H           -1.031490961868     0.677490732427    -1.261729378203     1.007825032230
         H           -1.545120961868    -0.869995267573    -1.952876378203     1.007825032230
         H           -3.086401961868     0.113290732427     1.898078621797     1.007825032230
         H           -1.870456961868     1.192241732427     1.182093621797     1.007825032230
         H           -0.455257961868    -0.530055267573     2.143553621797     1.007825032230
         H           -1.636517361868    -1.889269067573     1.724138421797     1.007825032230
         H           -3.946911961868     0.683763732427    -1.905836378203     1.007825032230
         H           -4.592483961868     1.049222732427    -0.298294378203     1.007825032230
         H           -3.158911961868     1.905695732427    -0.892555378203     1.007825032230
         H            1.914571038132    -2.194265267573    -0.713554378203     1.007825032230
         H            4.157941038132    -1.086362267573    -0.735715378203     1.007825032230
         H            2.208418038132     2.510587732427     0.613845621797     1.007825032230
         H            4.307679038132     1.330629732427    -0.052763378203     1.007825032230

  Basis Set: AUG-CC-PVTZ
    Blend: AUG-CC-PVTZ
  Basis Set: (AUG-CC-PVTZ AUX)
    Blend: AUG-CC-PVTZ-JKFIT
	 Reference Energy          =    -479.8901270033950368 [Eh]
	 Singles Energy            =      -0.0000000000000000 [Eh]
	 Same-Spin Energy          =      -0.5328149036737140 [Eh]
	 Opposite-Spin Energy      =      -1.7463361299308406 [Eh]
	 Correlation Energy        =      -2.2791510336045544 [Eh]
	 Total Energy              =    -482.1692780369995717 [Eh]

	 ================> DF-SCS-MP2 Energies <==================
	-----------------------------------------------------------
	 SCS Same-Spin Scale       =       0.3333333333333333 [-]
	 SCS Opposite-Spin Scale   =       1.2000000000000000 [-]
	 SCS Same-Spin Energy      =      -0.1776049678912380 [Eh]
	 SCS Opposite-Spin Energy  =      -2.0956033559170089 [Eh]
	 SCS Correlation Energy    =      -2.2732083238082468 [Eh]
	 SCS Total Energy          =    -482.1633353272032991 [Eh]
	-----------------------------------------------------------

  Dipole Moment: [D]
     X:     1.3710      Y:    -0.9956      Z:    -0.5418     Total:     1.7789

*** Psi4 exiting successfully. Buy a developer a beer!
