                               Psi4 1.4a3.dev225

  ==> Input File <==

--------------------------------------------------------------------------
#psi4
#
memory 32 gb

molecule  {
0 1
  N        1.0430420     0.8835120     0.3262100
  C       -2.6935940    -0.1236090    -0.2650160
  C       -0.3933115    -1.0073462     0.0031011
  C       -1.3683020    -0.3105490    -1.0112920
  C       -2.2166740     0.1783740     1.1559530
  C       -1.0996000    -0.8433070     1.3811970
  C       -3.6002280     0.9375310    -0.8724950
  C        0.9620280    -0.4146880    -0.0398380
  C        2.0893310    -1.1495780    -0.4236340
  C        3.3396130    -0.5322390    -0.4347340
  C        2.2533150     1.4653640     0.3147880
  C        3.4262710     0.8062240    -0.0568370
  H       -3.2284890    -1.0854330    -0.2500270
  H       -0.3333030    -2.0805640    -0.2540920
  H       -0.9618110     0.6780590    -1.2570810
  H       -1.4754410    -0.8694270    -1.9482280
  H       -3.0167220     0.1138590     1.9027270
  H       -1.8007770     1.1928100     1.1867420
  H       -0.3855780    -0.5294870     2.1482020
  H       -1.5277920    -1.8013410     1.6997400
  H       -3.8772320     0.6843320    -1.9011880
  H       -4.5228040     1.0497910    -0.2936460
  H       -3.0892320     1.9062640    -0.8879070
  H        1.9842510    -2.1936970    -0.7089060
  H        4.2276210    -1.0857940    -0.7310670
  H        2.2780980     2.5111560     0.6184940
  H        4.3773590     1.3311980    -0.0481150
units angstrom
no_reorient  #important for SAPT in psi4, default
symmetry c1  #important for SAPT in psi4, default
}

set PROPERTIES_ORIGIN ["COM"]
properties('MP2/aug-cc-pvtz', properties = ['dipole'])
--------------------------------------------------------------------------

    Molecular point group: c1
  Charge       = 0
  Multiplicity = 1
  Basis Set: AUG-CC-PVTZ
    Blend: AUG-CC-PVTZ
  Basis Set: (AUG-CC-PVTZ AUX)
    Blend: AUG-CC-PVTZ-JKFIT

    Orbital Energies [Eh]
    ---------------------

    Doubly Occupied:

       1A    -15.557993     2A    -11.274428     3A    -11.274408
       4A    -11.257998     5A    -11.235979     6A    -11.235177
       7A    -11.225946     8A    -11.214730     9A    -11.211757
      10A    -11.210781    11A    -11.205417    12A    -11.203877
      13A     -1.252643    14A     -1.126549    15A     -1.082005
      16A     -1.048591    17A     -0.991138    18A     -0.953294
      19A     -0.894723    20A     -0.855701    21A     -0.837660
      22A     -0.764884    23A     -0.755231    24A     -0.696579
      25A     -0.668387    26A     -0.641446    27A     -0.639619
      28A     -0.607624    29A     -0.584743    30A     -0.577606
      31A     -0.574106    32A     -0.551983    33A     -0.538587
      34A     -0.527010    35A     -0.512436    36A     -0.473420
      37A     -0.468367    38A     -0.460496    39A     -0.452159
      40A     -0.447397    41A     -0.439225    42A     -0.410769
      43A     -0.377071    44A     -0.331440

  @DF-RHF Final Energy:  -479.89571018433185

   => Energetics <=

    Nuclear Repulsion Energy =            686.0048339438974381
    One-Electron Energy =               -2010.4983303801507191
    Two-Electron Energy =                 844.5977862519214341
    Total Energy =                       -479.8957101843318469
  Basis Set: (AUG-CC-PVTZ AUX)
    Blend: AUG-CC-PVTZ-RI
    Molecular point group: c1

    Geometry (in Angstrom), charge = 0, multiplicity = 1:

       Center              X                  Y                   Z               Mass
    ------------   -----------------  -----------------  -----------------  -----------------
         N            0.971348458028     0.881858972586     0.320920541735    14.003074004430
         C           -2.765287541972    -0.125262027414    -0.270305458265    12.000000000000
         C           -0.465005041972    -1.008999227414    -0.002188358265    12.000000000000
         C           -1.439995541972    -0.312202027414    -1.016581458265    12.000000000000
         C           -2.288367541972     0.176720972586     1.150663541735    12.000000000000
         C           -1.171293541972    -0.844960027414     1.375907541735    12.000000000000
         C           -3.671921541972     0.935877972586    -0.877784458265    12.000000000000
         C            0.890334458028    -0.416341027414    -0.045127458265    12.000000000000
         C            2.017637458028    -1.151231027414    -0.428923458265    12.000000000000
         C            3.267919458028    -0.533892027414    -0.440023458265    12.000000000000
         C            2.181621458028     1.463710972586     0.309498541735    12.000000000000
         C            3.354577458028     0.804570972586    -0.062126458265    12.000000000000
         H           -3.300182541972    -1.087086027414    -0.255316458265     1.007825032230
         H           -0.404996541972    -2.082217027414    -0.259381458265     1.007825032230
         H           -1.033504541972     0.676405972586    -1.262370458265     1.007825032230
         H           -1.547134541972    -0.871080027414    -1.953517458265     1.007825032230
         H           -3.088415541972     0.112205972586     1.897437541735     1.007825032230
         H           -1.872470541972     1.191156972586     1.181452541735     1.007825032230
         H           -0.457271541972    -0.531140027414     2.142912541735     1.007825032230
         H           -1.599485541972    -1.802994027414     1.694450541735     1.007825032230
         H           -3.948925541972     0.682678972586    -1.906477458265     1.007825032230
         H           -4.594497541972     1.048137972586    -0.298935458265     1.007825032230
         H           -3.160925541972     1.904610972586    -0.893196458265     1.007825032230
         H            1.912557458028    -2.195350027414    -0.714195458265     1.007825032230
         H            4.155927458028    -1.087447027414    -0.736356458265     1.007825032230
         H            2.206404458028     2.509502972586     0.613204541735     1.007825032230
         H            4.305665458028     1.329544972586    -0.053404458265     1.007825032230

  Basis Set: AUG-CC-PVTZ
    Blend: AUG-CC-PVTZ
  Basis Set: (AUG-CC-PVTZ AUX)
    Blend: AUG-CC-PVTZ-JKFIT
	 Reference Energy          =    -479.8957101843318469 [Eh]
	 Singles Energy            =      -0.0000000000000000 [Eh]
	 Same-Spin Energy          =      -0.5329420863228875 [Eh]
	 Opposite-Spin Energy      =      -1.7457905744396738 [Eh]
	 Correlation Energy        =      -2.2787326607625613 [Eh]
	 Total Energy              =    -482.1744428450944042 [Eh]

	 ================> DF-SCS-MP2 Energies <==================
	-----------------------------------------------------------
	 SCS Same-Spin Scale       =       0.3333333333333333 [-]
	 SCS Opposite-Spin Scale   =       1.2000000000000000 [-]
	 SCS Same-Spin Energy      =      -0.1776473621076292 [Eh]
	 SCS Opposite-Spin Energy  =      -2.0949486893276084 [Eh]
	 SCS Correlation Energy    =      -2.2725960514352375 [Eh]
	 SCS Total Energy          =    -482.1683062357670906 [Eh]
	-----------------------------------------------------------

  Dipole Moment: [D]
     X:     1.3178      Y:    -1.0662      Z:    -0.4923     Total:     1.7651

*** Psi4 exiting successfully. Buy a developer a beer!
