                               Psi4 1.4a3.dev225

  ==> Input File <==

--------------------------------------------------------------------------
#psi4
#
memory 32 gb

molecule  {
0 1
  N        1.0430420     0.8835120     0.3262100
  C       -2.6935940    -0.1236090    -0.2650160
  C       -0.4170680    -1.0145740    -0.0079460
  C       -1.3683020    -0.3105490    -1.0112920
  C       -2.2166740     0.1783740     1.1559530
  C       -1.0996000    -0.8433070     1.3811970
  C       -3.6002280     0.9375310    -0.8724950
  C        0.9620280    -0.4146880    -0.0398380
  C        2.0893310    -1.1495780    -0.4236340
  C        3.3396130    -0.5322390    -0.4347340
  C        2.2533150     1.4653640     0.3147880
  C        3.4262710     0.8062240    -0.0568370
  H       -3.2284890    -1.0854330    -0.2500270
  H       -0.3333030    -2.0805640    -0.2540920
  H       -0.9618110     0.6780590    -1.2570810
  H       -1.4754410    -0.8694270    -1.9482280
  H       -3.0167220     0.1138590     1.9027270
  H       -1.8007770     1.1928100     1.1867420
  H       -0.3855780    -0.5294870     2.1482020
  H       -1.5277920    -1.8013410     1.6997400
  H       -3.8772320     0.6843320    -1.9011880
  H       -4.5228040     1.0497910    -0.2936460
  H       -2.9959295     2.0831445    -0.8907211
  H        1.9842510    -2.1936970    -0.7089060
  H        4.2276210    -1.0857940    -0.7310670
  H        2.2780980     2.5111560     0.6184940
  H        4.3773590     1.3311980    -0.0481150
units angstrom
no_reorient  #important for SAPT in psi4, default
symmetry c1  #important for SAPT in psi4, default
}

set PROPERTIES_ORIGIN ["COM"]
properties('MP2/aug-cc-pvtz', properties = ['dipole'])
--------------------------------------------------------------------------

    Molecular point group: c1
  Charge       = 0
  Multiplicity = 1
  Basis Set: AUG-CC-PVTZ
    Blend: AUG-CC-PVTZ
  Basis Set: (AUG-CC-PVTZ AUX)
    Blend: AUG-CC-PVTZ-JKFIT

    Orbital Energies [Eh]
    ---------------------

    Doubly Occupied:

       1A    -15.558006     2A    -11.275409     3A    -11.274324
       4A    -11.257961     5A    -11.235898     6A    -11.235182
       7A    -11.228858     8A    -11.226473     9A    -11.217533
      10A    -11.211794    11A    -11.210121    12A    -11.204196
      13A     -1.251885    14A     -1.127933    15A     -1.081877
      16A     -1.046069    17A     -0.988323    18A     -0.955189
      19A     -0.887526    20A     -0.855035    21A     -0.836136
      22A     -0.764559    23A     -0.752628    24A     -0.696787
      25A     -0.668126    26A     -0.640745    27A     -0.639105
      28A     -0.608436    29A     -0.581254    30A     -0.578478
      31A     -0.574431    32A     -0.554367    33A     -0.536776
      34A     -0.524967    35A     -0.486969    36A     -0.473601
      37A     -0.469368    38A     -0.463296    39A     -0.452938
      40A     -0.442402    41A     -0.440417    42A     -0.410109
      43A     -0.376994    44A     -0.332209

  @DF-RHF Final Energy:  -479.87696667598232

   => Energetics <=

    Nuclear Repulsion Energy =            685.1649755977528002
    One-Electron Energy =               -2008.8145098783732010
    Two-Electron Energy =                 843.7725676046380840
    Total Energy =                       -479.8769666759823167
  Basis Set: (AUG-CC-PVTZ AUX)
    Blend: AUG-CC-PVTZ-RI
    Molecular point group: c1

    Geometry (in Angstrom), charge = 0, multiplicity = 1:

       Center              X                  Y                   Z               Mass
    ------------   -----------------  -----------------  -----------------  -----------------
         N            0.972534188365     0.881290882093     0.321760915014    14.003074004430
         C           -2.764101811635    -0.125830117907    -0.269465084986    12.000000000000
         C           -0.487575811635    -1.016795117907    -0.012395084986    12.000000000000
         C           -1.438809811635    -0.312770117907    -1.015741084986    12.000000000000
         C           -2.287181811635     0.176152882093     1.151503915014    12.000000000000
         C           -1.170107811635    -0.845528117907     1.376747915014    12.000000000000
         C           -3.670735811635     0.935309882093    -0.876944084986    12.000000000000
         C            0.891520188365    -0.416909117907    -0.044287084986    12.000000000000
         C            2.018823188365    -1.151799117907    -0.428083084986    12.000000000000
         C            3.269105188365    -0.534460117907    -0.439183084986    12.000000000000
         C            2.182807188365     1.463142882093     0.310338915014    12.000000000000
         C            3.355763188365     0.804002882093    -0.061286084986    12.000000000000
         H           -3.298996811635    -1.087654117907    -0.254476084986     1.007825032230
         H           -0.403810811635    -2.082785117907    -0.258541084986     1.007825032230
         H           -1.032318811635     0.675837882093    -1.261530084986     1.007825032230
         H           -1.545948811635    -0.871648117907    -1.952677084986     1.007825032230
         H           -3.087229811635     0.111637882093     1.898277915014     1.007825032230
         H           -1.871284811635     1.190588882093     1.182292915014     1.007825032230
         H           -0.456085811635    -0.531708117907     2.143752915014     1.007825032230
         H           -1.598299811635    -1.803562117907     1.695290915014     1.007825032230
         H           -3.947739811635     0.682110882093    -1.905637084986     1.007825032230
         H           -4.593311811635     1.047569882093    -0.298095084986     1.007825032230
         H           -3.066437311635     2.080923382093    -0.895170184986     1.007825032230
         H            1.913743188365    -2.195918117907    -0.713355084986     1.007825032230
         H            4.157113188365    -1.088015117907    -0.735516084986     1.007825032230
         H            2.207590188365     2.508934882093     0.614044915014     1.007825032230
         H            4.306851188365     1.328976882093    -0.052564084986     1.007825032230

  Basis Set: AUG-CC-PVTZ
    Blend: AUG-CC-PVTZ
  Basis Set: (AUG-CC-PVTZ AUX)
    Blend: AUG-CC-PVTZ-JKFIT
	 Reference Energy          =    -479.8769666759823167 [Eh]
	 Singles Energy            =      -0.0000000000000000 [Eh]
	 Same-Spin Energy          =      -0.5327923894386094 [Eh]
	 Opposite-Spin Energy      =      -1.7470779461635437 [Eh]
	 Correlation Energy        =      -2.2798703356021530 [Eh]
	 Total Energy              =    -482.1568370115844573 [Eh]

	 ================> DF-SCS-MP2 Energies <==================
	-----------------------------------------------------------
	 SCS Same-Spin Scale       =       0.3333333333333333 [-]
	 SCS Opposite-Spin Scale   =       1.2000000000000000 [-]
	 SCS Same-Spin Energy      =      -0.1775974631462031 [Eh]
	 SCS Opposite-Spin Energy  =      -2.0964935353962524 [Eh]
	 SCS Correlation Energy    =      -2.2740909985424556 [Eh]
	 SCS Total Energy          =    -482.1510576745247931 [Eh]
	-----------------------------------------------------------

  Dipole Moment: [D]
     X:     1.3010      Y:    -1.2148      Z:    -0.4738     Total:     1.8420

*** Psi4 exiting successfully. Buy a developer a beer!
