                               Psi4 1.4a3.dev225

  ==> Input File <==

--------------------------------------------------------------------------
#psi4
#
memory 32 gb

molecule  {
0 1
  N        1.0430420     0.8835120     0.3262100
  C       -2.5427396    -0.0981997    -0.3120346
  C       -0.4170680    -1.0145740    -0.0079460
  C       -1.3683020    -0.3105490    -1.0112920
  C       -2.2166740     0.1783740     1.1559530
  C       -1.0996000    -0.8433070     1.3811970
  C       -3.6002280     0.9375310    -0.8724950
  C        0.9620280    -0.4146880    -0.0398380
  C        2.0893310    -1.1495780    -0.4236340
  C        3.3396130    -0.5322390    -0.4347340
  C        2.2533150     1.4653640     0.3147880
  C        3.4262710     0.8062240    -0.0568370
  H       -3.2284890    -1.0854330    -0.2500270
  H       -0.3333030    -2.0805640    -0.2540920
  H       -0.9618110     0.6780590    -1.2570810
  H       -1.4754410    -0.8694270    -1.9482280
  H       -3.0167220     0.1138590     1.9027270
  H       -1.8007770     1.1928100     1.1867420
  H       -0.3855780    -0.5294870     2.1482020
  H       -1.5277920    -1.8013410     1.6997400
  H       -3.8772320     0.6843320    -1.9011880
  H       -4.5228040     1.0497910    -0.2936460
  H       -3.0892320     1.9062640    -0.8879070
  H        1.9842510    -2.1936970    -0.7089060
  H        4.2276210    -1.0857940    -0.7310670
  H        2.2780980     2.5111560     0.6184940
  H        4.3773590     1.3311980    -0.0481150
units angstrom
no_reorient  #important for SAPT in psi4, default
symmetry c1  #important for SAPT in psi4, default
}

set PROPERTIES_ORIGIN ["COM"]
properties('MP2/aug-cc-pvtz', properties = ['dipole'])
--------------------------------------------------------------------------

    Molecular point group: c1
  Charge       = 0
  Multiplicity = 1
  Basis Set: AUG-CC-PVTZ
    Blend: AUG-CC-PVTZ
  Basis Set: (AUG-CC-PVTZ AUX)
    Blend: AUG-CC-PVTZ-JKFIT

    Orbital Energies [Eh]
    ---------------------

    Doubly Occupied:

       1A    -15.558776     2A    -11.276216     3A    -11.275032
       4A    -11.258618     5A    -11.236590     6A    -11.235903
       7A    -11.228191     8A    -11.220238     9A    -11.211131
      10A    -11.207957    11A    -11.204940    12A    -11.204743
      13A     -1.252839    14A     -1.143941    15A     -1.082683
      16A     -1.047039    17A     -0.989043    18A     -0.963079
      19A     -0.900500    20A     -0.855798    21A     -0.836727
      22A     -0.770160    23A     -0.742780    24A     -0.698886
      25A     -0.672165    26A     -0.645896    27A     -0.642315
      28A     -0.610960    29A     -0.582124    30A     -0.579216
      31A     -0.574664    32A     -0.551329    33A     -0.536818
      34A     -0.528489    35A     -0.511019    36A     -0.501073
      37A     -0.472416    38A     -0.468064    39A     -0.453890
      40A     -0.433076    41A     -0.418053    42A     -0.404396
      43A     -0.377307    44A     -0.333045

  @DF-RHF Final Energy:  -479.86655992616232

   => Energetics <=

    Nuclear Repulsion Energy =            688.0570175941953721
    One-Electron Energy =               -2014.4509077285672447
    Two-Electron Energy =                 846.5273302082093778
    Total Energy =                       -479.8665599261623811
  Basis Set: (AUG-CC-PVTZ AUX)
    Blend: AUG-CC-PVTZ-RI
    Molecular point group: c1

    Geometry (in Angstrom), charge = 0, multiplicity = 1:

       Center              X                  Y                   Z               Mass
    ------------   -----------------  -----------------  -----------------  -----------------
         N            0.961882404495     0.880504842798     0.325245184586    14.003074004430
         C           -2.623899195505    -0.101206857202    -0.312999415414    12.000000000000
         C           -0.498227595505    -1.017581157202    -0.008910815414    12.000000000000
         C           -1.449461595505    -0.313556157202    -1.012256815414    12.000000000000
         C           -2.297833595505     0.175366842798     1.154988184586    12.000000000000
         C           -1.180759595505    -0.846314157202     1.380232184586    12.000000000000
         C           -3.681387595505     0.934523842798    -0.873459815414    12.000000000000
         C            0.880868404495    -0.417695157202    -0.040802815414    12.000000000000
         C            2.008171404495    -1.152585157202    -0.424598815414    12.000000000000
         C            3.258453404495    -0.535246157202    -0.435698815414    12.000000000000
         C            2.172155404495     1.462356842798     0.313823184586    12.000000000000
         C            3.345111404495     0.803216842798    -0.057801815414    12.000000000000
         H           -3.309648595505    -1.088440157202    -0.250991815414     1.007825032230
         H           -0.414462595505    -2.083571157202    -0.255056815414     1.007825032230
         H           -1.042970595505     0.675051842798    -1.258045815414     1.007825032230
         H           -1.556600595505    -0.872434157202    -1.949192815414     1.007825032230
         H           -3.097881595505     0.110851842798     1.901762184586     1.007825032230
         H           -1.881936595505     1.189802842798     1.185777184586     1.007825032230
         H           -0.466737595505    -0.532494157202     2.147237184586     1.007825032230
         H           -1.608951595505    -1.804348157202     1.698775184586     1.007825032230
         H           -3.958391595505     0.681324842798    -1.902152815414     1.007825032230
         H           -4.603963595505     1.046783842798    -0.294610815414     1.007825032230
         H           -3.170391595505     1.903256842798    -0.888871815414     1.007825032230
         H            1.903091404495    -2.196704157202    -0.709870815414     1.007825032230
         H            4.146461404495    -1.088801157202    -0.732031815414     1.007825032230
         H            2.196938404495     2.508148842798     0.617529184586     1.007825032230
         H            4.296199404495     1.328190842798    -0.049079815414     1.007825032230

  Basis Set: AUG-CC-PVTZ
    Blend: AUG-CC-PVTZ
  Basis Set: (AUG-CC-PVTZ AUX)
    Blend: AUG-CC-PVTZ-JKFIT
	 Reference Energy          =    -479.8665599261623242 [Eh]
	 Singles Energy            =      -0.0000000000000000 [Eh]
	 Same-Spin Energy          =      -0.5343954382418933 [Eh]
	 Opposite-Spin Energy      =      -1.7478964873485516 [Eh]
	 Correlation Energy        =      -2.2822919255904450 [Eh]
	 Total Energy              =    -482.1488518517527950 [Eh]

	 ================> DF-SCS-MP2 Energies <==================
	-----------------------------------------------------------
	 SCS Same-Spin Scale       =       0.3333333333333333 [-]
	 SCS Opposite-Spin Scale   =       1.2000000000000000 [-]
	 SCS Same-Spin Energy      =      -0.1781318127472978 [Eh]
	 SCS Opposite-Spin Energy  =      -2.0974757848182617 [Eh]
	 SCS Correlation Energy    =      -2.2756075975655596 [Eh]
	 SCS Total Energy          =    -482.1421675237278919 [Eh]
	-----------------------------------------------------------

  Dipole Moment: [D]
     X:     1.4710      Y:    -1.0353      Z:    -0.4793     Total:     1.8615

*** Psi4 exiting successfully. Buy a developer a beer!
