                               Psi4 1.4a3.dev225

  ==> Input File <==

--------------------------------------------------------------------------
#psi4
#
memory 32 gb

molecule  {
0 1
  N        1.0430420     0.8835120     0.3262100
  C       -2.6935940    -0.1236090    -0.2650160
  C       -0.4170680    -1.0145740    -0.0079460
  C       -1.3683020    -0.3105490    -1.0112920
  C       -2.2166740     0.1783740     1.1559530
  C       -1.0996000    -0.8433070     1.3811970
  C       -3.6002280     0.9375310    -0.8724950
  C        1.0208664    -0.3378692    -0.0265357
  C        2.0893310    -1.1495780    -0.4236340
  C        3.3396130    -0.5322390    -0.4347340
  C        2.2533150     1.4653640     0.3147880
  C        3.4262710     0.8062240    -0.0568370
  H       -3.2284890    -1.0854330    -0.2500270
  H       -0.3333030    -2.0805640    -0.2540920
  H       -0.9618110     0.6780590    -1.2570810
  H       -1.4754410    -0.8694270    -1.9482280
  H       -3.0167220     0.1138590     1.9027270
  H       -1.8007770     1.1928100     1.1867420
  H       -0.3855780    -0.5294870     2.1482020
  H       -1.5277920    -1.8013410     1.6997400
  H       -3.8772320     0.6843320    -1.9011880
  H       -4.5228040     1.0497910    -0.2936460
  H       -3.0892320     1.9062640    -0.8879070
  H        1.9842510    -2.1936970    -0.7089060
  H        4.2276210    -1.0857940    -0.7310670
  H        2.2780980     2.5111560     0.6184940
  H        4.3773590     1.3311980    -0.0481150
units angstrom
no_reorient  #important for SAPT in psi4, default
symmetry c1  #important for SAPT in psi4, default
}

set PROPERTIES_ORIGIN ["COM"]
properties('MP2/aug-cc-pvtz', properties = ['dipole'])
--------------------------------------------------------------------------

    Molecular point group: c1
  Charge       = 0
  Multiplicity = 1
  Basis Set: AUG-CC-PVTZ
    Blend: AUG-CC-PVTZ
  Basis Set: (AUG-CC-PVTZ AUX)
    Blend: AUG-CC-PVTZ-JKFIT

    Orbital Energies [Eh]
    ---------------------

    Doubly Occupied:

       1A    -15.555367     2A    -11.276380     3A    -11.270965
       4A    -11.258481     5A    -11.237007     6A    -11.236002
       7A    -11.225218     8A    -11.212588     9A    -11.208177
      10A    -11.206501    11A    -11.203840    12A    -11.201929
      13A     -1.278551    14A     -1.122452    15A     -1.089973
      16A     -1.040155    17A     -0.990082    18A     -0.950734
      19A     -0.888037    20A     -0.864246    21A     -0.835637
      22A     -0.759862    23A     -0.752507    24A     -0.701871
      25A     -0.666245    26A     -0.645336    27A     -0.638744
      28A     -0.605412    29A     -0.585191    30A     -0.577015
      31A     -0.573810    32A     -0.552330    33A     -0.546250
      34A     -0.529507    35A     -0.509078    36A     -0.469671
      37A     -0.464943    38A     -0.458634    39A     -0.451047
      40A     -0.443848    41A     -0.437852    42A     -0.402844
      43A     -0.385615    44A     -0.335455

  @DF-RHF Final Energy:  -479.88907597294792

   => Energetics <=

    Nuclear Repulsion Energy =            686.3569476765776471
    One-Electron Energy =               -2011.2012656077333759
    Two-Electron Energy =                 844.9552419582078073
    Total Energy =                       -479.8890759729479214
  Basis Set: (AUG-CC-PVTZ AUX)
    Blend: AUG-CC-PVTZ-RI
    Molecular point group: c1

    Geometry (in Angstrom), charge = 0, multiplicity = 1:

       Center              X                  Y                   Z               Mass
    ------------   -----------------  -----------------  -----------------  -----------------
         N            0.968735612785     0.876675943351     0.320752577953    14.003074004430
         C           -2.767900387215    -0.130445056649    -0.270473422047    12.000000000000
         C           -0.491374387215    -1.021410056649    -0.013403422047    12.000000000000
         C           -1.442608387215    -0.317385056649    -1.016749422047    12.000000000000
         C           -2.290980387215     0.171537943351     1.150495577953    12.000000000000
         C           -1.173906387215    -0.850143056649     1.375739577953    12.000000000000
         C           -3.674534387215     0.930694943351    -0.877952422047    12.000000000000
         C            0.946560012785    -0.344705256649    -0.031993122047    12.000000000000
         C            2.015024612785    -1.156414056649    -0.429091422047    12.000000000000
         C            3.265306612785    -0.539075056649    -0.440191422047    12.000000000000
         C            2.179008612785     1.458527943351     0.309330577953    12.000000000000
         C            3.351964612785     0.799387943351    -0.062294422047    12.000000000000
         H           -3.302795387215    -1.092269056649    -0.255484422047     1.007825032230
         H           -0.407609387215    -2.087400056649    -0.259549422047     1.007825032230
         H           -1.036117387215     0.671222943351    -1.262538422047     1.007825032230
         H           -1.549747387215    -0.876263056649    -1.953685422047     1.007825032230
         H           -3.091028387215     0.107022943351     1.897269577953     1.007825032230
         H           -1.875083387215     1.185973943351     1.181284577953     1.007825032230
         H           -0.459884387215    -0.536323056649     2.142744577953     1.007825032230
         H           -1.602098387215    -1.808177056649     1.694282577953     1.007825032230
         H           -3.951538387215     0.677495943351    -1.906645422047     1.007825032230
         H           -4.597110387215     1.042954943351    -0.299103422047     1.007825032230
         H           -3.163538387215     1.899427943351    -0.893364422047     1.007825032230
         H            1.909944612785    -2.200533056649    -0.714363422047     1.007825032230
         H            4.153314612785    -1.092630056649    -0.736524422047     1.007825032230
         H            2.203791612785     2.504319943351     0.613036577953     1.007825032230
         H            4.303052612785     1.324361943351    -0.053572422047     1.007825032230

  Basis Set: AUG-CC-PVTZ
    Blend: AUG-CC-PVTZ
  Basis Set: (AUG-CC-PVTZ AUX)
    Blend: AUG-CC-PVTZ-JKFIT
	 Reference Energy          =    -479.8890759729479214 [Eh]
	 Singles Energy            =      -0.0000000000000000 [Eh]
	 Same-Spin Energy          =      -0.5316557912615157 [Eh]
	 Opposite-Spin Energy      =      -1.7437640562386574 [Eh]
	 Correlation Energy        =      -2.2754198475001730 [Eh]
	 Total Energy              =    -482.1644958204481100 [Eh]

	 ================> DF-SCS-MP2 Energies <==================
	-----------------------------------------------------------
	 SCS Same-Spin Scale       =       0.3333333333333333 [-]
	 SCS Opposite-Spin Scale   =       1.2000000000000000 [-]
	 SCS Same-Spin Energy      =      -0.1772185970871719 [Eh]
	 SCS Opposite-Spin Energy  =      -2.0925168674863888 [Eh]
	 SCS Correlation Energy    =      -2.2697354645735608 [Eh]
	 SCS Total Energy          =    -482.1588114375214786 [Eh]
	-----------------------------------------------------------

  Dipole Moment: [D]
     X:     1.6042      Y:    -1.0122      Z:    -0.5052     Total:     1.9629

*** Psi4 exiting successfully. Buy a developer a beer!
