                               Psi4 1.4a3.dev225

  ==> Input File <==

--------------------------------------------------------------------------
#psi4
#
memory 32 gb

molecule  {
0 1
  N        1.0430420     0.8835120     0.3262100
  C       -2.6935940    -0.1236090    -0.2650160
  C       -0.4170680    -1.0145740    -0.0079460
  C       -1.3683020    -0.3105490    -1.0112920
  C       -2.2166740     0.1783740     1.1559530
  C       -1.1141975    -0.8299560     1.3782536
  C       -3.6002280     0.9375310    -0.8724950
  C        0.9620280    -0.4146880    -0.0398380
  C        2.0893310    -1.1495780    -0.4236340
  C        3.3396130    -0.5322390    -0.4347340
  C        2.2533150     1.4653640     0.3147880
  C        3.4262710     0.8062240    -0.0568370
  H       -3.2284890    -1.0854330    -0.2500270
  H       -0.3333030    -2.0805640    -0.2540920
  H       -0.9618110     0.6780590    -1.2570810
  H       -1.4754410    -0.8694270    -1.9482280
  H       -3.0167220     0.1138590     1.9027270
  H       -1.8007770     1.1928100     1.1867420
  H       -0.3855780    -0.5294870     2.1482020
  H       -1.5277920    -1.8013410     1.6997400
  H       -3.8772320     0.6843320    -1.9011880
  H       -4.5228040     1.0497910    -0.2936460
  H       -3.0892320     1.9062640    -0.8879070
  H        1.9842510    -2.1936970    -0.7089060
  H        4.2276210    -1.0857940    -0.7310670
  H        2.2780980     2.5111560     0.6184940
  H        4.3773590     1.3311980    -0.0481150
units angstrom
no_reorient  #important for SAPT in psi4, default
symmetry c1  #important for SAPT in psi4, default
}

set PROPERTIES_ORIGIN ["COM"]
properties('MP2/aug-cc-pvtz', properties = ['dipole'])
--------------------------------------------------------------------------

    Molecular point group: c1
  Charge       = 0
  Multiplicity = 1
  Basis Set: AUG-CC-PVTZ
    Blend: AUG-CC-PVTZ
  Basis Set: (AUG-CC-PVTZ AUX)
    Blend: AUG-CC-PVTZ-JKFIT

    Orbital Energies [Eh]
    ---------------------

    Doubly Occupied:

       1A    -15.558010     2A    -11.275327     3A    -11.274346
       4A    -11.257952     5A    -11.235886     6A    -11.235145
       7A    -11.226268     8A    -11.214721     9A    -11.212024
      10A    -11.209646    11A    -11.205265    12A    -11.202893
      13A     -1.251843    14A     -1.128769    15A     -1.081878
      16A     -1.046537    17A     -0.991423    18A     -0.956583
      19A     -0.893260    20A     -0.855188    21A     -0.836188
      22A     -0.763574    23A     -0.756189    24A     -0.696584
      25A     -0.668212    26A     -0.640988    27A     -0.640082
      28A     -0.608572    29A     -0.584695    30A     -0.577624
      31A     -0.574475    32A     -0.551710    33A     -0.538169
      34A     -0.527027    35A     -0.511127    36A     -0.474888
      37A     -0.466821    38A     -0.462127    39A     -0.452420
      40A     -0.446943    41A     -0.439884    42A     -0.410101
      43A     -0.376944    44A     -0.331960

  @DF-RHF Final Energy:  -479.89605204623928

   => Energetics <=

    Nuclear Repulsion Energy =            686.0111846500813044
    One-Electron Energy =               -2010.5139368161142102
    Two-Electron Energy =                 844.6067001197936861
    Total Energy =                       -479.8960520462392196
  Basis Set: (AUG-CC-PVTZ AUX)
    Blend: AUG-CC-PVTZ-RI
    Molecular point group: c1

    Geometry (in Angstrom), charge = 0, multiplicity = 1:

       Center              X                  Y                   Z               Mass
    ------------   -----------------  -----------------  -----------------  -----------------
         N            0.974205004180     0.881402926192     0.321962532373    14.003074004430
         C           -2.762430995820    -0.125718073808    -0.269263467627    12.000000000000
         C           -0.485904995820    -1.016683073808    -0.012193467627    12.000000000000
         C           -1.437138995820    -0.312658073808    -1.015539467627    12.000000000000
         C           -2.285510995820     0.176264926192     1.151705532373    12.000000000000
         C           -1.183034495820    -0.832065073808     1.374006132373    12.000000000000
         C           -3.669064995820     0.935421926192    -0.876742467627    12.000000000000
         C            0.893191004180    -0.416797073808    -0.044085467627    12.000000000000
         C            2.020494004180    -1.151687073808    -0.427881467627    12.000000000000
         C            3.270776004180    -0.534348073808    -0.438981467627    12.000000000000
         C            2.184478004180     1.463254926192     0.310540532373    12.000000000000
         C            3.357434004180     0.804114926192    -0.061084467627    12.000000000000
         H           -3.297325995820    -1.087542073808    -0.254274467627     1.007825032230
         H           -0.402139995820    -2.082673073808    -0.258339467627     1.007825032230
         H           -1.030647995820     0.675949926192    -1.261328467627     1.007825032230
         H           -1.544277995820    -0.871536073808    -1.952475467627     1.007825032230
         H           -3.085558995820     0.111749926192     1.898479532373     1.007825032230
         H           -1.869613995820     1.190700926192     1.182494532373     1.007825032230
         H           -0.454414995820    -0.531596073808     2.143954532373     1.007825032230
         H           -1.596628995820    -1.803450073808     1.695492532373     1.007825032230
         H           -3.946068995820     0.682222926192    -1.905435467627     1.007825032230
         H           -4.591640995820     1.047681926192    -0.297893467627     1.007825032230
         H           -3.158068995820     1.904154926192    -0.892154467627     1.007825032230
         H            1.915414004180    -2.195806073808    -0.713153467627     1.007825032230
         H            4.158784004180    -1.087903073808    -0.735314467627     1.007825032230
         H            2.209261004180     2.509046926192     0.614246532373     1.007825032230
         H            4.308522004180     1.329088926192    -0.052362467627     1.007825032230

  Basis Set: AUG-CC-PVTZ
    Blend: AUG-CC-PVTZ
  Basis Set: (AUG-CC-PVTZ AUX)
    Blend: AUG-CC-PVTZ-JKFIT
	 Reference Energy          =    -479.8960520462392765 [Eh]
	 Singles Energy            =      -0.0000000000000000 [Eh]
	 Same-Spin Energy          =      -0.5329128161767975 [Eh]
	 Opposite-Spin Energy      =      -1.7456361083888055 [Eh]
	 Correlation Energy        =      -2.2785489245656030 [Eh]
	 Total Energy              =    -482.1746009708048746 [Eh]

	 ================> DF-SCS-MP2 Energies <==================
	-----------------------------------------------------------
	 SCS Same-Spin Scale       =       0.3333333333333333 [-]
	 SCS Opposite-Spin Scale   =       1.2000000000000000 [-]
	 SCS Same-Spin Energy      =      -0.1776376053922658 [Eh]
	 SCS Opposite-Spin Energy  =      -2.0947633300665665 [Eh]
	 SCS Correlation Energy    =      -2.2724009354588324 [Eh]
	 SCS Total Energy          =    -482.1684529816981239 [Eh]
	-----------------------------------------------------------

  Dipole Moment: [D]
     X:     1.3265      Y:    -1.0659      Z:    -0.4966     Total:     1.7727

*** Psi4 exiting successfully. Buy a developer a beer!
