                               Psi4 1.4a3.dev225

  ==> Input File <==

--------------------------------------------------------------------------
#psi4
#
memory 32 gb

molecule  {
0 1
  N        1.0430420     0.8835120     0.3262100
  C       -2.6935940    -0.1236090    -0.2650160
  C       -0.4170680    -1.0145740    -0.0079460
  C       -1.3683020    -0.3105490    -1.0112920
  C       -2.2166740     0.1783740     1.1559530
  C       -1.0996000    -0.8433070     1.3811970
  C       -3.6002280     0.9375310    -0.8724950
  C        0.9853409    -0.4149264    -0.0433923
  C        2.0893310    -1.1495780    -0.4236340
  C        3.3396130    -0.5322390    -0.4347340
  C        2.2533150     1.4653640     0.3147880
  C        3.4262710     0.8062240    -0.0568370
  H       -3.2284890    -1.0854330    -0.2500270
  H       -0.3333030    -2.0805640    -0.2540920
  H       -0.9618110     0.6780590    -1.2570810
  H       -1.4754410    -0.8694270    -1.9482280
  H       -3.0167220     0.1138590     1.9027270
  H       -1.8007770     1.1928100     1.1867420
  H       -0.3855780    -0.5294870     2.1482020
  H       -1.5277920    -1.8013410     1.6997400
  H       -3.8772320     0.6843320    -1.9011880
  H       -4.5228040     1.0497910    -0.2936460
  H       -3.0892320     1.9062640    -0.8879070
  H        1.9842510    -2.1936970    -0.7089060
  H        4.2276210    -1.0857940    -0.7310670
  H        2.2780980     2.5111560     0.6184940
  H        4.3773590     1.3311980    -0.0481150
units angstrom
no_reorient  #important for SAPT in psi4, default
symmetry c1  #important for SAPT in psi4, default
}

set PROPERTIES_ORIGIN ["COM"]
properties('MP2/aug-cc-pvtz', properties = ['dipole'])
--------------------------------------------------------------------------

    Molecular point group: c1
  Charge       = 0
  Multiplicity = 1
  Basis Set: AUG-CC-PVTZ
    Blend: AUG-CC-PVTZ
  Basis Set: (AUG-CC-PVTZ AUX)
    Blend: AUG-CC-PVTZ-JKFIT

    Orbital Energies [Eh]
    ---------------------

    Doubly Occupied:

       1A    -15.558804     2A    -11.274945     3A    -11.273259
       4A    -11.258791     5A    -11.236371     6A    -11.233419
       7A    -11.226277     8A    -11.213986     9A    -11.210501
      10A    -11.208763    11A    -11.204802    12A    -11.203107
      13A     -1.253338    14A     -1.125919    15A     -1.083594
      16A     -1.046240    17A     -0.991248    18A     -0.953668
      19A     -0.892253    20A     -0.857304    21A     -0.836236
      22A     -0.763455    23A     -0.754789    24A     -0.697117
      25A     -0.668163    26A     -0.640612    27A     -0.640001
      28A     -0.608411    29A     -0.584128    30A     -0.576471
      31A     -0.574400    32A     -0.551531    33A     -0.539067
      34A     -0.526996    35A     -0.510248    36A     -0.471368
      37A     -0.467830    38A     -0.460266    39A     -0.450668
      40A     -0.446003    41A     -0.438920    42A     -0.412555
      43A     -0.377432    44A     -0.335098

  @DF-RHF Final Energy:  -479.89645561848420

   => Energetics <=

    Nuclear Repulsion Energy =            685.8156347425411923
    One-Electron Energy =               -2010.1474760565640736
    Two-Electron Energy =                 844.4353856955385709
    Total Energy =                       -479.8964556184841967
  Basis Set: (AUG-CC-PVTZ AUX)
    Blend: AUG-CC-PVTZ-RI
    Molecular point group: c1

    Geometry (in Angstrom), charge = 0, multiplicity = 1:

       Center              X                  Y                   Z               Mass
    ------------   -----------------  -----------------  -----------------  -----------------
         N            0.971381496664     0.882415043527     0.322008031253    14.003074004430
         C           -2.765254503336    -0.124705956473    -0.269217968747    12.000000000000
         C           -0.488728503336    -1.015670956473    -0.012147968747    12.000000000000
         C           -1.439962503336    -0.311645956473    -1.015493968747    12.000000000000
         C           -2.288334503336     0.177277043527     1.151751031253    12.000000000000
         C           -1.171260503336    -0.844403956473     1.376995031253    12.000000000000
         C           -3.671888503336     0.936434043527    -0.876696968747    12.000000000000
         C            0.913680396664    -0.416023356473    -0.047594268747    12.000000000000
         C            2.017670496664    -1.150674956473    -0.427835968747    12.000000000000
         C            3.267952496664    -0.533335956473    -0.438935968747    12.000000000000
         C            2.181654496664     1.464267043527     0.310586031253    12.000000000000
         C            3.354610496664     0.805127043527    -0.061038968747    12.000000000000
         H           -3.300149503336    -1.086529956473    -0.254228968747     1.007825032230
         H           -0.404963503336    -2.081660956473    -0.258293968747     1.007825032230
         H           -1.033471503336     0.676962043527    -1.261282968747     1.007825032230
         H           -1.547101503336    -0.870523956473    -1.952429968747     1.007825032230
         H           -3.088382503336     0.112762043527     1.898525031253     1.007825032230
         H           -1.872437503336     1.191713043527     1.182540031253     1.007825032230
         H           -0.457238503336    -0.530583956473     2.144000031253     1.007825032230
         H           -1.599452503336    -1.802437956473     1.695538031253     1.007825032230
         H           -3.948892503336     0.683235043527    -1.905389968747     1.007825032230
         H           -4.594464503336     1.048694043527    -0.297847968747     1.007825032230
         H           -3.160892503336     1.905167043527    -0.892108968747     1.007825032230
         H            1.912590496664    -2.194793956473    -0.713107968747     1.007825032230
         H            4.155960496664    -1.086890956473    -0.735268968747     1.007825032230
         H            2.206437496664     2.510059043527     0.614292031253     1.007825032230
         H            4.305698496664     1.330101043527    -0.052316968747     1.007825032230

  Basis Set: AUG-CC-PVTZ
    Blend: AUG-CC-PVTZ
  Basis Set: (AUG-CC-PVTZ AUX)
    Blend: AUG-CC-PVTZ-JKFIT
	 Reference Energy          =    -479.8964556184841967 [Eh]
	 Singles Energy            =      -0.0000000000000000 [Eh]
	 Same-Spin Energy          =      -0.5325528964521844 [Eh]
	 Opposite-Spin Energy      =      -1.7453142106735455 [Eh]
	 Correlation Energy        =      -2.2778671071257302 [Eh]
	 Total Energy              =    -482.1743227256099544 [Eh]

	 ================> DF-SCS-MP2 Energies <==================
	-----------------------------------------------------------
	 SCS Same-Spin Scale       =       0.3333333333333333 [-]
	 SCS Opposite-Spin Scale   =       1.2000000000000000 [-]
	 SCS Same-Spin Energy      =      -0.1775176321507281 [Eh]
	 SCS Opposite-Spin Energy  =      -2.0943770528082544 [Eh]
	 SCS Correlation Energy    =      -2.2718946849589825 [Eh]
	 SCS Total Energy          =    -482.1683503034431624 [Eh]
	-----------------------------------------------------------

  Dipole Moment: [D]
     X:     1.4187      Y:    -1.0487      Z:    -0.4983     Total:     1.8332

*** Psi4 exiting successfully. Buy a developer a beer!
