                               Psi4 1.4a3.dev225

  ==> Input File <==

--------------------------------------------------------------------------
#psi4
#
memory 32 gb

molecule  {
0 1
  N        1.0430420     0.8835120     0.3262100
  C       -2.6672784    -0.0968547    -0.2269016
  C       -0.4170680    -1.0145740    -0.0079460
  C       -1.3683020    -0.3105490    -1.0112920
  C       -2.2166740     0.1783740     1.1559530
  C       -1.0996000    -0.8433070     1.3811970
  C       -3.6002280     0.9375310    -0.8724950
  C        0.9620280    -0.4146880    -0.0398380
  C        2.0893310    -1.1495780    -0.4236340
  C        3.3396130    -0.5322390    -0.4347340
  C        2.2533150     1.4653640     0.3147880
  C        3.4262710     0.8062240    -0.0568370
  H       -3.2284890    -1.0854330    -0.2500270
  H       -0.3333030    -2.0805640    -0.2540920
  H       -0.9618110     0.6780590    -1.2570810
  H       -1.4754410    -0.8694270    -1.9482280
  H       -3.0167220     0.1138590     1.9027270
  H       -1.8007770     1.1928100     1.1867420
  H       -0.3855780    -0.5294870     2.1482020
  H       -1.5277920    -1.8013410     1.6997400
  H       -3.8772320     0.6843320    -1.9011880
  H       -4.5228040     1.0497910    -0.2936460
  H       -3.0892320     1.9062640    -0.8879070
  H        1.9842510    -2.1936970    -0.7089060
  H        4.2276210    -1.0857940    -0.7310670
  H        2.2780980     2.5111560     0.6184940
  H        4.3773590     1.3311980    -0.0481150
units angstrom
no_reorient  #important for SAPT in psi4, default
symmetry c1  #important for SAPT in psi4, default
}

set PROPERTIES_ORIGIN ["COM"]
properties('MP2/aug-cc-pvtz', properties = ['dipole'])
--------------------------------------------------------------------------

    Molecular point group: c1
  Charge       = 0
  Multiplicity = 1
  Basis Set: AUG-CC-PVTZ
    Blend: AUG-CC-PVTZ
  Basis Set: (AUG-CC-PVTZ AUX)
    Blend: AUG-CC-PVTZ-JKFIT

    Orbital Energies [Eh]
    ---------------------

    Doubly Occupied:

       1A    -15.557963     2A    -11.275316     3A    -11.274372
       4A    -11.257950     5A    -11.235829     6A    -11.235055
       7A    -11.226160     8A    -11.216318     9A    -11.212072
      10A    -11.209831    11A    -11.205919    12A    -11.202400
      13A     -1.251891    14A     -1.131813    15A     -1.081895
      16A     -1.047413    17A     -0.989662    18A     -0.957480
      19A     -0.894524    20A     -0.855410    21A     -0.838803
      22A     -0.765567    23A     -0.750798    24A     -0.696785
      25A     -0.669003    26A     -0.641871    27A     -0.640686
      28A     -0.609394    29A     -0.584250    30A     -0.577452
      31A     -0.574620    32A     -0.551652    33A     -0.537781
      34A     -0.526768    35A     -0.511183    36A     -0.477095
      37A     -0.469891    38A     -0.459014    39A     -0.452656
      40A     -0.450202    41A     -0.436108    42A     -0.409848
      43A     -0.376923    44A     -0.331934

  @DF-RHF Final Energy:  -479.89315733556521

   => Energetics <=

    Nuclear Repulsion Energy =            686.4737509539387474
    One-Electron Energy =               -2011.4147010283929831
    Two-Electron Energy =                 845.0477927388889157
    Total Energy =                       -479.8931573355652063
  Basis Set: (AUG-CC-PVTZ AUX)
    Blend: AUG-CC-PVTZ-RI
    Molecular point group: c1

    Geometry (in Angstrom), charge = 0, multiplicity = 1:

       Center              X                  Y                   Z               Mass
    ------------   -----------------  -----------------  -----------------  -----------------
         N            0.971157860248     0.880404669294     0.318904611410    14.003074004430
         C           -2.739162539752    -0.099962030706    -0.234206988590    12.000000000000
         C           -0.488952139752    -1.017681330706    -0.015251388590    12.000000000000
         C           -1.440186139752    -0.313656330706    -1.018597388590    12.000000000000
         C           -2.288558139752     0.175266669294     1.148647611410    12.000000000000
         C           -1.171484139752    -0.846414330706     1.373891611410    12.000000000000
         C           -3.672112139752     0.934423669294    -0.879800388590    12.000000000000
         C            0.890143860248    -0.417795330706    -0.047143388590    12.000000000000
         C            2.017446860248    -1.152685330706    -0.430939388590    12.000000000000
         C            3.267728860248    -0.535346330706    -0.442039388590    12.000000000000
         C            2.181430860248     1.462256669294     0.307482611410    12.000000000000
         C            3.354386860248     0.803116669294    -0.064142388590    12.000000000000
         H           -3.300373139752    -1.088540330706    -0.257332388590     1.007825032230
         H           -0.405187139752    -2.083671330706    -0.261397388590     1.007825032230
         H           -1.033695139752     0.674951669294    -1.264386388590     1.007825032230
         H           -1.547325139752    -0.872534330706    -1.955533388590     1.007825032230
         H           -3.088606139752     0.110751669294     1.895421611410     1.007825032230
         H           -1.872661139752     1.189702669294     1.179436611410     1.007825032230
         H           -0.457462139752    -0.532594330706     2.140896611410     1.007825032230
         H           -1.599676139752    -1.804448330706     1.692434611410     1.007825032230
         H           -3.949116139752     0.681224669294    -1.908493388590     1.007825032230
         H           -4.594688139752     1.046683669294    -0.300951388590     1.007825032230
         H           -3.161116139752     1.903156669294    -0.895212388590     1.007825032230
         H            1.912366860248    -2.196804330706    -0.716211388590     1.007825032230
         H            4.155736860248    -1.088901330706    -0.738372388590     1.007825032230
         H            2.206213860248     2.508048669294     0.611188611410     1.007825032230
         H            4.305474860248     1.328090669294    -0.055420388590     1.007825032230

  Basis Set: AUG-CC-PVTZ
    Blend: AUG-CC-PVTZ
  Basis Set: (AUG-CC-PVTZ AUX)
    Blend: AUG-CC-PVTZ-JKFIT
	 Reference Energy          =    -479.8931573355652063 [Eh]
	 Singles Energy            =      -0.0000000000000000 [Eh]
	 Same-Spin Energy          =      -0.5331067095783906 [Eh]
	 Opposite-Spin Energy      =      -1.7459282543749546 [Eh]
	 Correlation Energy        =      -2.2790349639533449 [Eh]
	 Total Energy              =    -482.1721922995185423 [Eh]

	 ================> DF-SCS-MP2 Energies <==================
	-----------------------------------------------------------
	 SCS Same-Spin Scale       =       0.3333333333333333 [-]
	 SCS Opposite-Spin Scale   =       1.2000000000000000 [-]
	 SCS Same-Spin Energy      =      -0.1777022365261302 [Eh]
	 SCS Opposite-Spin Energy  =      -2.0951139052499452 [Eh]
	 SCS Correlation Energy    =      -2.2728161417760755 [Eh]
	 SCS Total Energy          =    -482.1659734773412538 [Eh]
	-----------------------------------------------------------

  Dipole Moment: [D]
     X:     1.3454      Y:    -1.0600      Z:    -0.4840     Total:     1.7799

*** Psi4 exiting successfully. Buy a developer a beer!
