                               Psi4 1.4a3.dev225

  ==> Input File <==

--------------------------------------------------------------------------
#psi4
#
memory 32 gb

molecule  {
0 1
  N        1.0430420     0.8835120     0.3262100
  C       -2.6935940    -0.1236090    -0.2650160
  C       -0.4170680    -1.0145740    -0.0079460
  C       -1.3683020    -0.3105490    -1.0112920
  C       -2.2166740     0.1783740     1.1559530
  C       -1.0996000    -0.8433070     1.3811970
  C       -3.6002280     0.9375310    -0.8724950
  C        0.9620280    -0.4146880    -0.0398380
  C        2.0893310    -1.1495780    -0.4236340
  C        3.3396130    -0.5322390    -0.4347340
  C        2.2533150     1.4653640     0.3147880
  C        3.4262710     0.8062240    -0.0568370
  H       -3.2284890    -1.0854330    -0.2500270
  H       -0.3333030    -2.0805640    -0.2540920
  H       -0.9618110     0.6780590    -1.2570810
  H       -1.4754410    -0.8694270    -1.9482280
  H       -3.0167220     0.1138590     1.9027270
  H       -1.8007770     1.1928100     1.1867420
  H       -0.3855780    -0.5294870     2.1482020
  H       -1.5277920    -1.8013410     1.6997400
  H       -3.9077442     0.6196557    -1.8742132
  H       -4.5228040     1.0497910    -0.2936460
  H       -3.0892320     1.9062640    -0.8879070
  H        1.9842510    -2.1936970    -0.7089060
  H        4.2276210    -1.0857940    -0.7310670
  H        2.2780980     2.5111560     0.6184940
  H        4.3773590     1.3311980    -0.0481150
units angstrom
no_reorient  #important for SAPT in psi4, default
symmetry c1  #important for SAPT in psi4, default
}

set PROPERTIES_ORIGIN ["COM"]
properties('MP2/aug-cc-pvtz', properties = ['dipole'])
--------------------------------------------------------------------------

    Molecular point group: c1
  Charge       = 0
  Multiplicity = 1
  Basis Set: AUG-CC-PVTZ
    Blend: AUG-CC-PVTZ
  Basis Set: (AUG-CC-PVTZ AUX)
    Blend: AUG-CC-PVTZ-JKFIT

    Orbital Energies [Eh]
    ---------------------

    Doubly Occupied:

       1A    -15.557989     2A    -11.275305     3A    -11.274337
       4A    -11.257921     5A    -11.235860     6A    -11.235083
       7A    -11.226086     8A    -11.214188     9A    -11.211211
      10A    -11.209651    11A    -11.205389    12A    -11.203351
      13A     -1.251847    14A     -1.127486    15A     -1.081836
      16A     -1.046520    17A     -0.991433    18A     -0.954681
      19A     -0.893693    20A     -0.855163    21A     -0.836600
      22A     -0.764342    23A     -0.754947    24A     -0.696738
      25A     -0.668100    26A     -0.640704    27A     -0.640293
      28A     -0.607644    29A     -0.586919    30A     -0.577129
      31A     -0.573890    32A     -0.549221    33A     -0.538458
      34A     -0.528236    35A     -0.513645    36A     -0.473066
      37A     -0.468840    38A     -0.460327    39A     -0.452624
      40A     -0.447445    41A     -0.437963    42A     -0.409984
      43A     -0.376966    44A     -0.332092

  @DF-RHF Final Energy:  -479.89602691258824

   => Energetics <=

    Nuclear Repulsion Energy =            685.8874872534058795
    One-Electron Energy =               -2010.2766263255753074
    Two-Electron Energy =                 844.4931121595811874
    Total Energy =                       -479.8960269125882405
  Basis Set: (AUG-CC-PVTZ AUX)
    Blend: AUG-CC-PVTZ-RI
    Molecular point group: c1

    Geometry (in Angstrom), charge = 0, multiplicity = 1:

       Center              X                  Y                   Z               Mass
    ------------   -----------------  -----------------  -----------------  -----------------
         N            0.973308662086     0.882801844795     0.321574582371    14.003074004430
         C           -2.763327337914    -0.124319155205    -0.269651417629    12.000000000000
         C           -0.486801337914    -1.015284155205    -0.012581417629    12.000000000000
         C           -1.438035337914    -0.311259155205    -1.015927417629    12.000000000000
         C           -2.286407337914     0.177663844795     1.151317582371    12.000000000000
         C           -1.169333337914    -0.844017155205     1.376561582371    12.000000000000
         C           -3.669961337914     0.936820844795    -0.877130417629    12.000000000000
         C            0.892294662086    -0.415398155205    -0.044473417629    12.000000000000
         C            2.019597662086    -1.150288155205    -0.428269417629    12.000000000000
         C            3.269879662086    -0.532949155205    -0.439369417629    12.000000000000
         C            2.183581662086     1.464653844795     0.310152582371    12.000000000000
         C            3.356537662086     0.805513844795    -0.061472417629    12.000000000000
         H           -3.298222337914    -1.086143155205    -0.254662417629     1.007825032230
         H           -0.403036337914    -2.081274155205    -0.258727417629     1.007825032230
         H           -1.031544337914     0.677348844795    -1.261716417629     1.007825032230
         H           -1.545174337914    -0.870137155205    -1.952863417629     1.007825032230
         H           -3.086455337914     0.113148844795     1.898091582371     1.007825032230
         H           -1.870510337914     1.192099844795     1.182106582371     1.007825032230
         H           -0.455311337914    -0.530197155205     2.143566582371     1.007825032230
         H           -1.597525337914    -1.802051155205     1.695104582371     1.007825032230
         H           -3.977477537914     0.618945544795    -1.878848617629     1.007825032230
         H           -4.592537337914     1.049080844795    -0.298281417629     1.007825032230
         H           -3.158965337914     1.905553844795    -0.892542417629     1.007825032230
         H            1.914517662086    -2.194407155205    -0.713541417629     1.007825032230
         H            4.157887662086    -1.086504155205    -0.735702417629     1.007825032230
         H            2.208364662086     2.510445844795     0.613858582371     1.007825032230
         H            4.307625662086     1.330487844795    -0.052750417629     1.007825032230

  Basis Set: AUG-CC-PVTZ
    Blend: AUG-CC-PVTZ
  Basis Set: (AUG-CC-PVTZ AUX)
    Blend: AUG-CC-PVTZ-JKFIT
	 Reference Energy          =    -479.8960269125882405 [Eh]
	 Singles Energy            =      -0.0000000000000000 [Eh]
	 Same-Spin Energy          =      -0.5328188596833945 [Eh]
	 Opposite-Spin Energy      =      -1.7456207148069320 [Eh]
	 Correlation Energy        =      -2.2784395744903265 [Eh]
	 Total Energy              =    -482.1744664870785755 [Eh]

	 ================> DF-SCS-MP2 Energies <==================
	-----------------------------------------------------------
	 SCS Same-Spin Scale       =       0.3333333333333333 [-]
	 SCS Opposite-Spin Scale   =       1.2000000000000000 [-]
	 SCS Same-Spin Energy      =      -0.1776062865611315 [Eh]
	 SCS Opposite-Spin Energy  =      -2.0947448577683185 [Eh]
	 SCS Correlation Energy    =      -2.2723511443294502 [Eh]
	 SCS Total Energy          =    -482.1683780569176747 [Eh]
	-----------------------------------------------------------

  Dipole Moment: [D]
     X:     1.3153      Y:    -1.0827      Z:    -0.4876     Total:     1.7720

*** Psi4 exiting successfully. Buy a developer a beer!
