                               Psi4 1.4a3.dev225

  ==> Input File <==

--------------------------------------------------------------------------
#psi4
#
memory 32 gb

molecule  {
0 1
  N        1.0430420     0.8835120     0.3262100
  C       -2.6935940    -0.1236090    -0.2650160
  C       -0.4170680    -1.0145740    -0.0079460
  C       -1.3720103    -0.3341767    -1.0239899
  C       -2.2166740     0.1783740     1.1559530
  C       -1.0996000    -0.8433070     1.3811970
  C       -3.6002280     0.9375310    -0.8724950
  C        0.9620280    -0.4146880    -0.0398380
  C        2.0893310    -1.1495780    -0.4236340
  C        3.3396130    -0.5322390    -0.4347340
  C        2.2533150     1.4653640     0.3147880
  C        3.4262710     0.8062240    -0.0568370
  H       -3.2284890    -1.0854330    -0.2500270
  H       -0.3333030    -2.0805640    -0.2540920
  H       -0.9618110     0.6780590    -1.2570810
  H       -1.4754410    -0.8694270    -1.9482280
  H       -3.0167220     0.1138590     1.9027270
  H       -1.8007770     1.1928100     1.1867420
  H       -0.3855780    -0.5294870     2.1482020
  H       -1.5277920    -1.8013410     1.6997400
  H       -3.8772320     0.6843320    -1.9011880
  H       -4.5228040     1.0497910    -0.2936460
  H       -3.0892320     1.9062640    -0.8879070
  H        1.9842510    -2.1936970    -0.7089060
  H        4.2276210    -1.0857940    -0.7310670
  H        2.2780980     2.5111560     0.6184940
  H        4.3773590     1.3311980    -0.0481150
units angstrom
no_reorient  #important for SAPT in psi4, default
symmetry c1  #important for SAPT in psi4, default
}

set PROPERTIES_ORIGIN ["COM"]
properties('MP2/aug-cc-pvtz', properties = ['dipole'])
--------------------------------------------------------------------------

    Molecular point group: c1
  Charge       = 0
  Multiplicity = 1
  Basis Set: AUG-CC-PVTZ
    Blend: AUG-CC-PVTZ
  Basis Set: (AUG-CC-PVTZ AUX)
    Blend: AUG-CC-PVTZ-JKFIT

    Orbital Energies [Eh]
    ---------------------

    Doubly Occupied:

       1A    -15.557987     2A    -11.275342     3A    -11.274274
       4A    -11.257892     5A    -11.235875     6A    -11.235114
       7A    -11.226221     8A    -11.214949     9A    -11.211573
      10A    -11.209687    11A    -11.205199    12A    -11.203862
      13A     -1.251765    14A     -1.126620    15A     -1.081811
      16A     -1.046205    17A     -0.991001    18A     -0.955374
      19A     -0.893578    20A     -0.855113    21A     -0.836854
      22A     -0.764643    23A     -0.754776    24A     -0.696757
      25A     -0.669030    26A     -0.641201    27A     -0.640090
      28A     -0.607840    29A     -0.584303    30A     -0.576558
      31A     -0.573859    32A     -0.552210    33A     -0.538301
      34A     -0.526478    35A     -0.511169    36A     -0.477180
      37A     -0.469699    38A     -0.460753    39A     -0.450714
      40A     -0.443513    41A     -0.440340    42A     -0.409947
      43A     -0.376899    44A     -0.332206

  @DF-RHF Final Energy:  -479.89581233272406

   => Energetics <=

    Nuclear Repulsion Energy =            685.6122653808148470
    One-Electron Energy =               -2009.7266177974095172
    Two-Electron Energy =                 844.2185400838704936
    Total Energy =                       -479.8958123327240628
  Basis Set: (AUG-CC-PVTZ AUX)
    Blend: AUG-CC-PVTZ-RI
    Molecular point group: c1

    Geometry (in Angstrom), charge = 0, multiplicity = 1:

       Center              X                  Y                   Z               Mass
    ------------   -----------------  -----------------  -----------------  -----------------
         N            0.973393993533     0.884157042143     0.322689032332    14.003074004430
         C           -2.763242006467    -0.122963957857    -0.268536967668    12.000000000000
         C           -0.486716006467    -1.013928957857    -0.011466967668    12.000000000000
         C           -1.441658306467    -0.333531657857    -1.027510867668    12.000000000000
         C           -2.286322006467     0.179019042143     1.152432032332    12.000000000000
         C           -1.169248006467    -0.842661957857     1.377676032332    12.000000000000
         C           -3.669876006467     0.938176042143    -0.876015967668    12.000000000000
         C            0.892379993533    -0.414042957857    -0.043358967668    12.000000000000
         C            2.019682993533    -1.148932957857    -0.427154967668    12.000000000000
         C            3.269964993533    -0.531593957857    -0.438254967668    12.000000000000
         C            2.183666993533     1.466009042143     0.311267032332    12.000000000000
         C            3.356622993533     0.806869042143    -0.060357967668    12.000000000000
         H           -3.298137006467    -1.084787957857    -0.253547967668     1.007825032230
         H           -0.402951006467    -2.079918957857    -0.257612967668     1.007825032230
         H           -1.031459006467     0.678704042143    -1.260601967668     1.007825032230
         H           -1.545089006467    -0.868781957857    -1.951748967668     1.007825032230
         H           -3.086370006467     0.114504042143     1.899206032332     1.007825032230
         H           -1.870425006467     1.193455042143     1.183221032332     1.007825032230
         H           -0.455226006467    -0.528841957857     2.144681032332     1.007825032230
         H           -1.597440006467    -1.800695957857     1.696219032332     1.007825032230
         H           -3.946880006467     0.684977042143    -1.904708967668     1.007825032230
         H           -4.592452006467     1.050436042143    -0.297166967668     1.007825032230
         H           -3.158880006467     1.906909042143    -0.891427967668     1.007825032230
         H            1.914602993533    -2.193051957857    -0.712426967668     1.007825032230
         H            4.157972993533    -1.085148957857    -0.734587967668     1.007825032230
         H            2.208449993533     2.511801042143     0.614973032332     1.007825032230
         H            4.307710993533     1.331843042143    -0.051635967668     1.007825032230

  Basis Set: AUG-CC-PVTZ
    Blend: AUG-CC-PVTZ
  Basis Set: (AUG-CC-PVTZ AUX)
    Blend: AUG-CC-PVTZ-JKFIT
	 Reference Energy          =    -479.8958123327240628 [Eh]
	 Singles Energy            =      -0.0000000000000000 [Eh]
	 Same-Spin Energy          =      -0.5327702777843715 [Eh]
	 Opposite-Spin Energy      =      -1.7455836349963341 [Eh]
	 Correlation Energy        =      -2.2783539127807053 [Eh]
	 Total Energy              =    -482.1741662455047503 [Eh]

	 ================> DF-SCS-MP2 Energies <==================
	-----------------------------------------------------------
	 SCS Same-Spin Scale       =       0.3333333333333333 [-]
	 SCS Opposite-Spin Scale   =       1.2000000000000000 [-]
	 SCS Same-Spin Energy      =      -0.1775900925947905 [Eh]
	 SCS Opposite-Spin Energy  =      -2.0947003619956006 [Eh]
	 SCS Correlation Energy    =      -2.2722904545903910 [Eh]
	 SCS Total Energy          =    -482.1681027873144672 [Eh]
	-----------------------------------------------------------

  Dipole Moment: [D]
     X:     1.3295      Y:    -1.0833      Z:    -0.5002     Total:     1.7864

*** Psi4 exiting successfully. Buy a developer a beer!
