                               Psi4 1.4a3.dev225

  ==> Input File <==

--------------------------------------------------------------------------
#psi4
#
memory 32 gb

molecule  {
0 1
  N        1.0430420     0.8835120     0.3262100
  C       -2.6935940    -0.1236090    -0.2650160
  C       -0.4528497    -0.9213941     0.0246307
  C       -1.3683020    -0.3105490    -1.0112920
  C       -2.2166740     0.1783740     1.1559530
  C       -1.0996000    -0.8433070     1.3811970
  C       -3.6002280     0.9375310    -0.8724950
  C        0.9620280    -0.4146880    -0.0398380
  C        2.0893310    -1.1495780    -0.4236340
  C        3.3396130    -0.5322390    -0.4347340
  C        2.2533150     1.4653640     0.3147880
  C        3.4262710     0.8062240    -0.0568370
  H       -3.2284890    -1.0854330    -0.2500270
  H       -0.3333030    -2.0805640    -0.2540920
  H       -0.9618110     0.6780590    -1.2570810
  H       -1.4754410    -0.8694270    -1.9482280
  H       -3.0167220     0.1138590     1.9027270
  H       -1.8007770     1.1928100     1.1867420
  H       -0.3855780    -0.5294870     2.1482020
  H       -1.5277920    -1.8013410     1.6997400
  H       -3.8772320     0.6843320    -1.9011880
  H       -4.5228040     1.0497910    -0.2936460
  H       -3.0892320     1.9062640    -0.8879070
  H        1.9842510    -2.1936970    -0.7089060
  H        4.2276210    -1.0857940    -0.7310670
  H        2.2780980     2.5111560     0.6184940
  H        4.3773590     1.3311980    -0.0481150
units angstrom
no_reorient  #important for SAPT in psi4, default
symmetry c1  #important for SAPT in psi4, default
}

set PROPERTIES_ORIGIN ["COM"]
properties('MP2/aug-cc-pvtz', properties = ['dipole'])
--------------------------------------------------------------------------

    Molecular point group: c1
  Charge       = 0
  Multiplicity = 1
  Basis Set: AUG-CC-PVTZ
    Blend: AUG-CC-PVTZ
  Basis Set: (AUG-CC-PVTZ AUX)
    Blend: AUG-CC-PVTZ-JKFIT

    Orbital Energies [Eh]
    ---------------------

    Doubly Occupied:

       1A    -15.557817     2A    -11.275511     3A    -11.274017
       4A    -11.259011     5A    -11.237465     6A    -11.237008
       7A    -11.230670     8A    -11.214680     9A    -11.209498
      10A    -11.207924    11A    -11.205187    12A    -11.203797
      13A     -1.253287    14A     -1.136080    15A     -1.082928
      16A     -1.045731    17A     -0.995125    18A     -0.957537
      19A     -0.894711    20A     -0.855454    21A     -0.838778
      22A     -0.763062    23A     -0.753277    24A     -0.694723
      25A     -0.670740    26A     -0.646113    27A     -0.638737
      28A     -0.610487    29A     -0.584318    30A     -0.577673
      31A     -0.571280    32A     -0.552085    33A     -0.538222
      34A     -0.527345    35A     -0.510336    36A     -0.487197
      37A     -0.474580    38A     -0.460974    39A     -0.448060
      40A     -0.440770    41A     -0.425842    42A     -0.412240
      43A     -0.377687    44A     -0.334858

  @DF-RHF Final Energy:  -479.88343718827593

   => Energetics <=

    Nuclear Repulsion Energy =            687.2025570915687922
    One-Electron Energy =               -2012.8263457484840728
    Two-Electron Energy =                 845.7403514686392327
    Total Energy =                       -479.8834371882759342
  Basis Set: (AUG-CC-PVTZ AUX)
    Blend: AUG-CC-PVTZ-RI
    Molecular point group: c1

    Geometry (in Angstrom), charge = 0, multiplicity = 1:

       Center              X                  Y                   Z               Mass
    ------------   -----------------  -----------------  -----------------  -----------------
         N            0.975782770384     0.875457394119     0.319317050677    14.003074004430
         C           -2.760853229616    -0.131663605881    -0.271908949323    12.000000000000
         C           -0.520108929616    -0.929448705881     0.017737750677    12.000000000000
         C           -1.435561229616    -0.318603605881    -1.018184949323    12.000000000000
         C           -2.283933229616     0.170319394119     1.149060050677    12.000000000000
         C           -1.166859229616    -0.851361605881     1.374304050677    12.000000000000
         C           -3.667487229616     0.929476394119    -0.879387949323    12.000000000000
         C            0.894768770384    -0.422742605881    -0.046730949323    12.000000000000
         C            2.022071770384    -1.157632605881    -0.430526949323    12.000000000000
         C            3.272353770384    -0.540293605881    -0.441626949323    12.000000000000
         C            2.186055770384     1.457309394119     0.307895050677    12.000000000000
         C            3.359011770384     0.798169394119    -0.063729949323    12.000000000000
         H           -3.295748229616    -1.093487605881    -0.256919949323     1.007825032230
         H           -0.400562229616    -2.088618605881    -0.260984949323     1.007825032230
         H           -1.029070229616     0.670004394119    -1.263973949323     1.007825032230
         H           -1.542700229616    -0.877481605881    -1.955120949323     1.007825032230
         H           -3.083981229616     0.105804394119     1.895834050677     1.007825032230
         H           -1.868036229616     1.184755394119     1.179849050677     1.007825032230
         H           -0.452837229616    -0.537541605881     2.141309050677     1.007825032230
         H           -1.595051229616    -1.809395605881     1.692847050677     1.007825032230
         H           -3.944491229616     0.676277394119    -1.908080949323     1.007825032230
         H           -4.590063229616     1.041736394119    -0.300538949323     1.007825032230
         H           -3.156491229616     1.898209394119    -0.894799949323     1.007825032230
         H            1.916991770384    -2.201751605881    -0.715798949323     1.007825032230
         H            4.160361770384    -1.093848605881    -0.737959949323     1.007825032230
         H            2.210838770384     2.503101394119     0.611601050677     1.007825032230
         H            4.310099770384     1.323143394119    -0.055007949323     1.007825032230

  Basis Set: AUG-CC-PVTZ
    Blend: AUG-CC-PVTZ
  Basis Set: (AUG-CC-PVTZ AUX)
    Blend: AUG-CC-PVTZ-JKFIT
	 Reference Energy          =    -479.8834371882759342 [Eh]
	 Singles Energy            =      -0.0000000000000000 [Eh]
	 Same-Spin Energy          =      -0.5337291509455495 [Eh]
	 Opposite-Spin Energy      =      -1.7471726611393785 [Eh]
	 Correlation Energy        =      -2.2809018120849283 [Eh]
	 Total Energy              =    -482.1643390003608829 [Eh]

	 ================> DF-SCS-MP2 Energies <==================
	-----------------------------------------------------------
	 SCS Same-Spin Scale       =       0.3333333333333333 [-]
	 SCS Opposite-Spin Scale   =       1.2000000000000000 [-]
	 SCS Same-Spin Energy      =      -0.1779097169818498 [Eh]
	 SCS Opposite-Spin Energy  =      -2.0966071933672543 [Eh]
	 SCS Correlation Energy    =      -2.2745169103491043 [Eh]
	 SCS Total Energy          =    -482.1579540986250549 [Eh]
	-----------------------------------------------------------

  Dipole Moment: [D]
     X:     1.3899      Y:    -0.9726      Z:    -0.4696     Total:     1.7602

*** Psi4 exiting successfully. Buy a developer a beer!
