                               Psi4 1.4a3.dev225

  ==> Input File <==

--------------------------------------------------------------------------
#psi4
#
memory 32 gb

molecule  {
0 1
  N        1.0430420     0.8835120     0.3262100
  C       -2.6935940    -0.1236090    -0.2650160
  C       -0.4170680    -1.0145740    -0.0079460
  C       -1.3683020    -0.3105490    -1.0112920
  C       -2.2166740     0.1783740     1.1559530
  C       -1.0996000    -0.8433070     1.3811970
  C       -3.6002280     0.9375310    -0.8724950
  C        0.9620280    -0.4146880    -0.0398380
  C        2.0893310    -1.1495780    -0.4236340
  C        3.3396130    -0.5322390    -0.4347340
  C        2.2533150     1.4653640     0.3147880
  C        3.4262710     0.8062240    -0.0568370
  H       -3.2284890    -1.0854330    -0.2500270
  H       -0.3333030    -2.0805640    -0.2540920
  H       -0.9618110     0.6780590    -1.2570810
  H       -1.4754410    -0.8694270    -1.9482280
  H       -3.0167220     0.1138590     1.9027270
  H       -1.8007770     1.1928100     1.1867420
  H       -0.3855780    -0.5294870     2.1482020
  H       -1.5277920    -1.8013410     1.6997400
  H       -3.9278258     0.6380861    -2.0890752
  H       -4.5228040     1.0497910    -0.2936460
  H       -3.0892320     1.9062640    -0.8879070
  H        1.9842510    -2.1936970    -0.7089060
  H        4.2276210    -1.0857940    -0.7310670
  H        2.2780980     2.5111560     0.6184940
  H        4.3773590     1.3311980    -0.0481150
units angstrom
no_reorient  #important for SAPT in psi4, default
symmetry c1  #important for SAPT in psi4, default
}

set PROPERTIES_ORIGIN ["COM"]
properties('MP2/aug-cc-pvtz', properties = ['dipole'])
--------------------------------------------------------------------------

    Molecular point group: c1
  Charge       = 0
  Multiplicity = 1
  Basis Set: AUG-CC-PVTZ
    Blend: AUG-CC-PVTZ
  Basis Set: (AUG-CC-PVTZ AUX)
    Blend: AUG-CC-PVTZ-JKFIT

    Orbital Energies [Eh]
    ---------------------

    Doubly Occupied:

       1A    -15.558564     2A    -11.275868     3A    -11.274829
       4A    -11.258374     5A    -11.236327     6A    -11.235581
       7A    -11.229042     8A    -11.226867     9A    -11.217239
      10A    -11.212927    11A    -11.210348    12A    -11.206186
      13A     -1.252408    14A     -1.128672    15A     -1.082318
      16A     -1.046641    17A     -0.988499    18A     -0.955919
      19A     -0.887037    20A     -0.855443    21A     -0.836101
      22A     -0.765493    23A     -0.755207    24A     -0.697317
      25A     -0.668725    26A     -0.641619    27A     -0.640679
      28A     -0.608462    29A     -0.584684    30A     -0.576903
      31A     -0.571203    32A     -0.541975    33A     -0.537291
      34A     -0.521708    35A     -0.508905    36A     -0.474266
      37A     -0.469758    38A     -0.462791    39A     -0.453874
      40A     -0.448431    41A     -0.430823    42A     -0.410559
      43A     -0.377470    44A     -0.332638

  @DF-RHF Final Energy:  -479.87696577411805

   => Energetics <=

    Nuclear Repulsion Energy =            685.0560438585708880
    One-Electron Energy =               -2008.5540777913188322
    Two-Electron Energy =                 843.6210681586300097
    Total Energy =                       -479.8769657741180481
  Basis Set: (AUG-CC-PVTZ AUX)
    Blend: AUG-CC-PVTZ-RI
    Molecular point group: c1

    Geometry (in Angstrom), charge = 0, multiplicity = 1:

       Center              X                  Y                   Z               Mass
    ------------   -----------------  -----------------  -----------------  -----------------
         N            0.973434274565     0.882686560742     0.322918566346    14.003074004430
         C           -2.763201725435    -0.124434439258    -0.268307433654    12.000000000000
         C           -0.486675725435    -1.015399439258    -0.011237433654    12.000000000000
         C           -1.437909725435    -0.311374439258    -1.014583433654    12.000000000000
         C           -2.286281725435     0.177548560742     1.152661566346    12.000000000000
         C           -1.169207725435    -0.844132439258     1.377905566346    12.000000000000
         C           -3.669835725435     0.936705560742    -0.875786433654    12.000000000000
         C            0.892420274565    -0.415513439258    -0.043129433654    12.000000000000
         C            2.019723274565    -1.150403439258    -0.426925433654    12.000000000000
         C            3.270005274565    -0.533064439258    -0.438025433654    12.000000000000
         C            2.183707274565     1.464538560742     0.311496566346    12.000000000000
         C            3.356663274565     0.805398560742    -0.060128433654    12.000000000000
         H           -3.298096725435    -1.086258439258    -0.253318433654     1.007825032230
         H           -0.402910725435    -2.081389439258    -0.257383433654     1.007825032230
         H           -1.031418725435     0.677233560742    -1.260372433654     1.007825032230
         H           -1.545048725435    -0.870252439258    -1.951519433654     1.007825032230
         H           -3.086329725435     0.113033560742     1.899435566346     1.007825032230
         H           -1.870384725435     1.191984560742     1.183450566346     1.007825032230
         H           -0.455185725435    -0.530312439258     2.144910566346     1.007825032230
         H           -1.597399725435    -1.802166439258     1.696448566346     1.007825032230
         H           -3.997433525435     0.637260660742    -2.092366633654     1.007825032230
         H           -4.592411725435     1.048965560742    -0.296937433654     1.007825032230
         H           -3.158839725435     1.905438560742    -0.891198433654     1.007825032230
         H            1.914643274565    -2.194522439258    -0.712197433654     1.007825032230
         H            4.158013274565    -1.086619439258    -0.734358433654     1.007825032230
         H            2.208490274565     2.510330560742     0.615202566346     1.007825032230
         H            4.307751274565     1.330372560742    -0.051406433654     1.007825032230

  Basis Set: AUG-CC-PVTZ
    Blend: AUG-CC-PVTZ
  Basis Set: (AUG-CC-PVTZ AUX)
    Blend: AUG-CC-PVTZ-JKFIT
	 Reference Energy          =    -479.8769657741180481 [Eh]
	 Singles Energy            =      -0.0000000000000000 [Eh]
	 Same-Spin Energy          =      -0.5326942844606571 [Eh]
	 Opposite-Spin Energy      =      -1.7470517744222449 [Eh]
	 Correlation Energy        =      -2.2797460588829019 [Eh]
	 Total Energy              =    -482.1567118330009407 [Eh]

	 ================> DF-SCS-MP2 Energies <==================
	-----------------------------------------------------------
	 SCS Same-Spin Scale       =       0.3333333333333333 [-]
	 SCS Opposite-Spin Scale   =       1.2000000000000000 [-]
	 SCS Same-Spin Energy      =      -0.1775647614868857 [Eh]
	 SCS Opposite-Spin Energy  =      -2.0964621293066936 [Eh]
	 SCS Correlation Energy    =      -2.2740268907935794 [Eh]
	 SCS Total Energy          =    -482.1509926649116551 [Eh]
	-----------------------------------------------------------

  Dipole Moment: [D]
     X:     1.4347      Y:    -1.0751      Z:    -0.3207     Total:     1.8213

*** Psi4 exiting successfully. Buy a developer a beer!
