                               Psi4 1.4a3.dev225

  ==> Input File <==

--------------------------------------------------------------------------
#psi4
#
memory 32 gb

molecule  {
0 1
  N        1.0430420     0.8835120     0.3262100
  C       -2.6935940    -0.1236090    -0.2650160
  C       -0.4170680    -1.0145740    -0.0079460
  C       -1.3683020    -0.3105490    -1.0112920
  C       -2.2166740     0.1783740     1.1559530
  C       -1.0996000    -0.8433070     1.3811970
  C       -3.6002280     0.9375310    -0.8724950
  C        1.0553565    -0.4132690    -0.0533754
  C        2.0893310    -1.1495780    -0.4236340
  C        3.3396130    -0.5322390    -0.4347340
  C        2.2533150     1.4653640     0.3147880
  C        3.4262710     0.8062240    -0.0568370
  H       -3.2284890    -1.0854330    -0.2500270
  H       -0.3333030    -2.0805640    -0.2540920
  H       -0.9618110     0.6780590    -1.2570810
  H       -1.4754410    -0.8694270    -1.9482280
  H       -3.0167220     0.1138590     1.9027270
  H       -1.8007770     1.1928100     1.1867420
  H       -0.3855780    -0.5294870     2.1482020
  H       -1.5277920    -1.8013410     1.6997400
  H       -3.8772320     0.6843320    -1.9011880
  H       -4.5228040     1.0497910    -0.2936460
  H       -3.0892320     1.9062640    -0.8879070
  H        1.9842510    -2.1936970    -0.7089060
  H        4.2276210    -1.0857940    -0.7310670
  H        2.2780980     2.5111560     0.6184940
  H        4.3773590     1.3311980    -0.0481150
units angstrom
no_reorient  #important for SAPT in psi4, default
symmetry c1  #important for SAPT in psi4, default
}

set PROPERTIES_ORIGIN ["COM"]
properties('MP2/aug-cc-pvtz', properties = ['dipole'])
--------------------------------------------------------------------------

    Molecular point group: c1
  Charge       = 0
  Multiplicity = 1
  Basis Set: AUG-CC-PVTZ
    Blend: AUG-CC-PVTZ
  Basis Set: (AUG-CC-PVTZ AUX)
    Blend: AUG-CC-PVTZ-JKFIT

    Orbital Energies [Eh]
    ---------------------

    Doubly Occupied:

       1A    -15.561229     2A    -11.276740     3A    -11.267208
       4A    -11.261224     5A    -11.237620     6A    -11.228016
       7A    -11.226289     8A    -11.212272     9A    -11.208040
      10A    -11.206167    11A    -11.203566    12A    -11.201435
      13A     -1.258106    14A     -1.121620    15A     -1.090148
      16A     -1.046388    17A     -0.990821    18A     -0.950325
      19A     -0.887975    20A     -0.863739    21A     -0.834479
      22A     -0.760559    23A     -0.752422    24A     -0.698400
      25A     -0.668900    26A     -0.642796    27A     -0.638554
      28A     -0.607985    29A     -0.582244    30A     -0.575162
      31A     -0.573771    32A     -0.551032    33A     -0.542624
      34A     -0.526547    35A     -0.505780    36A     -0.466377
      37A     -0.464482    38A     -0.458071    39A     -0.447030
      40A     -0.440665    41A     -0.437454    42A     -0.415926
      43A     -0.379166    44A     -0.343709

  @DF-RHF Final Energy:  -479.88723399858134

   => Energetics <=

    Nuclear Repulsion Energy =            685.7406428892704753
    One-Electron Energy =               -2010.0296247948435848
    Two-Electron Energy =                 844.4017479069917727
    Total Energy =                       -479.8872339985813369
  Basis Set: (AUG-CC-PVTZ AUX)
    Blend: AUG-CC-PVTZ-RI
    Molecular point group: c1

    Geometry (in Angstrom), charge = 0, multiplicity = 1:

       Center              X                  Y                   Z               Mass
    ------------   -----------------  -----------------  -----------------  -----------------
         N            0.966166843883     0.882291602958     0.322751556984    14.003074004430
         C           -2.770469156117    -0.124829397042    -0.268474443016    12.000000000000
         C           -0.493943156117    -1.015794397042    -0.011404443016    12.000000000000
         C           -1.445177156117    -0.311769397042    -1.014750443016    12.000000000000
         C           -2.293549156117     0.177153602958     1.152494556984    12.000000000000
         C           -1.176475156117    -0.844527397042     1.377738556984    12.000000000000
         C           -3.677103156117     0.936310602958    -0.875953443016    12.000000000000
         C            0.978481343883    -0.414489397042    -0.056833843016    12.000000000000
         C            2.012455843883    -1.150798397042    -0.427092443016    12.000000000000
         C            3.262737843883    -0.533459397042    -0.438192443016    12.000000000000
         C            2.176439843883     1.464143602958     0.311329556984    12.000000000000
         C            3.349395843883     0.805003602958    -0.060295443016    12.000000000000
         H           -3.305364156117    -1.086653397042    -0.253485443016     1.007825032230
         H           -0.410178156117    -2.081784397042    -0.257550443016     1.007825032230
         H           -1.038686156117     0.676838602958    -1.260539443016     1.007825032230
         H           -1.552316156117    -0.870647397042    -1.951686443016     1.007825032230
         H           -3.093597156117     0.112638602958     1.899268556984     1.007825032230
         H           -1.877652156117     1.191589602958     1.183283556984     1.007825032230
         H           -0.462453156117    -0.530707397042     2.144743556984     1.007825032230
         H           -1.604667156117    -1.802561397042     1.696281556984     1.007825032230
         H           -3.954107156117     0.683111602958    -1.904646443016     1.007825032230
         H           -4.599679156117     1.048570602958    -0.297104443016     1.007825032230
         H           -3.166107156117     1.905043602958    -0.891365443016     1.007825032230
         H            1.907375843883    -2.194917397042    -0.712364443016     1.007825032230
         H            4.150745843883    -1.087014397042    -0.734525443016     1.007825032230
         H            2.201222843883     2.509935602958     0.615035556984     1.007825032230
         H            4.300483843883     1.329977602958    -0.051573443016     1.007825032230

  Basis Set: AUG-CC-PVTZ
    Blend: AUG-CC-PVTZ
  Basis Set: (AUG-CC-PVTZ AUX)
    Blend: AUG-CC-PVTZ-JKFIT
	 Reference Energy          =    -479.8872339985813369 [Eh]
	 Singles Energy            =      -0.0000000000000000 [Eh]
	 Same-Spin Energy          =      -0.5321190559250831 [Eh]
	 Opposite-Spin Energy      =      -1.7451936644949677 [Eh]
	 Correlation Energy        =      -2.2773127204200510 [Eh]
	 Total Energy              =    -482.1645467190014074 [Eh]

	 ================> DF-SCS-MP2 Energies <==================
	-----------------------------------------------------------
	 SCS Same-Spin Scale       =       0.3333333333333333 [-]
	 SCS Opposite-Spin Scale   =       1.2000000000000000 [-]
	 SCS Same-Spin Energy      =      -0.1773730186416944 [Eh]
	 SCS Opposite-Spin Energy  =      -2.0942323973939612 [Eh]
	 SCS Correlation Energy    =      -2.2716054160356554 [Eh]
	 SCS Total Energy          =    -482.1588394146169776 [Eh]
	-----------------------------------------------------------

  Dipole Moment: [D]
     X:     1.6634      Y:    -0.9819      Z:    -0.5059     Total:     1.9967

*** Psi4 exiting successfully. Buy a developer a beer!
