                               Psi4 1.4a3.dev225

  ==> Input File <==

--------------------------------------------------------------------------
#psi4
#
memory 32 gb

molecule  {
0 1
  N        1.0430420     0.8835120     0.3262100
  C       -2.6935940    -0.1236090    -0.2650160
  C       -0.4170680    -1.0145740    -0.0079460
  C       -1.3683020    -0.3105490    -1.0112920
  C       -2.2166740     0.1783740     1.1559530
  C       -1.0996000    -0.8433070     1.3811970
  C       -3.6002280     0.9375310    -0.8724950
  C        0.9620280    -0.4146880    -0.0398380
  C        2.0893310    -1.1495780    -0.4236340
  C        3.3396130    -0.5322390    -0.4347340
  C        2.2533150     1.4653640     0.3147880
  C        3.4262710     0.8062240    -0.0568370
  H       -3.2284890    -1.0854330    -0.2500270
  H       -0.3333030    -2.0805640    -0.2540920
  H       -0.9618110     0.6780590    -1.2570810
  H       -1.4754410    -0.8694270    -1.9482280
  H       -3.0167220     0.1138590     1.9027270
  H       -1.8007770     1.1928100     1.1867420
  H       -0.3855780    -0.5294870     2.1482020
  H       -1.5277920    -1.8013410     1.6997400
  H       -3.8772320     0.6843320    -1.9011880
  H       -4.6913258     1.0702969    -0.1879109
  H       -3.0892320     1.9062640    -0.8879070
  H        1.9842510    -2.1936970    -0.7089060
  H        4.2276210    -1.0857940    -0.7310670
  H        2.2780980     2.5111560     0.6184940
  H        4.3773590     1.3311980    -0.0481150
units angstrom
no_reorient  #important for SAPT in psi4, default
symmetry c1  #important for SAPT in psi4, default
}

set PROPERTIES_ORIGIN ["COM"]
properties('MP2/aug-cc-pvtz', properties = ['dipole'])
--------------------------------------------------------------------------

    Molecular point group: c1
  Charge       = 0
  Multiplicity = 1
  Basis Set: AUG-CC-PVTZ
    Blend: AUG-CC-PVTZ
  Basis Set: (AUG-CC-PVTZ AUX)
    Blend: AUG-CC-PVTZ-JKFIT

    Orbital Energies [Eh]
    ---------------------

    Doubly Occupied:

       1A    -15.558829     2A    -11.276205     3A    -11.275067
       4A    -11.258645     5A    -11.236606     6A    -11.235911
       7A    -11.228964     8A    -11.227586     9A    -11.217153
      10A    -11.212104    11A    -11.212080    12A    -11.204311
      13A     -1.252689    14A     -1.128701    15A     -1.082593
      16A     -1.046693    17A     -0.988748    18A     -0.955911
      19A     -0.886477    20A     -0.855769    21A     -0.836802
      22A     -0.764907    23A     -0.755843    24A     -0.697225
      25A     -0.669054    26A     -0.641705    27A     -0.639563
      28A     -0.607919    29A     -0.585788    30A     -0.576891
      31A     -0.574915    32A     -0.539367    33A     -0.533243
      34A     -0.528543    35A     -0.506812    36A     -0.474218
      37A     -0.469864    38A     -0.461171    39A     -0.453693
      40A     -0.446559    41A     -0.433860    42A     -0.410349
      43A     -0.377728    44A     -0.332920

  @DF-RHF Final Energy:  -479.87691833983547

   => Energetics <=

    Nuclear Repulsion Energy =            685.0347798567273685
    One-Electron Energy =               -2008.5034336047683610
    Two-Electron Energy =                 843.5917354082056363
    Total Energy =                       -479.8769183398354699
  Basis Set: (AUG-CC-PVTZ AUX)
    Blend: AUG-CC-PVTZ-RI
    Molecular point group: c1

    Geometry (in Angstrom), charge = 0, multiplicity = 1:

       Center              X                  Y                   Z               Mass
    ------------   -----------------  -----------------  -----------------  -----------------
         N            0.974171926371     0.882269021347     0.321081928570    14.003074004430
         C           -2.762464073629    -0.124851978653    -0.270144071430    12.000000000000
         C           -0.485938073629    -1.015816978653    -0.013074071430    12.000000000000
         C           -1.437172073629    -0.311791978653    -1.016420071430    12.000000000000
         C           -2.285544073629     0.177131021347     1.150824928570    12.000000000000
         C           -1.168470073629    -0.844549978653     1.376068928570    12.000000000000
         C           -3.669098073629     0.936288021347    -0.877623071430    12.000000000000
         C            0.893157926371    -0.415930978653    -0.044966071430    12.000000000000
         C            2.020460926371    -1.150820978653    -0.428762071430    12.000000000000
         C            3.270742926371    -0.533481978653    -0.439862071430    12.000000000000
         C            2.184444926371     1.464121021347     0.309659928570    12.000000000000
         C            3.357400926371     0.804981021347    -0.061965071430    12.000000000000
         H           -3.297359073629    -1.086675978653    -0.255155071430     1.007825032230
         H           -0.402173073629    -2.081806978653    -0.259220071430     1.007825032230
         H           -1.030681073629     0.676816021347    -1.262209071430     1.007825032230
         H           -1.544311073629    -0.870669978653    -1.953356071430     1.007825032230
         H           -3.085592073629     0.112616021347     1.897598928570     1.007825032230
         H           -1.869647073629     1.191567021347     1.181613928570     1.007825032230
         H           -0.454448073629    -0.530729978653     2.143073928570     1.007825032230
         H           -1.596662073629    -1.802583978653     1.694611928570     1.007825032230
         H           -3.946102073629     0.683089021347    -1.906316071430     1.007825032230
         H           -4.760195873629     1.069053921347    -0.193038971430     1.007825032230
         H           -3.158102073629     1.905021021347    -0.893035071430     1.007825032230
         H            1.915380926371    -2.194939978653    -0.714034071430     1.007825032230
         H            4.158750926371    -1.087036978653    -0.736195071430     1.007825032230
         H            2.209227926371     2.509913021347     0.613365928570     1.007825032230
         H            4.308488926371     1.329955021347    -0.053243071430     1.007825032230

  Basis Set: AUG-CC-PVTZ
    Blend: AUG-CC-PVTZ
  Basis Set: (AUG-CC-PVTZ AUX)
    Blend: AUG-CC-PVTZ-JKFIT
	 Reference Energy          =    -479.8769183398354699 [Eh]
	 Singles Energy            =      -0.0000000000000000 [Eh]
	 Same-Spin Energy          =      -0.5327059791779383 [Eh]
	 Opposite-Spin Energy      =      -1.7470760235317724 [Eh]
	 Correlation Energy        =      -2.2797820027097107 [Eh]
	 Total Energy              =    -482.1567003425452071 [Eh]

	 ================> DF-SCS-MP2 Energies <==================
	-----------------------------------------------------------
	 SCS Same-Spin Scale       =       0.3333333333333333 [-]
	 SCS Opposite-Spin Scale   =       1.2000000000000000 [-]
	 SCS Same-Spin Energy      =      -0.1775686597259794 [Eh]
	 SCS Opposite-Spin Energy  =      -2.0964912282381269 [Eh]
	 SCS Correlation Energy    =      -2.2740598879641065 [Eh]
	 SCS Total Energy          =    -482.1509782277995555 [Eh]
	-----------------------------------------------------------

  Dipole Moment: [D]
     X:     1.5356      Y:    -1.1230      Z:    -0.5453     Total:     1.9790

*** Psi4 exiting successfully. Buy a developer a beer!
