                               Psi4 1.4a3.dev225

  ==> Input File <==

--------------------------------------------------------------------------
#psi4
#
memory 32 gb

molecule  {
0 1
  N        1.0430420     0.8835120     0.3262100
  C       -2.6935940    -0.1236090    -0.2650160
  C       -0.4170680    -1.0145740    -0.0079460
  C       -1.3683020    -0.3105490    -1.0112920
  C       -2.2166740     0.1783740     1.1559530
  C       -1.0996000    -0.8433070     1.3811970
  C       -3.6002280     0.9375310    -0.8724950
  C        0.9620280    -0.4146880    -0.0398380
  C        2.0893310    -1.1495780    -0.4236340
  C        3.3396130    -0.5322390    -0.4347340
  C        2.2533150     1.4653640     0.3147880
  C        3.4262710     0.8062240    -0.0568370
  H       -3.2284890    -1.0854330    -0.2500270
  H       -0.3333030    -2.0805640    -0.2540920
  H       -0.9618110     0.6780590    -1.2570810
  H       -1.4754410    -0.8694270    -1.9482280
  H       -3.0167220     0.1138590     1.9027270
  H       -1.8007770     1.1928100     1.1867420
  H       -0.3855780    -0.5294870     2.1482020
  H       -1.5277920    -1.8013410     1.6997400
  H       -3.8772320     0.6843320    -1.9011880
  H       -4.3542822     1.0292851    -0.3993811
  H       -3.0892320     1.9062640    -0.8879070
  H        1.9842510    -2.1936970    -0.7089060
  H        4.2276210    -1.0857940    -0.7310670
  H        2.2780980     2.5111560     0.6184940
  H        4.3773590     1.3311980    -0.0481150
units angstrom
no_reorient  #important for SAPT in psi4, default
symmetry c1  #important for SAPT in psi4, default
}

set PROPERTIES_ORIGIN ["COM"]
properties('MP2/aug-cc-pvtz', properties = ['dipole'])
--------------------------------------------------------------------------

    Molecular point group: c1
  Charge       = 0
  Multiplicity = 1
  Basis Set: AUG-CC-PVTZ
    Blend: AUG-CC-PVTZ
  Basis Set: (AUG-CC-PVTZ AUX)
    Blend: AUG-CC-PVTZ-JKFIT

    Orbital Energies [Eh]
    ---------------------

    Doubly Occupied:

       1A    -15.557526     2A    -11.274812     3A    -11.273937
       4A    -11.257530     5A    -11.235454     6A    -11.234633
       7A    -11.225243     8A    -11.213048     9A    -11.211044
      10A    -11.208303    11A    -11.203473    12A    -11.179854
      13A     -1.251390    14A     -1.127479    15A     -1.081457
      16A     -1.048302    17A     -0.999701    18A     -0.954171
      19A     -0.908309    20A     -0.854992    21A     -0.837285
      22A     -0.764856    23A     -0.756826    24A     -0.697069
      25A     -0.667551    26A     -0.643823    27A     -0.640039
      28A     -0.612448    29A     -0.591761    30A     -0.579535
      31A     -0.573545    32A     -0.566751    33A     -0.537510
      34A     -0.526365    35A     -0.512862    36A     -0.472634
      37A     -0.468420    38A     -0.461781    39A     -0.452126
      40A     -0.448066    41A     -0.440429    42A     -0.409697
      43A     -0.376554    44A     -0.331647

  @DF-RHF Final Energy:  -479.86276471285089

   => Energetics <=

    Nuclear Repulsion Energy =            686.9146504908537736
    One-Electron Energy =               -2012.2143515377647418
    Two-Electron Energy =                 845.4369363340600785
    Total Energy =                       -479.8627647128508897
  Basis Set: (AUG-CC-PVTZ AUX)
    Blend: AUG-CC-PVTZ-RI
    Molecular point group: c1

    Geometry (in Angstrom), charge = 0, multiplicity = 1:

       Center              X                  Y                   Z               Mass
    ------------   -----------------  -----------------  -----------------  -----------------
         N            0.972063683884     0.882525554386     0.322404696486    14.003074004430
         C           -2.764572316116    -0.124595445614    -0.268821303514    12.000000000000
         C           -0.488046316116    -1.015560445614    -0.011751303514    12.000000000000
         C           -1.439280316116    -0.311535445614    -1.015097303514    12.000000000000
         C           -2.287652316116     0.177387554386     1.152147696486    12.000000000000
         C           -1.170578316116    -0.844293445614     1.377391696486    12.000000000000
         C           -3.671206316116     0.936544554386    -0.876300303514    12.000000000000
         C            0.891049683884    -0.415674445614    -0.043643303514    12.000000000000
         C            2.018352683884    -1.150564445614    -0.427439303514    12.000000000000
         C            3.268634683884    -0.533225445614    -0.438539303514    12.000000000000
         C            2.182336683884     1.464377554386     0.310982696486    12.000000000000
         C            3.355292683884     0.805237554386    -0.060642303514    12.000000000000
         H           -3.299467316116    -1.086419445614    -0.253832303514     1.007825032230
         H           -0.404281316116    -2.081550445614    -0.257897303514     1.007825032230
         H           -1.032789316116     0.677072554386    -1.260886303514     1.007825032230
         H           -1.546419316116    -0.870413445614    -1.952033303514     1.007825032230
         H           -3.087700316116     0.112872554386     1.898921696486     1.007825032230
         H           -1.871755316116     1.191823554386     1.182936696486     1.007825032230
         H           -0.456556316116    -0.530473445614     2.144396696486     1.007825032230
         H           -1.598770316116    -1.802327445614     1.695934696486     1.007825032230
         H           -3.948210316116     0.683345554386    -1.904993303514     1.007825032230
         H           -4.425260516116     1.028298654386    -0.403186403514     1.007825032230
         H           -3.160210316116     1.905277554386    -0.891712303514     1.007825032230
         H            1.913272683884    -2.194683445614    -0.712711303514     1.007825032230
         H            4.156642683884    -1.086780445614    -0.734872303514     1.007825032230
         H            2.207119683884     2.510169554386     0.614688696486     1.007825032230
         H            4.306380683884     1.330211554386    -0.051920303514     1.007825032230

  Basis Set: AUG-CC-PVTZ
    Blend: AUG-CC-PVTZ
  Basis Set: (AUG-CC-PVTZ AUX)
    Blend: AUG-CC-PVTZ-JKFIT
	 Reference Energy          =    -479.8627647128508897 [Eh]
	 Singles Energy            =      -0.0000000000000000 [Eh]
	 Same-Spin Energy          =      -0.5329508425051553 [Eh]
	 Opposite-Spin Energy      =      -1.7449375171169546 [Eh]
	 Correlation Energy        =      -2.2778883596221098 [Eh]
	 Total Energy              =    -482.1406530724730146 [Eh]

	 ================> DF-SCS-MP2 Energies <==================
	-----------------------------------------------------------
	 SCS Same-Spin Scale       =       0.3333333333333333 [-]
	 SCS Opposite-Spin Scale   =       1.2000000000000000 [-]
	 SCS Same-Spin Energy      =      -0.1776502808350518 [Eh]
	 SCS Opposite-Spin Energy  =      -2.0939250205403455 [Eh]
	 SCS Correlation Energy    =      -2.2715753013753974 [Eh]
	 SCS Total Energy          =    -482.1343400142262681 [Eh]
	-----------------------------------------------------------

  Dipole Moment: [D]
     X:     1.2057      Y:    -1.0355      Z:    -0.4681     Total:     1.6569

*** Psi4 exiting successfully. Buy a developer a beer!
