                               Psi4 1.4a3.dev225

  ==> Input File <==

--------------------------------------------------------------------------
#psi4
#
memory 32 gb

molecule  {
0 1
  N        1.0430420     0.8835120     0.3262100
  C       -2.7427978    -0.1313563    -0.2458531
  C       -0.4170680    -1.0145740    -0.0079460
  C       -1.3683020    -0.3105490    -1.0112920
  C       -2.2166740     0.1783740     1.1559530
  C       -1.0996000    -0.8433070     1.3811970
  C       -3.6002280     0.9375310    -0.8724950
  C        0.9620280    -0.4146880    -0.0398380
  C        2.0893310    -1.1495780    -0.4236340
  C        3.3396130    -0.5322390    -0.4347340
  C        2.2533150     1.4653640     0.3147880
  C        3.4262710     0.8062240    -0.0568370
  H       -3.2284890    -1.0854330    -0.2500270
  H       -0.3333030    -2.0805640    -0.2540920
  H       -0.9618110     0.6780590    -1.2570810
  H       -1.4754410    -0.8694270    -1.9482280
  H       -3.0167220     0.1138590     1.9027270
  H       -1.8007770     1.1928100     1.1867420
  H       -0.3855780    -0.5294870     2.1482020
  H       -1.5277920    -1.8013410     1.6997400
  H       -3.8772320     0.6843320    -1.9011880
  H       -4.5228040     1.0497910    -0.2936460
  H       -3.0892320     1.9062640    -0.8879070
  H        1.9842510    -2.1936970    -0.7089060
  H        4.2276210    -1.0857940    -0.7310670
  H        2.2780980     2.5111560     0.6184940
  H        4.3773590     1.3311980    -0.0481150
units angstrom
no_reorient  #important for SAPT in psi4, default
symmetry c1  #important for SAPT in psi4, default
}

set PROPERTIES_ORIGIN ["COM"]
properties('MP2/aug-cc-pvtz', properties = ['dipole'])
--------------------------------------------------------------------------

    Molecular point group: c1
  Charge       = 0
  Multiplicity = 1
  Basis Set: AUG-CC-PVTZ
    Blend: AUG-CC-PVTZ
  Basis Set: (AUG-CC-PVTZ AUX)
    Blend: AUG-CC-PVTZ-JKFIT

    Orbital Energies [Eh]
    ---------------------

    Doubly Occupied:

       1A    -15.557803     2A    -11.275095     3A    -11.274178
       4A    -11.257758     5A    -11.235678     6A    -11.234879
       7A    -11.225629     8A    -11.214008     9A    -11.211599
      10A    -11.210764    11A    -11.204924    12A    -11.204067
      13A     -1.251625    14A     -1.123851    15A     -1.081631
      16A     -1.046692    17A     -0.992728    18A     -0.952589
      19A     -0.891396    20A     -0.855069    21A     -0.836905
      22A     -0.763308    23A     -0.760196    24A     -0.696316
      25A     -0.667142    26A     -0.640182    27A     -0.638032
      28A     -0.607271    29A     -0.586493    30A     -0.577029
      31A     -0.574118    32A     -0.552056    33A     -0.538754
      34A     -0.526626    35A     -0.513468    36A     -0.472069
      37A     -0.469009    38A     -0.466255    39A     -0.452325
      40A     -0.450008    41A     -0.429219    42A     -0.409398
      43A     -0.376815    44A     -0.331690

  @DF-RHF Final Energy:  -479.89415978757245

   => Energetics <=

    Nuclear Repulsion Energy =            685.1786266323285872
    One-Electron Energy =               -2008.8722793801352964
    Two-Electron Energy =                 843.7994929602342609
    Total Energy =                       -479.8941597875724483
  Basis Set: (AUG-CC-PVTZ AUX)
    Blend: AUG-CC-PVTZ-RI
    Molecular point group: c1

    Geometry (in Angstrom), charge = 0, multiplicity = 1:

       Center              X                  Y                   Z               Mass
    ------------   -----------------  -----------------  -----------------  -----------------
         N            0.976782427476     0.882974294698     0.320316089598    14.003074004430
         C           -2.809057372524    -0.131894005302    -0.251747010402    12.000000000000
         C           -0.483327572524    -1.015111705302    -0.013839910402    12.000000000000
         C           -1.434561572524    -0.311086705302    -1.017185910402    12.000000000000
         C           -2.282933572524     0.177836294698     1.150059089598    12.000000000000
         C           -1.165859572524    -0.843844705302     1.375303089598    12.000000000000
         C           -3.666487572524     0.936993294698    -0.878388910402    12.000000000000
         C            0.895768427476    -0.415225705302    -0.045731910402    12.000000000000
         C            2.023071427476    -1.150115705302    -0.429527910402    12.000000000000
         C            3.273353427476    -0.532776705302    -0.440627910402    12.000000000000
         C            2.187055427476     1.464826294698     0.308894089598    12.000000000000
         C            3.360011427476     0.805686294698    -0.062730910402    12.000000000000
         H           -3.294748572524    -1.085970705302    -0.255920910402     1.007825032230
         H           -0.399562572524    -2.081101705302    -0.259985910402     1.007825032230
         H           -1.028070572524     0.677521294698    -1.262974910402     1.007825032230
         H           -1.541700572524    -0.869964705302    -1.954121910402     1.007825032230
         H           -3.082981572524     0.113321294698     1.896833089598     1.007825032230
         H           -1.867036572524     1.192272294698     1.180848089598     1.007825032230
         H           -0.451837572524    -0.530024705302     2.142308089598     1.007825032230
         H           -1.594051572524    -1.801878705302     1.693846089598     1.007825032230
         H           -3.943491572524     0.683794294698    -1.907081910402     1.007825032230
         H           -4.589063572524     1.049253294698    -0.299539910402     1.007825032230
         H           -3.155491572524     1.905726294698    -0.893800910402     1.007825032230
         H            1.917991427476    -2.194234705302    -0.714799910402     1.007825032230
         H            4.161361427476    -1.086331705302    -0.736960910402     1.007825032230
         H            2.211838427476     2.510618294698     0.612600089598     1.007825032230
         H            4.311099427476     1.330660294698    -0.054008910402     1.007825032230

  Basis Set: AUG-CC-PVTZ
    Blend: AUG-CC-PVTZ
  Basis Set: (AUG-CC-PVTZ AUX)
    Blend: AUG-CC-PVTZ-JKFIT
	 Reference Energy          =    -479.8941597875724483 [Eh]
	 Singles Energy            =      -0.0000000000000000 [Eh]
	 Same-Spin Energy          =      -0.5327246876554652 [Eh]
	 Opposite-Spin Energy      =      -1.7456215287151919 [Eh]
	 Correlation Energy        =      -2.2783462163706574 [Eh]
	 Total Energy              =    -482.1725060039431128 [Eh]

	 ================> DF-SCS-MP2 Energies <==================
	-----------------------------------------------------------
	 SCS Same-Spin Scale       =       0.3333333333333333 [-]
	 SCS Opposite-Spin Scale   =       1.2000000000000000 [-]
	 SCS Same-Spin Energy      =      -0.1775748958851551 [Eh]
	 SCS Opposite-Spin Energy  =      -2.0947458344582301 [Eh]
	 SCS Correlation Energy    =      -2.2723207303433850 [Eh]
	 SCS Total Energy          =    -482.1664805179158293 [Eh]
	-----------------------------------------------------------

  Dipole Moment: [D]
     X:     1.2968      Y:    -1.0759      Z:    -0.4980     Total:     1.7571

*** Psi4 exiting successfully. Buy a developer a beer!
