                               Psi4 1.4a3.dev225

  ==> Input File <==

--------------------------------------------------------------------------
#psi4
#
memory 32 gb

molecule  {
0 1
  N        1.0430420     0.8835120     0.3262100
  C       -2.6935940    -0.1236090    -0.2650160
  C       -0.4170680    -1.0145740    -0.0079460
  C       -1.3683020    -0.3105490    -1.0112920
  C       -2.2166740     0.1783740     1.1559530
  C       -1.0996000    -0.8433070     1.3811970
  C       -3.6002280     0.9375310    -0.8724950
  C        0.9620280    -0.4146880    -0.0398380
  C        2.0893310    -1.1495780    -0.4236340
  C        3.3396130    -0.5322390    -0.4347340
  C        2.2533150     1.4653640     0.3147880
  C        3.4262710     0.8062240    -0.0568370
  H       -3.2284890    -1.0854330    -0.2500270
  H       -0.3333030    -2.0805640    -0.2540920
  H       -0.9618110     0.6780590    -1.2570810
  H       -1.4754410    -0.8694270    -1.9482280
  H       -3.0167220     0.1138590     1.9027270
  H       -1.8007770     1.1928100     1.1867420
  H       -0.3855780    -0.5294870     2.1482020
  H       -1.4497013    -1.6266213     1.6416463
  H       -3.8772320     0.6843320    -1.9011880
  H       -4.5228040     1.0497910    -0.2936460
  H       -3.0892320     1.9062640    -0.8879070
  H        1.9842510    -2.1936970    -0.7089060
  H        4.2276210    -1.0857940    -0.7310670
  H        2.2780980     2.5111560     0.6184940
  H        4.3773590     1.3311980    -0.0481150
units angstrom
no_reorient  #important for SAPT in psi4, default
symmetry c1  #important for SAPT in psi4, default
}

set PROPERTIES_ORIGIN ["COM"]
properties('MP2/aug-cc-pvtz', properties = ['dipole'])
--------------------------------------------------------------------------

    Molecular point group: c1
  Charge       = 0
  Multiplicity = 1
  Basis Set: AUG-CC-PVTZ
    Blend: AUG-CC-PVTZ
  Basis Set: (AUG-CC-PVTZ AUX)
    Blend: AUG-CC-PVTZ-JKFIT

    Orbital Energies [Eh]
    ---------------------

    Doubly Occupied:

       1A    -15.557096     2A    -11.274597     3A    -11.273710
       4A    -11.257348     5A    -11.235161     6A    -11.234378
       7A    -11.224938     8A    -11.214345     9A    -11.209163
      10A    -11.204964    11A    -11.202197    12A    -11.185734
      13A     -1.251064    14A     -1.129976    15A     -1.081203
      16A     -1.045791    17A     -0.998736    18A     -0.957887
      19A     -0.896023    20A     -0.854771    21A     -0.843714
      22A     -0.776194    23A     -0.755090    24A     -0.696111
      25A     -0.671186    26A     -0.641694    27A     -0.639784
      28A     -0.608417    29A     -0.597311    30A     -0.579116
      31A     -0.573664    32A     -0.552334    33A     -0.537376
      34A     -0.526389    35A     -0.514175    36A     -0.474141
      37A     -0.470249    38A     -0.460721    39A     -0.459856
      40A     -0.446571    41A     -0.438792    42A     -0.409204
      43A     -0.376369    44A     -0.331488

  @DF-RHF Final Energy:  -479.86379734847804

   => Energetics <=

    Nuclear Repulsion Energy =            687.0750584145715720
    One-Electron Energy =               -2012.5396568908649897
    Two-Electron Energy =                 845.6008011278153162
    Total Energy =                       -479.8637973484779877
  Basis Set: (AUG-CC-PVTZ AUX)
    Blend: AUG-CC-PVTZ-RI
    Molecular point group: c1

    Geometry (in Angstrom), charge = 0, multiplicity = 1:

       Center              X                  Y                   Z               Mass
    ------------   -----------------  -----------------  -----------------  -----------------
         N            0.972629339743     0.881304398119     0.322106694614    14.003074004430
         C           -2.764006660257    -0.125816601881    -0.269119305386    12.000000000000
         C           -0.487480660257    -1.016781601881    -0.012049305386    12.000000000000
         C           -1.438714660257    -0.312756601881    -1.015395305386    12.000000000000
         C           -2.287086660257     0.176166398119     1.151849694614    12.000000000000
         C           -1.170012660257    -0.845514601881     1.377093694614    12.000000000000
         C           -3.670640660257     0.935323398119    -0.876598305386    12.000000000000
         C            0.891615339743    -0.416895601881    -0.043941305386    12.000000000000
         C            2.018918339743    -1.151785601881    -0.427737305386    12.000000000000
         C            3.269200339743    -0.534446601881    -0.438837305386    12.000000000000
         C            2.182902339743     1.463156398119     0.310684694614    12.000000000000
         C            3.355858339743     0.804016398119    -0.060940305386    12.000000000000
         H           -3.298901660257    -1.087640601881    -0.254130305386     1.007825032230
         H           -0.403715660257    -2.082771601881    -0.258195305386     1.007825032230
         H           -1.032223660257     0.675851398119    -1.261184305386     1.007825032230
         H           -1.545853660257    -0.871634601881    -1.952331305386     1.007825032230
         H           -3.087134660257     0.111651398119     1.898623694614     1.007825032230
         H           -1.871189660257     1.190602398119     1.182638694614     1.007825032230
         H           -0.455990660257    -0.531694601881     2.144098694614     1.007825032230
         H           -1.520113960257    -1.628828901881     1.637542994614     1.007825032230
         H           -3.947644660257     0.682124398119    -1.905291305386     1.007825032230
         H           -4.593216660257     1.047583398119    -0.297749305386     1.007825032230
         H           -3.159644660257     1.904056398119    -0.892010305386     1.007825032230
         H            1.913838339743    -2.195904601881    -0.713009305386     1.007825032230
         H            4.157208339743    -1.088001601881    -0.735170305386     1.007825032230
         H            2.207685339743     2.508948398119     0.614390694614     1.007825032230
         H            4.306946339743     1.328990398119    -0.052218305386     1.007825032230

  Basis Set: AUG-CC-PVTZ
    Blend: AUG-CC-PVTZ
  Basis Set: (AUG-CC-PVTZ AUX)
    Blend: AUG-CC-PVTZ-JKFIT
	 Reference Energy          =    -479.8637973484780446 [Eh]
	 Singles Energy            =      -0.0000000000000000 [Eh]
	 Same-Spin Energy          =      -0.5328069365817417 [Eh]
	 Opposite-Spin Energy      =      -1.7446984733261073 [Eh]
	 Correlation Energy        =      -2.2775054099078491 [Eh]
	 Total Energy              =    -482.1413027583859048 [Eh]

	 ================> DF-SCS-MP2 Energies <==================
	-----------------------------------------------------------
	 SCS Same-Spin Scale       =       0.3333333333333333 [-]
	 SCS Opposite-Spin Scale   =       1.2000000000000000 [-]
	 SCS Same-Spin Energy      =      -0.1776023121939139 [Eh]
	 SCS Opposite-Spin Energy  =      -2.0936381679913287 [Eh]
	 SCS Correlation Energy    =      -2.2712404801852428 [Eh]
	 SCS Total Energy          =    -482.1350378286633145 [Eh]
	-----------------------------------------------------------

  Dipole Moment: [D]
     X:     1.2789      Y:    -1.1647      Z:    -0.4338     Total:     1.7834

*** Psi4 exiting successfully. Buy a developer a beer!
