                               Psi4 1.4a3.dev225

  ==> Input File <==

--------------------------------------------------------------------------
#psi4
#
memory 32 gb

molecule  {
0 1
  N        1.0430420     0.8835120     0.3262100
  C       -2.6935940    -0.1236090    -0.2650160
  C       -0.4170680    -1.0145740    -0.0079460
  C       -1.3683020    -0.3105490    -1.0112920
  C       -2.2166740     0.1783740     1.1559530
  C       -1.0996000    -0.8433070     1.3811970
  C       -3.6002280     0.9375310    -0.8724950
  C        0.9620280    -0.4146880    -0.0398380
  C        2.0893310    -1.1495780    -0.4236340
  C        3.3396130    -0.5322390    -0.4347340
  C        2.2533150     1.4653640     0.3147880
  C        3.4262710     0.8062240    -0.0568370
  H       -3.2284890    -1.0854330    -0.2500270
  H       -0.3333030    -2.0805640    -0.2540920
  H       -0.9618110     0.6780590    -1.2570810
  H       -1.4754410    -0.8694270    -1.9482280
  H       -3.0167220     0.1138590     1.9027270
  H       -1.8007770     1.1928100     1.1867420
  H       -0.3855780    -0.5294870     2.1482020
  H       -1.5277920    -1.8013410     1.6997400
  H       -3.8772320     0.6843320    -1.9011880
  H       -4.5228040     1.0497910    -0.2936460
  H       -3.0892320     1.9062640    -0.8879070
  H        1.9890824    -2.1456905    -0.6957898
  H        4.2276210    -1.0857940    -0.7310670
  H        2.2780980     2.5111560     0.6184940
  H        4.3773590     1.3311980    -0.0481150
units angstrom
no_reorient  #important for SAPT in psi4, default
symmetry c1  #important for SAPT in psi4, default
}

set PROPERTIES_ORIGIN ["COM"]
properties('MP2/aug-cc-pvtz', properties = ['dipole'])
--------------------------------------------------------------------------

    Molecular point group: c1
  Charge       = 0
  Multiplicity = 1
  Basis Set: AUG-CC-PVTZ
    Blend: AUG-CC-PVTZ
  Basis Set: (AUG-CC-PVTZ AUX)
    Blend: AUG-CC-PVTZ-JKFIT

    Orbital Energies [Eh]
    ---------------------

    Doubly Occupied:

       1A    -15.557576     2A    -11.274878     3A    -11.274139
       4A    -11.257482     5A    -11.235523     6A    -11.229188
       7A    -11.226217     8A    -11.214615     9A    -11.211426
      10A    -11.209740    11A    -11.205250    12A    -11.203717
      13A     -1.251568    14A     -1.127548    15A     -1.082372
      16A     -1.047103    17A     -0.991562    18A     -0.954988
      19A     -0.893843    20A     -0.857416    21A     -0.837110
      22A     -0.764355    23A     -0.755643    24A     -0.699310
      25A     -0.668349    26A     -0.645577    27A     -0.640019
      28A     -0.609231    29A     -0.585250    30A     -0.578126
      31A     -0.574152    32A     -0.551857    33A     -0.538488
      34A     -0.527754    35A     -0.512108    36A     -0.473416
      37A     -0.469065    38A     -0.461096    39A     -0.452713
      40A     -0.447041    41A     -0.439606    42A     -0.409860
      43A     -0.376681    44A     -0.331884

  @DF-RHF Final Energy:  -479.89588151605631

   => Energetics <=

    Nuclear Repulsion Energy =            686.1314935634774201
    One-Electron Energy =               -2010.7450625417666288
    Two-Electron Energy =                 844.7176874622327887
    Total Energy =                       -479.8958815160563063
  Basis Set: (AUG-CC-PVTZ AUX)
    Blend: AUG-CC-PVTZ-RI
    Molecular point group: c1

    Geometry (in Angstrom), charge = 0, multiplicity = 1:

       Center              X                  Y                   Z               Mass
    ------------   -----------------  -----------------  -----------------  -----------------
         N            0.973087584222     0.882097002257     0.321661269344    14.003074004430
         C           -2.763548415778    -0.125023997743    -0.269564730656    12.000000000000
         C           -0.487022415778    -1.015988997743    -0.012494730656    12.000000000000
         C           -1.438256415778    -0.311963997743    -1.015840730656    12.000000000000
         C           -2.286628415778     0.176959002257     1.151404269344    12.000000000000
         C           -1.169554415778    -0.844721997743     1.376648269344    12.000000000000
         C           -3.670182415778     0.936116002257    -0.877043730656    12.000000000000
         C            0.892073584222    -0.416102997743    -0.044386730656    12.000000000000
         C            2.019376584222    -1.150992997743    -0.428182730656    12.000000000000
         C            3.269658584222    -0.533653997743    -0.439282730656    12.000000000000
         C            2.183360584222     1.463949002257     0.310239269344    12.000000000000
         C            3.356316584222     0.804809002257    -0.061385730656    12.000000000000
         H           -3.298443415778    -1.086847997743    -0.254575730656     1.007825032230
         H           -0.403257415778    -2.081978997743    -0.258640730656     1.007825032230
         H           -1.031765415778     0.676644002257    -1.261629730656     1.007825032230
         H           -1.545395415778    -0.870841997743    -1.952776730656     1.007825032230
         H           -3.086676415778     0.112444002257     1.898178269344     1.007825032230
         H           -1.870731415778     1.191395002257     1.182193269344     1.007825032230
         H           -0.455532415778    -0.530901997743     2.143653269344     1.007825032230
         H           -1.597746415778    -1.802755997743     1.695191269344     1.007825032230
         H           -3.947186415778     0.682917002257    -1.905736730656     1.007825032230
         H           -4.592758415778     1.048376002257    -0.298194730656     1.007825032230
         H           -3.159186415778     1.904849002257    -0.892455730656     1.007825032230
         H            1.919127984222    -2.147105497743    -0.700338530656     1.007825032230
         H            4.157666584222    -1.087208997743    -0.735615730656     1.007825032230
         H            2.208143584222     2.509741002257     0.613945269344     1.007825032230
         H            4.307404584222     1.329783002257    -0.052663730656     1.007825032230

  Basis Set: AUG-CC-PVTZ
    Blend: AUG-CC-PVTZ
  Basis Set: (AUG-CC-PVTZ AUX)
    Blend: AUG-CC-PVTZ-JKFIT
	 Reference Energy          =    -479.8958815160563063 [Eh]
	 Singles Energy            =      -0.0000000000000000 [Eh]
	 Same-Spin Energy          =      -0.5326757777478753 [Eh]
	 Opposite-Spin Energy      =      -1.7451955247500808 [Eh]
	 Correlation Energy        =      -2.2778713024979562 [Eh]
	 Total Energy              =    -482.1737528185542487 [Eh]

	 ================> DF-SCS-MP2 Energies <==================
	-----------------------------------------------------------
	 SCS Same-Spin Scale       =       0.3333333333333333 [-]
	 SCS Opposite-Spin Scale   =       1.2000000000000000 [-]
	 SCS Same-Spin Energy      =      -0.1775585925826251 [Eh]
	 SCS Opposite-Spin Energy  =      -2.0942346297000967 [Eh]
	 SCS Correlation Energy    =      -2.2717932222827217 [Eh]
	 SCS Total Energy          =    -482.1676747383390307 [Eh]
	-----------------------------------------------------------

  Dipole Moment: [D]
     X:     1.3271      Y:    -1.0838      Z:    -0.4982     Total:     1.7844

*** Psi4 exiting successfully. Buy a developer a beer!
