                               Psi4 1.4a3.dev225

  ==> Input File <==

--------------------------------------------------------------------------
#psi4
#
memory 32 gb

molecule  {
0 1
  N        1.0430420     0.8835120     0.3262100
  C       -2.6935940    -0.1236090    -0.2650160
  C       -0.4358104    -0.9683213     0.0083717
  C       -1.3683020    -0.3105490    -1.0112920
  C       -2.2166740     0.1783740     1.1559530
  C       -1.0996000    -0.8433070     1.3811970
  C       -3.6002280     0.9375310    -0.8724950
  C        0.9620280    -0.4146880    -0.0398380
  C        2.0893310    -1.1495780    -0.4236340
  C        3.3396130    -0.5322390    -0.4347340
  C        2.2533150     1.4653640     0.3147880
  C        3.4262710     0.8062240    -0.0568370
  H       -3.2284890    -1.0854330    -0.2500270
  H       -0.3333030    -2.0805640    -0.2540920
  H       -0.9618110     0.6780590    -1.2570810
  H       -1.4754410    -0.8694270    -1.9482280
  H       -3.0167220     0.1138590     1.9027270
  H       -1.8007770     1.1928100     1.1867420
  H       -0.3855780    -0.5294870     2.1482020
  H       -1.5277920    -1.8013410     1.6997400
  H       -3.8772320     0.6843320    -1.9011880
  H       -4.5228040     1.0497910    -0.2936460
  H       -3.0892320     1.9062640    -0.8879070
  H        1.9842510    -2.1936970    -0.7089060
  H        4.2276210    -1.0857940    -0.7310670
  H        2.2780980     2.5111560     0.6184940
  H        4.3773590     1.3311980    -0.0481150
units angstrom
no_reorient  #important for SAPT in psi4, default
symmetry c1  #important for SAPT in psi4, default
}

set PROPERTIES_ORIGIN ["COM"]
properties('MP2/aug-cc-pvtz', properties = ['dipole'])
--------------------------------------------------------------------------

    Molecular point group: c1
  Charge       = 0
  Multiplicity = 1
  Basis Set: AUG-CC-PVTZ
    Blend: AUG-CC-PVTZ
  Basis Set: (AUG-CC-PVTZ AUX)
    Blend: AUG-CC-PVTZ-JKFIT

    Orbital Energies [Eh]
    ---------------------

    Doubly Occupied:

       1A    -15.557883     2A    -11.275270     3A    -11.274169
       4A    -11.258480     5A    -11.236447     6A    -11.236295
       7A    -11.228111     8A    -11.214579     9A    -11.210286
      10A    -11.208623    11A    -11.205175    12A    -11.203667
      13A     -1.252512    14A     -1.131674    15A     -1.082368
      16A     -1.046019    17A     -0.993114    18A     -0.956032
      19A     -0.894142    20A     -0.855306    21A     -0.837725
      22A     -0.763026    23A     -0.754725    24A     -0.695507
      25A     -0.669508    26A     -0.643270    27A     -0.639297
      28A     -0.609265    29A     -0.584124    30A     -0.577166
      31A     -0.573067    32A     -0.551912    33A     -0.538112
      34A     -0.527183    35A     -0.510928    36A     -0.479064
      37A     -0.472807    38A     -0.460892    39A     -0.447595
      40A     -0.443110    41A     -0.437632    42A     -0.411164
      43A     -0.377317    44A     -0.333582

  @DF-RHF Final Energy:  -479.89282396577090

   => Energetics <=

    Nuclear Repulsion Energy =            686.5374476170545677
    One-Electron Energy =               -2011.5442903010830378
    Two-Electron Energy =                 845.1140187182576256
    Total Energy =                       -479.8928239657708446
  Basis Set: (AUG-CC-PVTZ AUX)
    Blend: AUG-CC-PVTZ-RI
    Molecular point group: c1

    Geometry (in Angstrom), charge = 0, multiplicity = 1:

       Center              X                  Y                   Z               Mass
    ------------   -----------------  -----------------  -----------------  -----------------
         N            0.974513709873     0.878952458847     0.320527995660    14.003074004430
         C           -2.762122290127    -0.128168541153    -0.270698004340    12.000000000000
         C           -0.504338690127    -0.972880841153     0.002689695660    12.000000000000
         C           -1.436830290127    -0.315108541153    -1.016974004340    12.000000000000
         C           -2.285202290127     0.173814458847     1.150270995660    12.000000000000
         C           -1.168128290127    -0.847866541153     1.375514995660    12.000000000000
         C           -3.668756290127     0.932971458847    -0.878177004340    12.000000000000
         C            0.893499709873    -0.419247541153    -0.045520004340    12.000000000000
         C            2.020802709873    -1.154137541153    -0.429316004340    12.000000000000
         C            3.271084709873    -0.536798541153    -0.440416004340    12.000000000000
         C            2.184786709873     1.460804458847     0.309105995660    12.000000000000
         C            3.357742709873     0.801664458847    -0.062519004340    12.000000000000
         H           -3.297017290127    -1.089992541153    -0.255709004340     1.007825032230
         H           -0.401831290127    -2.085123541153    -0.259774004340     1.007825032230
         H           -1.030339290127     0.673499458847    -1.262763004340     1.007825032230
         H           -1.543969290127    -0.873986541153    -1.953910004340     1.007825032230
         H           -3.085250290127     0.109299458847     1.897044995660     1.007825032230
         H           -1.869305290127     1.188250458847     1.181059995660     1.007825032230
         H           -0.454106290127    -0.534046541153     2.142519995660     1.007825032230
         H           -1.596320290127    -1.805900541153     1.694057995660     1.007825032230
         H           -3.945760290127     0.679772458847    -1.906870004340     1.007825032230
         H           -4.591332290127     1.045231458847    -0.299328004340     1.007825032230
         H           -3.157760290127     1.901704458847    -0.893589004340     1.007825032230
         H            1.915722709873    -2.198256541153    -0.714588004340     1.007825032230
         H            4.159092709873    -1.090353541153    -0.736749004340     1.007825032230
         H            2.209569709873     2.506596458847     0.612811995660     1.007825032230
         H            4.308830709873     1.326638458847    -0.053797004340     1.007825032230

  Basis Set: AUG-CC-PVTZ
    Blend: AUG-CC-PVTZ
  Basis Set: (AUG-CC-PVTZ AUX)
    Blend: AUG-CC-PVTZ-JKFIT
	 Reference Energy          =    -479.8928239657709014 [Eh]
	 Singles Energy            =      -0.0000000000000000 [Eh]
	 Same-Spin Energy          =      -0.5331762603582777 [Eh]
	 Opposite-Spin Energy      =      -1.7461745084646529 [Eh]
	 Correlation Energy        =      -2.2793507688229306 [Eh]
	 Total Energy              =    -482.1721747345938525 [Eh]

	 ================> DF-SCS-MP2 Energies <==================
	-----------------------------------------------------------
	 SCS Same-Spin Scale       =       0.3333333333333333 [-]
	 SCS Opposite-Spin Scale   =       1.2000000000000000 [-]
	 SCS Same-Spin Energy      =      -0.1777254201194259 [Eh]
	 SCS Opposite-Spin Energy  =      -2.0954094101575835 [Eh]
	 SCS Correlation Energy    =      -2.2731348302770096 [Eh]
	 SCS Total Energy          =    -482.1659587960479030 [Eh]
	-----------------------------------------------------------

  Dipole Moment: [D]
     X:     1.3629      Y:    -1.0265      Z:    -0.4835     Total:     1.7735

*** Psi4 exiting successfully. Buy a developer a beer!
