                               Psi4 1.4a3.dev225

  ==> Input File <==

--------------------------------------------------------------------------
#psi4
#
memory 32 gb

molecule  {
0 1
  N        1.0430420     0.8835120     0.3262100
  C       -2.6935940    -0.1236090    -0.2650160
  C       -0.4170680    -1.0145740    -0.0079460
  C       -1.4251635    -0.3289150    -1.1000051
  C       -2.2166740     0.1783740     1.1559530
  C       -1.0996000    -0.8433070     1.3811970
  C       -3.6002280     0.9375310    -0.8724950
  C        0.9620280    -0.4146880    -0.0398380
  C        2.0893310    -1.1495780    -0.4236340
  C        3.3396130    -0.5322390    -0.4347340
  C        2.2533150     1.4653640     0.3147880
  C        3.4262710     0.8062240    -0.0568370
  H       -3.2284890    -1.0854330    -0.2500270
  H       -0.3333030    -2.0805640    -0.2540920
  H       -0.9618110     0.6780590    -1.2570810
  H       -1.4754410    -0.8694270    -1.9482280
  H       -3.0167220     0.1138590     1.9027270
  H       -1.8007770     1.1928100     1.1867420
  H       -0.3855780    -0.5294870     2.1482020
  H       -1.5277920    -1.8013410     1.6997400
  H       -3.8772320     0.6843320    -1.9011880
  H       -4.5228040     1.0497910    -0.2936460
  H       -3.0892320     1.9062640    -0.8879070
  H        1.9842510    -2.1936970    -0.7089060
  H        4.2276210    -1.0857940    -0.7310670
  H        2.2780980     2.5111560     0.6184940
  H        4.3773590     1.3311980    -0.0481150
units angstrom
no_reorient  #important for SAPT in psi4, default
symmetry c1  #important for SAPT in psi4, default
}

set PROPERTIES_ORIGIN ["COM"]
properties('MP2/aug-cc-pvtz', properties = ['dipole'])
--------------------------------------------------------------------------

    Molecular point group: c1
  Charge       = 0
  Multiplicity = 1
  Basis Set: AUG-CC-PVTZ
    Blend: AUG-CC-PVTZ
  Basis Set: (AUG-CC-PVTZ AUX)
    Blend: AUG-CC-PVTZ-JKFIT

    Orbital Energies [Eh]
    ---------------------

    Doubly Occupied:

       1A    -15.557391     2A    -11.274877     3A    -11.273826
       4A    -11.257473     5A    -11.235354     6A    -11.234540
       7A    -11.228595     8A    -11.215885     9A    -11.211796
      10A    -11.209511    11A    -11.205130    12A    -11.204135
      13A     -1.250903    14A     -1.120860    15A     -1.081329
      16A     -1.045392    17A     -0.990976    18A     -0.952906
      19A     -0.894503    20A     -0.854505    21A     -0.836716
      22A     -0.765609    23A     -0.757332    24A     -0.694959
      25A     -0.670532    26A     -0.644225    27A     -0.638005
      28A     -0.605489    29A     -0.583646    30A     -0.575875
      31A     -0.573432    32A     -0.554967    33A     -0.538124
      34A     -0.528426    35A     -0.511072    36A     -0.484480
      37A     -0.469080    38A     -0.455945    39A     -0.449366
      40A     -0.443127    41A     -0.435862    42A     -0.408167
      43A     -0.376568    44A     -0.330065

  @DF-RHF Final Energy:  -479.88520756710471

   => Energetics <=

    Nuclear Repulsion Energy =            684.1679579726567226
    One-Electron Energy =               -2006.8444098648856198
    Two-Electron Energy =                 842.7912443251241257
    Total Energy =                       -479.8852075671047714
  Basis Set: (AUG-CC-PVTZ AUX)
    Blend: AUG-CC-PVTZ-RI
    Molecular point group: c1

    Geometry (in Angstrom), charge = 0, multiplicity = 1:

       Center              X                  Y                   Z               Mass
    ------------   -----------------  -----------------  -----------------  -----------------
         N            0.977352761039     0.883765158926     0.328350525972    14.003074004430
         C           -2.759283238961    -0.123355841074    -0.262875474028    12.000000000000
         C           -0.482757238961    -1.014320841074    -0.005805474028    12.000000000000
         C           -1.490852738961    -0.328661841074    -1.097864574028    12.000000000000
         C           -2.282363238961     0.178627158926     1.158093525972    12.000000000000
         C           -1.165289238961    -0.843053841074     1.383337525972    12.000000000000
         C           -3.665917238961     0.937784158926    -0.870354474028    12.000000000000
         C            0.896338761039    -0.414434841074    -0.037697474028    12.000000000000
         C            2.023641761039    -1.149324841074    -0.421493474028    12.000000000000
         C            3.273923761039    -0.531985841074    -0.432593474028    12.000000000000
         C            2.187625761039     1.465617158926     0.316928525972    12.000000000000
         C            3.360581761039     0.806477158926    -0.054696474028    12.000000000000
         H           -3.294178238961    -1.085179841074    -0.247886474028     1.007825032230
         H           -0.398992238961    -2.080310841074    -0.251951474028     1.007825032230
         H           -1.027500238961     0.678312158926    -1.254940474028     1.007825032230
         H           -1.541130238961    -0.869173841074    -1.946087474028     1.007825032230
         H           -3.082411238961     0.114112158926     1.904867525972     1.007825032230
         H           -1.866466238961     1.193063158926     1.188882525972     1.007825032230
         H           -0.451267238961    -0.529233841074     2.150342525972     1.007825032230
         H           -1.593481238961    -1.801087841074     1.701880525972     1.007825032230
         H           -3.942921238961     0.684585158926    -1.899047474028     1.007825032230
         H           -4.588493238961     1.050044158926    -0.291505474028     1.007825032230
         H           -3.154921238961     1.906517158926    -0.885766474028     1.007825032230
         H            1.918561761039    -2.193443841074    -0.706765474028     1.007825032230
         H            4.161931761039    -1.085540841074    -0.728926474028     1.007825032230
         H            2.212408761039     2.511409158926     0.620634525972     1.007825032230
         H            4.311669761039     1.331451158926    -0.045974474028     1.007825032230

  Basis Set: AUG-CC-PVTZ
    Blend: AUG-CC-PVTZ
  Basis Set: (AUG-CC-PVTZ AUX)
    Blend: AUG-CC-PVTZ-JKFIT
	 Reference Energy          =    -479.8852075671047146 [Eh]
	 Singles Energy            =      -0.0000000000000000 [Eh]
	 Same-Spin Energy          =      -0.5326281217888187 [Eh]
	 Opposite-Spin Energy      =      -1.7459142606410378 [Eh]
	 Correlation Energy        =      -2.2785423824298565 [Eh]
	 Total Energy              =    -482.1637499495345764 [Eh]

	 ================> DF-SCS-MP2 Energies <==================
	-----------------------------------------------------------
	 SCS Same-Spin Scale       =       0.3333333333333333 [-]
	 SCS Opposite-Spin Scale   =       1.2000000000000000 [-]
	 SCS Same-Spin Energy      =      -0.1775427072629396 [Eh]
	 SCS Opposite-Spin Energy  =      -2.0950971127692455 [Eh]
	 SCS Correlation Energy    =      -2.2726398200321851 [Eh]
	 SCS Total Energy          =    -482.1578473871368828 [Eh]
	-----------------------------------------------------------

  Dipole Moment: [D]
     X:     1.3020      Y:    -1.1186      Z:    -0.5094     Total:     1.7906

*** Psi4 exiting successfully. Buy a developer a beer!
