                               Psi4 1.4a3.dev225

  ==> Input File <==

--------------------------------------------------------------------------
#psi4
#
memory 32 gb

molecule  {
0 1
  N        1.1359627     0.8786318     0.3108019
  C       -2.6935940    -0.1236090    -0.2650160
  C       -0.4170680    -1.0145740    -0.0079460
  C       -1.3683020    -0.3105490    -1.0112920
  C       -2.2166740     0.1783740     1.1559530
  C       -1.0996000    -0.8433070     1.3811970
  C       -3.6002280     0.9375310    -0.8724950
  C        0.9620280    -0.4146880    -0.0398380
  C        2.0893310    -1.1495780    -0.4236340
  C        3.3396130    -0.5322390    -0.4347340
  C        2.2533150     1.4653640     0.3147880
  C        3.4262710     0.8062240    -0.0568370
  H       -3.2284890    -1.0854330    -0.2500270
  H       -0.3333030    -2.0805640    -0.2540920
  H       -0.9618110     0.6780590    -1.2570810
  H       -1.4754410    -0.8694270    -1.9482280
  H       -3.0167220     0.1138590     1.9027270
  H       -1.8007770     1.1928100     1.1867420
  H       -0.3855780    -0.5294870     2.1482020
  H       -1.5277920    -1.8013410     1.6997400
  H       -3.8772320     0.6843320    -1.9011880
  H       -4.5228040     1.0497910    -0.2936460
  H       -3.0892320     1.9062640    -0.8879070
  H        1.9842510    -2.1936970    -0.7089060
  H        4.2276210    -1.0857940    -0.7310670
  H        2.2780980     2.5111560     0.6184940
  H        4.3773590     1.3311980    -0.0481150
units angstrom
no_reorient  #important for SAPT in psi4, default
symmetry c1  #important for SAPT in psi4, default
}

set PROPERTIES_ORIGIN ["COM"]
properties('MP2/aug-cc-pvtz', properties = ['dipole'])
--------------------------------------------------------------------------

    Molecular point group: c1
  Charge       = 0
  Multiplicity = 1
  Basis Set: AUG-CC-PVTZ
    Blend: AUG-CC-PVTZ
  Basis Set: (AUG-CC-PVTZ AUX)
    Blend: AUG-CC-PVTZ-JKFIT

    Orbital Energies [Eh]
    ---------------------

    Doubly Occupied:

       1A    -15.545849     2A    -11.275441     3A    -11.263548
       4A    -11.253495     5A    -11.233272     6A    -11.231980
       7A    -11.228964     8A    -11.215911     9A    -11.212928
      10A    -11.211285    11A    -11.206276    12A    -11.205365
      13A     -1.270547    14A     -1.130482    15A     -1.080361
      16A     -1.050541    17A     -0.992302    18A     -0.955977
      19A     -0.894999    20A     -0.851630    21A     -0.842960
      22A     -0.768658    23A     -0.757120    24A     -0.700142
      25A     -0.669205    26A     -0.643541    27A     -0.639422
      28A     -0.608913    29A     -0.587089    30A     -0.580058
      31A     -0.575023    32A     -0.553187    33A     -0.544301
      34A     -0.530954    35A     -0.515032    36A     -0.475130
      37A     -0.470964    38A     -0.462286    39A     -0.455776
      40A     -0.448497    41A     -0.440511    42A     -0.392827
      43A     -0.381906    44A     -0.328826

  @DF-RHF Final Energy:  -479.89354930015236

   => Energetics <=

    Nuclear Repulsion Energy =            686.7281859543485325
    One-Electron Energy =               -2011.8765112852229322
    Two-Electron Energy =                 845.2547760307219278
    Total Energy =                       -479.8935493001523582
  Basis Set: (AUG-CC-PVTZ AUX)
    Blend: AUG-CC-PVTZ-RI
    Molecular point group: c1

    Geometry (in Angstrom), charge = 0, multiplicity = 1:

       Center              X                  Y                   Z               Mass
    ------------   -----------------  -----------------  -----------------  -----------------
         N            1.057962711876     0.877941228948     0.307674339654    14.003074004430
         C           -2.771593988124    -0.124299571052    -0.268143560346    12.000000000000
         C           -0.495067988124    -1.015264571052    -0.011073560346    12.000000000000
         C           -1.446301988124    -0.311239571052    -1.014419560346    12.000000000000
         C           -2.294673988124     0.177683428948     1.152825439654    12.000000000000
         C           -1.177599988124    -0.843997571052     1.378069439654    12.000000000000
         C           -3.678227988124     0.936840428948    -0.875622560346    12.000000000000
         C            0.884028011876    -0.415378571052    -0.042965560346    12.000000000000
         C            2.011331011876    -1.150268571052    -0.426761560346    12.000000000000
         C            3.261613011876    -0.532929571052    -0.437861560346    12.000000000000
         C            2.175315011876     1.464673428948     0.311660439654    12.000000000000
         C            3.348271011876     0.805533428948    -0.059964560346    12.000000000000
         H           -3.306488988124    -1.086123571052    -0.253154560346     1.007825032230
         H           -0.411302988124    -2.081254571052    -0.257219560346     1.007825032230
         H           -1.039810988124     0.677368428948    -1.260208560346     1.007825032230
         H           -1.553440988124    -0.870117571052    -1.951355560346     1.007825032230
         H           -3.094721988124     0.113168428948     1.899599439654     1.007825032230
         H           -1.878776988124     1.192119428948     1.183614439654     1.007825032230
         H           -0.463577988124    -0.530177571052     2.145074439654     1.007825032230
         H           -1.605791988124    -1.802031571052     1.696612439654     1.007825032230
         H           -3.955231988124     0.683641428948    -1.904315560346     1.007825032230
         H           -4.600803988124     1.049100428948    -0.296773560346     1.007825032230
         H           -3.167231988124     1.905573428948    -0.891034560346     1.007825032230
         H            1.906251011876    -2.194387571052    -0.712033560346     1.007825032230
         H            4.149621011876    -1.086484571052    -0.734194560346     1.007825032230
         H            2.200098011876     2.510465428948     0.615366439654     1.007825032230
         H            4.299359011876     1.330507428948    -0.051242560346     1.007825032230

  Basis Set: AUG-CC-PVTZ
    Blend: AUG-CC-PVTZ
  Basis Set: (AUG-CC-PVTZ AUX)
    Blend: AUG-CC-PVTZ-JKFIT
	 Reference Energy          =    -479.8935493001523582 [Eh]
	 Singles Energy            =      -0.0000000000000000 [Eh]
	 Same-Spin Energy          =      -0.5319116190619211 [Eh]
	 Opposite-Spin Energy      =      -1.7429147095001016 [Eh]
	 Correlation Energy        =      -2.2748263285620229 [Eh]
	 Total Energy              =    -482.1683756287143865 [Eh]

	 ================> DF-SCS-MP2 Energies <==================
	-----------------------------------------------------------
	 SCS Same-Spin Scale       =       0.3333333333333333 [-]
	 SCS Opposite-Spin Scale   =       1.2000000000000000 [-]
	 SCS Same-Spin Energy      =      -0.1773038730206404 [Eh]
	 SCS Opposite-Spin Energy  =      -2.0914976514001218 [Eh]
	 SCS Correlation Energy    =      -2.2688015244207622 [Eh]
	 SCS Total Energy          =    -482.1623508245731387 [Eh]
	-----------------------------------------------------------

  Dipole Moment: [D]
     X:     1.0645      Y:    -1.0711      Z:    -0.4580     Total:     1.5780

*** Psi4 exiting successfully. Buy a developer a beer!
