                               Psi4 1.4a3.dev225

  ==> Input File <==

--------------------------------------------------------------------------
#psi4
#
memory 32 gb

molecule  {
0 1
  N        1.0430420     0.8835120     0.3262100
  C       -2.6935940    -0.1236090    -0.2650160
  C       -0.4170680    -1.0145740    -0.0079460
  C       -1.1953334    -0.3349472    -1.1086911
  C       -2.2166740     0.1783740     1.1559530
  C       -1.0996000    -0.8433070     1.3811970
  C       -3.6002280     0.9375310    -0.8724950
  C        0.9620280    -0.4146880    -0.0398380
  C        2.0893310    -1.1495780    -0.4236340
  C        3.3396130    -0.5322390    -0.4347340
  C        2.2533150     1.4653640     0.3147880
  C        3.4262710     0.8062240    -0.0568370
  H       -3.2284890    -1.0854330    -0.2500270
  H       -0.3333030    -2.0805640    -0.2540920
  H       -0.9618110     0.6780590    -1.2570810
  H       -1.4754410    -0.8694270    -1.9482280
  H       -3.0167220     0.1138590     1.9027270
  H       -1.8007770     1.1928100     1.1867420
  H       -0.3855780    -0.5294870     2.1482020
  H       -1.5277920    -1.8013410     1.6997400
  H       -3.8772320     0.6843320    -1.9011880
  H       -4.5228040     1.0497910    -0.2936460
  H       -3.0892320     1.9062640    -0.8879070
  H        1.9842510    -2.1936970    -0.7089060
  H        4.2276210    -1.0857940    -0.7310670
  H        2.2780980     2.5111560     0.6184940
  H        4.3773590     1.3311980    -0.0481150
units angstrom
no_reorient  #important for SAPT in psi4, default
symmetry c1  #important for SAPT in psi4, default
}

set PROPERTIES_ORIGIN ["COM"]
properties('MP2/aug-cc-pvtz', properties = ['dipole'])
--------------------------------------------------------------------------

    Molecular point group: c1
  Charge       = 0
  Multiplicity = 1
  Basis Set: AUG-CC-PVTZ
    Blend: AUG-CC-PVTZ
  Basis Set: (AUG-CC-PVTZ AUX)
    Blend: AUG-CC-PVTZ-JKFIT

    Orbital Energies [Eh]
    ---------------------

    Doubly Occupied:

       1A    -15.556732     2A    -11.274209     3A    -11.273865
       4A    -11.257131     5A    -11.234377     6A    -11.233341
       7A    -11.227058     8A    -11.222371     9A    -11.213131
      10A    -11.208798    11A    -11.204906    12A    -11.204129
      13A     -1.251485    14A     -1.118699    15A     -1.080608
      16A     -1.043103    17A     -0.988161    18A     -0.962240
      19A     -0.888469    20A     -0.854448    21A     -0.836454
      22A     -0.767081    23A     -0.754638    24A     -0.696862
      25A     -0.669718    26A     -0.639274    27A     -0.636645
      28A     -0.604895    29A     -0.587726    30A     -0.582856
      31A     -0.572157    32A     -0.550748    33A     -0.540200
      34A     -0.532963    35A     -0.514068    36A     -0.492963
      37A     -0.471001    38A     -0.469615    39A     -0.451704
      40A     -0.444633    41A     -0.412894    42A     -0.389721
      43A     -0.375552    44A     -0.329505

  @DF-RHF Final Energy:  -479.86830803293645

   => Energetics <=

    Nuclear Repulsion Energy =            684.7559099327861531
    One-Electron Energy =               -2008.0061762796090079
    Two-Electron Energy =                 843.3819583138863436
    Total Energy =                       -479.8683080329365112
  Basis Set: (AUG-CC-PVTZ AUX)
    Blend: AUG-CC-PVTZ-RI
    Molecular point group: c1

    Geometry (in Angstrom), charge = 0, multiplicity = 1:

       Center              X                  Y                   Z               Mass
    ------------   -----------------  -----------------  -----------------  -----------------
         N            0.960235373340     0.884214427782     0.328997445716    14.003074004430
         C           -2.776400626660    -0.122906572218    -0.262228554284    12.000000000000
         C           -0.499874626660    -1.013871572218    -0.005158554284    12.000000000000
         C           -1.278140026660    -0.334244772218    -1.105903654284    12.000000000000
         C           -2.299480626660     0.179076427782     1.158740445716    12.000000000000
         C           -1.182406626660    -0.842604572218     1.383984445716    12.000000000000
         C           -3.683034626660     0.938233427782    -0.869707554284    12.000000000000
         C            0.879221373340    -0.413985572218    -0.037050554284    12.000000000000
         C            2.006524373340    -1.148875572218    -0.420846554284    12.000000000000
         C            3.256806373340    -0.531536572218    -0.431946554284    12.000000000000
         C            2.170508373340     1.466066427782     0.317575445716    12.000000000000
         C            3.343464373340     0.806926427782    -0.054049554284    12.000000000000
         H           -3.311295626660    -1.084730572218    -0.247239554284     1.007825032230
         H           -0.416109626660    -2.079861572218    -0.251304554284     1.007825032230
         H           -1.044617626660     0.678761427782    -1.254293554284     1.007825032230
         H           -1.558247626660    -0.868724572218    -1.945440554284     1.007825032230
         H           -3.099528626660     0.114561427782     1.905514445716     1.007825032230
         H           -1.883583626660     1.193512427782     1.189529445716     1.007825032230
         H           -0.468384626660    -0.528784572218     2.150989445716     1.007825032230
         H           -1.610598626660    -1.800638572218     1.702527445716     1.007825032230
         H           -3.960038626660     0.685034427782    -1.898400554284     1.007825032230
         H           -4.605610626660     1.050493427782    -0.290858554284     1.007825032230
         H           -3.172038626660     1.906966427782    -0.885119554284     1.007825032230
         H            1.901444373340    -2.192994572218    -0.706118554284     1.007825032230
         H            4.144814373340    -1.085091572218    -0.728279554284     1.007825032230
         H            2.195291373340     2.511858427782     0.621281445716     1.007825032230
         H            4.294552373340     1.331900427782    -0.045327554284     1.007825032230

  Basis Set: AUG-CC-PVTZ
    Blend: AUG-CC-PVTZ
  Basis Set: (AUG-CC-PVTZ AUX)
    Blend: AUG-CC-PVTZ-JKFIT
	 Reference Energy          =    -479.8683080329364543 [Eh]
	 Singles Energy            =      -0.0000000000000000 [Eh]
	 Same-Spin Energy          =      -0.5335068950570458 [Eh]
	 Opposite-Spin Energy      =      -1.7478322874343624 [Eh]
	 Correlation Energy        =      -2.2813391824914082 [Eh]
	 Total Energy              =    -482.1496472154278763 [Eh]

	 ================> DF-SCS-MP2 Energies <==================
	-----------------------------------------------------------
	 SCS Same-Spin Scale       =       0.3333333333333333 [-]
	 SCS Opposite-Spin Scale   =       1.2000000000000000 [-]
	 SCS Same-Spin Energy      =      -0.1778356316856819 [Eh]
	 SCS Opposite-Spin Energy  =      -2.0973987449212346 [Eh]
	 SCS Correlation Energy    =      -2.2752343766069165 [Eh]
	 SCS Total Energy          =    -482.1435424095433859 [Eh]
	-----------------------------------------------------------

  Dipole Moment: [D]
     X:     1.1879      Y:    -1.1058      Z:    -0.4726     Total:     1.6903

*** Psi4 exiting successfully. Buy a developer a beer!
