                               Psi4 1.4a3.dev225

  ==> Input File <==

--------------------------------------------------------------------------
#psi4
#
memory 32 gb

molecule  {
0 1
  N        1.0430420     0.8835120     0.3262100
  C       -2.6935940    -0.1236090    -0.2650160
  C       -0.4170680    -1.0145740    -0.0079460
  C       -1.3683020    -0.3105490    -1.0112920
  C       -2.2166740     0.1783740     1.1559530
  C       -1.0996000    -0.8433070     1.3811970
  C       -3.6002280     0.9375310    -0.8724950
  C        0.9620280    -0.4146880    -0.0398380
  C        2.0893310    -1.1495780    -0.4236340
  C        3.3396130    -0.5322390    -0.4347340
  C        2.2533150     1.4653640     0.3147880
  C        3.4262710     0.8062240    -0.0568370
  H       -3.2284890    -1.0854330    -0.2500270
  H       -0.3333030    -2.0805640    -0.2540920
  H       -0.9618110     0.6780590    -1.2570810
  H       -1.4754410    -0.8694270    -1.9482280
  H       -3.0167220     0.1138590     1.9027270
  H       -1.8083607     1.1743121     1.1861806
  H       -0.3855780    -0.5294870     2.1482020
  H       -1.5277920    -1.8013410     1.6997400
  H       -3.8772320     0.6843320    -1.9011880
  H       -4.5228040     1.0497910    -0.2936460
  H       -3.0892320     1.9062640    -0.8879070
  H        1.9842510    -2.1936970    -0.7089060
  H        4.2276210    -1.0857940    -0.7310670
  H        2.2780980     2.5111560     0.6184940
  H        4.3773590     1.3311980    -0.0481150
units angstrom
no_reorient  #important for SAPT in psi4, default
symmetry c1  #important for SAPT in psi4, default
}

set PROPERTIES_ORIGIN ["COM"]
properties('MP2/aug-cc-pvtz', properties = ['dipole'])
--------------------------------------------------------------------------

    Molecular point group: c1
  Charge       = 0
  Multiplicity = 1
  Basis Set: AUG-CC-PVTZ
    Blend: AUG-CC-PVTZ
  Basis Set: (AUG-CC-PVTZ AUX)
    Blend: AUG-CC-PVTZ-JKFIT

    Orbital Energies [Eh]
    ---------------------

    Doubly Occupied:

       1A    -15.558049     2A    -11.275333     3A    -11.274379
       4A    -11.257953     5A    -11.235890     6A    -11.235106
       7A    -11.226081     8A    -11.214402     9A    -11.211194
      10A    -11.209670    11A    -11.205250    12A    -11.201282
      13A     -1.251892    14A     -1.127714    15A     -1.081871
      16A     -1.046555    17A     -0.991194    18A     -0.955378
      19A     -0.893855    20A     -0.855230    21A     -0.837079
      22A     -0.765124    23A     -0.756259    24A     -0.696797
      25A     -0.668076    26A     -0.640652    27A     -0.640132
      28A     -0.608288    29A     -0.584954    30A     -0.578475
      31A     -0.574046    32A     -0.551794    33A     -0.538393
      34A     -0.527152    35A     -0.512373    36A     -0.473093
      37A     -0.468933    38A     -0.461032    39A     -0.453407
      40A     -0.447476    41A     -0.439374    42A     -0.410114
      43A     -0.377007    44A     -0.332117

  @DF-RHF Final Energy:  -479.89668006290668

   => Energetics <=

    Nuclear Repulsion Energy =            685.9527105685120887
    One-Electron Energy =               -2010.3979297977830356
    Two-Electron Energy =                 844.5485391663643213
    Total Energy =                       -479.8966800629067393
  Basis Set: (AUG-CC-PVTZ AUX)
    Blend: AUG-CC-PVTZ-RI
    Molecular point group: c1

    Geometry (in Angstrom), charge = 0, multiplicity = 1:

       Center              X                  Y                   Z               Mass
    ------------   -----------------  -----------------  -----------------  -----------------
         N            0.973165241953     0.882512994139     0.321746824143    14.003074004430
         C           -2.763470758047    -0.124608005861    -0.269479175857    12.000000000000
         C           -0.486944758047    -1.015573005861    -0.012409175857    12.000000000000
         C           -1.438178758047    -0.311548005861    -1.015755175857    12.000000000000
         C           -2.286550758047     0.177374994139     1.151489824143    12.000000000000
         C           -1.169476758047    -0.844306005861     1.376733824143    12.000000000000
         C           -3.670104758047     0.936531994139    -0.876958175857    12.000000000000
         C            0.892151241953    -0.415687005861    -0.044301175857    12.000000000000
         C            2.019454241953    -1.150577005861    -0.428097175857    12.000000000000
         C            3.269736241953    -0.533238005861    -0.439197175857    12.000000000000
         C            2.183438241953     1.464364994139     0.310324824143    12.000000000000
         C            3.356394241953     0.805224994139    -0.061300175857    12.000000000000
         H           -3.298365758047    -1.086432005861    -0.254490175857     1.007825032230
         H           -0.403179758047    -2.081563005861    -0.258555175857     1.007825032230
         H           -1.031687758047     0.677059994139    -1.261544175857     1.007825032230
         H           -1.545317758047    -0.870426005861    -1.952691175857     1.007825032230
         H           -3.086598758047     0.112859994139     1.898263824143     1.007825032230
         H           -1.878237458047     1.173313094139     1.181717424143     1.007825032230
         H           -0.455454758047    -0.530486005861     2.143738824143     1.007825032230
         H           -1.597668758047    -1.802340005861     1.695276824143     1.007825032230
         H           -3.947108758047     0.683332994139    -1.905651175857     1.007825032230
         H           -4.592680758047     1.048791994139    -0.298109175857     1.007825032230
         H           -3.159108758047     1.905264994139    -0.892370175857     1.007825032230
         H            1.914374241953    -2.194696005861    -0.713369175857     1.007825032230
         H            4.157744241953    -1.086793005861    -0.735530175857     1.007825032230
         H            2.208221241953     2.510156994139     0.614030824143     1.007825032230
         H            4.307482241953     1.330198994139    -0.052578175857     1.007825032230

  Basis Set: AUG-CC-PVTZ
    Blend: AUG-CC-PVTZ
  Basis Set: (AUG-CC-PVTZ AUX)
    Blend: AUG-CC-PVTZ-JKFIT
	 Reference Energy          =    -479.8966800629066825 [Eh]
	 Singles Energy            =      -0.0000000000000000 [Eh]
	 Same-Spin Energy          =      -0.5327624259593556 [Eh]
	 Opposite-Spin Energy      =      -1.7454000066245852 [Eh]
	 Correlation Energy        =      -2.2781624325839407 [Eh]
	 Total Energy              =    -482.1748424954906227 [Eh]

	 ================> DF-SCS-MP2 Energies <==================
	-----------------------------------------------------------
	 SCS Same-Spin Scale       =       0.3333333333333333 [-]
	 SCS Opposite-Spin Scale   =       1.2000000000000000 [-]
	 SCS Same-Spin Energy      =      -0.1775874753197852 [Eh]
	 SCS Opposite-Spin Energy  =      -2.0944800079495023 [Eh]
	 SCS Correlation Energy    =      -2.2720674832692875 [Eh]
	 SCS Total Energy          =    -482.1687475461759504 [Eh]
	-----------------------------------------------------------

  Dipole Moment: [D]
     X:     1.3313      Y:    -1.0610      Z:    -0.4933     Total:     1.7724

*** Psi4 exiting successfully. Buy a developer a beer!
