                               Psi4 1.4a3.dev225

  ==> Input File <==

--------------------------------------------------------------------------
#psi4
#
memory 32 gb

molecule  {
0 1
  N        1.0430420     0.8835120     0.3262100
  C       -2.6935940    -0.1236090    -0.2650160
  C       -0.4170680    -1.0145740    -0.0079460
  C       -1.3683020    -0.3105490    -1.0112920
  C       -2.2166740     0.1783740     1.1559530
  C       -1.0996000    -0.8433070     1.3811970
  C       -3.6002280     0.9375310    -0.8724950
  C        0.9620280    -0.4146880    -0.0398380
  C        2.0893310    -1.1495780    -0.4236340
  C        3.3396130    -0.5322390    -0.4347340
  C        2.2533150     1.4653640     0.3147880
  C        3.4262710     0.8062240    -0.0568370
  H       -3.2284890    -1.0854330    -0.2500270
  H       -0.3333030    -2.0805640    -0.2540920
  H       -0.9618110     0.6780590    -1.2570810
  H       -1.4754410    -0.8694270    -1.9482280
  H       -3.0167220     0.1138590     1.9027270
  H       -1.8007770     1.1928100     1.1867420
  H       -0.3855780    -0.5294870     2.1482020
  H       -1.5277920    -1.8013410     1.6997400
  H       -3.8772320     0.6843320    -1.9011880
  H       -4.5228040     1.0497910    -0.2936460
  H       -3.1358833     1.8178237    -0.8865000
  H        1.9842510    -2.1936970    -0.7089060
  H        4.2276210    -1.0857940    -0.7310670
  H        2.2780980     2.5111560     0.6184940
  H        4.3773590     1.3311980    -0.0481150
units angstrom
no_reorient  #important for SAPT in psi4, default
symmetry c1  #important for SAPT in psi4, default
}

set PROPERTIES_ORIGIN ["COM"]
properties('MP2/aug-cc-pvtz', properties = ['dipole'])
--------------------------------------------------------------------------

    Molecular point group: c1
  Charge       = 0
  Multiplicity = 1
  Basis Set: AUG-CC-PVTZ
    Blend: AUG-CC-PVTZ
  Basis Set: (AUG-CC-PVTZ AUX)
    Blend: AUG-CC-PVTZ-JKFIT

    Orbital Energies [Eh]
    ---------------------

    Doubly Occupied:

       1A    -15.558022     2A    -11.275317     3A    -11.274376
       4A    -11.257948     5A    -11.235887     6A    -11.235096
       7A    -11.226058     8A    -11.213526     9A    -11.211290
      10A    -11.209617    11A    -11.203591    12A    -11.192531
      13A     -1.251879    14A     -1.127682    15A     -1.081874
      16A     -1.047244    17A     -0.994596    18A     -0.954685
      19A     -0.899460    20A     -0.855340    21A     -0.837269
      22A     -0.764548    23A     -0.758025    24A     -0.696880
      25A     -0.668185    26A     -0.641865    27A     -0.640096
      28A     -0.608294    29A     -0.588596    30A     -0.577254
      31A     -0.573948    32A     -0.551348    33A     -0.540909
      34A     -0.530522    35A     -0.518779    36A     -0.473064
      37A     -0.468850    38A     -0.460220    39A     -0.452665
      40A     -0.447893    41A     -0.439041    42A     -0.409977
      43A     -0.376997    44A     -0.332103

  @DF-RHF Final Energy:  -479.89056452473511

   => Energetics <=

    Nuclear Repulsion Energy =            686.2814076709323672
    One-Electron Energy =               -2011.0172487735587765
    Two-Electron Energy =                 844.8452765778913545
    Total Energy =                       -479.8905645247350549
  Basis Set: (AUG-CC-PVTZ AUX)
    Blend: AUG-CC-PVTZ-RI
    Molecular point group: c1

    Geometry (in Angstrom), charge = 0, multiplicity = 1:

       Center              X                  Y                   Z               Mass
    ------------   -----------------  -----------------  -----------------  -----------------
         N            0.973409613821     0.882950491066     0.321734511598    14.003074004430
         C           -2.763226386179    -0.124170508934    -0.269491488402    12.000000000000
         C           -0.486700386179    -1.015135508934    -0.012421488402    12.000000000000
         C           -1.437934386179    -0.311110508934    -1.015767488402    12.000000000000
         C           -2.286306386179     0.177812491066     1.151477511598    12.000000000000
         C           -1.169232386179    -0.843868508934     1.376721511598    12.000000000000
         C           -3.669860386179     0.936969491066    -0.876970488402    12.000000000000
         C            0.892395613821    -0.415249508934    -0.044313488402    12.000000000000
         C            2.019698613821    -1.150139508934    -0.428109488402    12.000000000000
         C            3.269980613821    -0.532800508934    -0.439209488402    12.000000000000
         C            2.183682613821     1.464802491066     0.310312511598    12.000000000000
         C            3.356638613821     0.805662491066    -0.061312488402    12.000000000000
         H           -3.298121386179    -1.085994508934    -0.254502488402     1.007825032230
         H           -0.402935386179    -2.081125508934    -0.258567488402     1.007825032230
         H           -1.031443386179     0.677497491066    -1.261556488402     1.007825032230
         H           -1.545073386179    -0.869988508934    -1.952703488402     1.007825032230
         H           -3.086354386179     0.113297491066     1.898251511598     1.007825032230
         H           -1.870409386179     1.192248491066     1.182266511598     1.007825032230
         H           -0.455210386179    -0.530048508934     2.143726511598     1.007825032230
         H           -1.597424386179    -1.801902508934     1.695264511598     1.007825032230
         H           -3.946864386179     0.683770491066    -1.905663488402     1.007825032230
         H           -4.592436386179     1.049229491066    -0.298121488402     1.007825032230
         H           -3.205515686179     1.817262191066    -0.890975488402     1.007825032230
         H            1.914618613821    -2.194258508934    -0.713381488402     1.007825032230
         H            4.157988613821    -1.086355508934    -0.735542488402     1.007825032230
         H            2.208465613821     2.510594491066     0.614018511598     1.007825032230
         H            4.307726613821     1.330636491066    -0.052590488402     1.007825032230

  Basis Set: AUG-CC-PVTZ
    Blend: AUG-CC-PVTZ
  Basis Set: (AUG-CC-PVTZ AUX)
    Blend: AUG-CC-PVTZ-JKFIT
	 Reference Energy          =    -479.8905645247351117 [Eh]
	 Singles Energy            =      -0.0000000000000000 [Eh]
	 Same-Spin Energy          =      -0.5327993780420217 [Eh]
	 Opposite-Spin Energy      =      -1.7450695472331226 [Eh]
	 Correlation Energy        =      -2.2778689252751443 [Eh]
	 Total Energy              =    -482.1684334500102409 [Eh]

	 ================> DF-SCS-MP2 Energies <==================
	-----------------------------------------------------------
	 SCS Same-Spin Scale       =       0.3333333333333333 [-]
	 SCS Opposite-Spin Scale   =       1.2000000000000000 [-]
	 SCS Same-Spin Energy      =      -0.1775997926806739 [Eh]
	 SCS Opposite-Spin Energy  =      -2.0940834566797468 [Eh]
	 SCS Correlation Energy    =      -2.2716832493604207 [Eh]
	 SCS Total Energy          =    -482.1622477740955333 [Eh]
	-----------------------------------------------------------

  Dipole Moment: [D]
     X:     1.3416      Y:    -1.0187      Z:    -0.5026     Total:     1.7579

*** Psi4 exiting successfully. Buy a developer a beer!
