                               Psi4 1.4a3.dev225

  ==> Input File <==

--------------------------------------------------------------------------
#psi4
#
memory 32 gb

molecule  {
0 1
  N        1.0430420     0.8835120     0.3262100
  C       -2.6935940    -0.1236090    -0.2650160
  C       -0.4170680    -1.0145740    -0.0079460
  C       -1.3683020    -0.3105490    -1.0112920
  C       -2.2166740     0.1783740     1.1559530
  C       -1.0996000    -0.8433070     1.3811970
  C       -3.6002280     0.9375310    -0.8724950
  C        0.9387398    -0.4140541    -0.0361722
  C        2.0893310    -1.1495780    -0.4236340
  C        3.3396130    -0.5322390    -0.4347340
  C        2.2533150     1.4653640     0.3147880
  C        3.4262710     0.8062240    -0.0568370
  H       -3.2284890    -1.0854330    -0.2500270
  H       -0.3333030    -2.0805640    -0.2540920
  H       -0.9618110     0.6780590    -1.2570810
  H       -1.4754410    -0.8694270    -1.9482280
  H       -3.0167220     0.1138590     1.9027270
  H       -1.8007770     1.1928100     1.1867420
  H       -0.3855780    -0.5294870     2.1482020
  H       -1.5277920    -1.8013410     1.6997400
  H       -3.8772320     0.6843320    -1.9011880
  H       -4.5228040     1.0497910    -0.2936460
  H       -3.0892320     1.9062640    -0.8879070
  H        1.9842510    -2.1936970    -0.7089060
  H        4.2276210    -1.0857940    -0.7310670
  H        2.2780980     2.5111560     0.6184940
  H        4.3773590     1.3311980    -0.0481150
units angstrom
no_reorient  #important for SAPT in psi4, default
symmetry c1  #important for SAPT in psi4, default
}

set PROPERTIES_ORIGIN ["COM"]
properties('MP2/aug-cc-pvtz', properties = ['dipole'])
--------------------------------------------------------------------------

    Molecular point group: c1
  Charge       = 0
  Multiplicity = 1
  Basis Set: AUG-CC-PVTZ
    Blend: AUG-CC-PVTZ
  Basis Set: (AUG-CC-PVTZ AUX)
    Blend: AUG-CC-PVTZ-JKFIT

    Orbital Energies [Eh]
    ---------------------

    Doubly Occupied:

       1A    -15.557213     2A    -11.277408     3A    -11.273768
       4A    -11.257071     5A    -11.236715     6A    -11.235352
       7A    -11.225948     8A    -11.215238     9A    -11.212331
      10A    -11.210700    11A    -11.205702    12A    -11.204337
      13A     -1.250465    14A     -1.129281    15A     -1.080314
      16A     -1.046893    17A     -0.991104    18A     -0.955897
      19A     -0.895345    20A     -0.853188    21A     -0.837166
      22A     -0.765306    23A     -0.756461    24A     -0.696513
      25A     -0.668131    26A     -0.641530    27A     -0.639650
      28A     -0.607196    29A     -0.585947    30A     -0.578597
      31A     -0.573667    32A     -0.552060    33A     -0.537172
      34A     -0.527107    35A     -0.513434    36A     -0.474988
      37A     -0.470067    38A     -0.461836    39A     -0.454818
      40A     -0.447826    41A     -0.440219    42A     -0.407064
      43A     -0.376587    44A     -0.329115

  @DF-RHF Final Energy:  -479.89532641685548

   => Energetics <=

    Nuclear Repulsion Energy =            685.9239324765176207
    One-Electron Energy =               -2010.3250668802131713
    Two-Electron Energy =                 844.5058079868400682
    Total Energy =                       -479.8953264168554824
  Basis Set: (AUG-CC-PVTZ AUX)
    Blend: AUG-CC-PVTZ-RI
    Molecular point group: c1

    Geometry (in Angstrom), charge = 0, multiplicity = 1:

       Center              X                  Y                   Z               Mass
    ------------   -----------------  -----------------  -----------------  -----------------
         N            0.974852273973     0.882350075982     0.321470289456    14.003074004430
         C           -2.761783726027    -0.124770924018    -0.269755710544    12.000000000000
         C           -0.485257726027    -1.015735924018    -0.012685710544    12.000000000000
         C           -1.436491726027    -0.311710924018    -1.016031710544    12.000000000000
         C           -2.284863726027     0.177212075982     1.151213289456    12.000000000000
         C           -1.167789726027    -0.844468924018     1.376457289456    12.000000000000
         C           -3.668417726027     0.936369075982    -0.877234710544    12.000000000000
         C            0.870550073973    -0.415216024018    -0.040911910544    12.000000000000
         C            2.021141273973    -1.150739924018    -0.428373710544    12.000000000000
         C            3.271423273973    -0.533400924018    -0.439473710544    12.000000000000
         C            2.185125273973     1.464202075982     0.310048289456    12.000000000000
         C            3.358081273973     0.805062075982    -0.061576710544    12.000000000000
         H           -3.296678726027    -1.086594924018    -0.254766710544     1.007825032230
         H           -0.401492726027    -2.081725924018    -0.258831710544     1.007825032230
         H           -1.030000726027     0.676897075982    -1.261820710544     1.007825032230
         H           -1.543630726027    -0.870588924018    -1.952967710544     1.007825032230
         H           -3.084911726027     0.112697075982     1.897987289456     1.007825032230
         H           -1.868966726027     1.191648075982     1.182002289456     1.007825032230
         H           -0.453767726027    -0.530648924018     2.143462289456     1.007825032230
         H           -1.595981726027    -1.802502924018     1.695000289456     1.007825032230
         H           -3.945421726027     0.683170075982    -1.905927710544     1.007825032230
         H           -4.590993726027     1.048629075982    -0.298385710544     1.007825032230
         H           -3.157421726027     1.905102075982    -0.892646710544     1.007825032230
         H            1.916061273973    -2.194858924018    -0.713645710544     1.007825032230
         H            4.159431273973    -1.086955924018    -0.735806710544     1.007825032230
         H            2.209908273973     2.509994075982     0.613754289456     1.007825032230
         H            4.309169273973     1.330036075982    -0.052854710544     1.007825032230

  Basis Set: AUG-CC-PVTZ
    Blend: AUG-CC-PVTZ
  Basis Set: (AUG-CC-PVTZ AUX)
    Blend: AUG-CC-PVTZ-JKFIT
	 Reference Energy          =    -479.8953264168554824 [Eh]
	 Singles Energy            =      -0.0000000000000000 [Eh]
	 Same-Spin Energy          =      -0.5330658484253619 [Eh]
	 Opposite-Spin Energy      =      -1.7458743538898598 [Eh]
	 Correlation Energy        =      -2.2789402023152219 [Eh]
	 Total Energy              =    -482.1742666191706803 [Eh]

	 ================> DF-SCS-MP2 Energies <==================
	-----------------------------------------------------------
	 SCS Same-Spin Scale       =       0.3333333333333333 [-]
	 SCS Opposite-Spin Scale   =       1.2000000000000000 [-]
	 SCS Same-Spin Energy      =      -0.1776886161417873 [Eh]
	 SCS Opposite-Spin Energy  =      -2.0950492246678318 [Eh]
	 SCS Correlation Energy    =      -2.2727378408096190 [Eh]
	 SCS Total Energy          =    -482.1680642576650939 [Eh]
	-----------------------------------------------------------

  Dipole Moment: [D]
     X:     1.2390      Y:    -1.0923      Z:    -0.4911     Total:     1.7232

*** Psi4 exiting successfully. Buy a developer a beer!
