                               Psi4 1.4a3.dev225

  ==> Input File <==

--------------------------------------------------------------------------
#psi4
#
memory 32 gb

molecule  {
0 1
  N        1.0430420     0.8835120     0.3262100
  C       -2.7009843    -0.2301507    -0.2591169
  C       -0.4170680    -1.0145740    -0.0079460
  C       -1.3683020    -0.3105490    -1.0112920
  C       -2.2166740     0.1783740     1.1559530
  C       -1.0996000    -0.8433070     1.3811970
  C       -3.6002280     0.9375310    -0.8724950
  C        0.9620280    -0.4146880    -0.0398380
  C        2.0893310    -1.1495780    -0.4236340
  C        3.3396130    -0.5322390    -0.4347340
  C        2.2533150     1.4653640     0.3147880
  C        3.4262710     0.8062240    -0.0568370
  H       -3.2284890    -1.0854330    -0.2500270
  H       -0.3333030    -2.0805640    -0.2540920
  H       -0.9618110     0.6780590    -1.2570810
  H       -1.4754410    -0.8694270    -1.9482280
  H       -3.0167220     0.1138590     1.9027270
  H       -1.8007770     1.1928100     1.1867420
  H       -0.3855780    -0.5294870     2.1482020
  H       -1.5277920    -1.8013410     1.6997400
  H       -3.8772320     0.6843320    -1.9011880
  H       -4.5228040     1.0497910    -0.2936460
  H       -3.0892320     1.9062640    -0.8879070
  H        1.9842510    -2.1936970    -0.7089060
  H        4.2276210    -1.0857940    -0.7310670
  H        2.2780980     2.5111560     0.6184940
  H        4.3773590     1.3311980    -0.0481150
units angstrom
no_reorient  #important for SAPT in psi4, default
symmetry c1  #important for SAPT in psi4, default
}

set PROPERTIES_ORIGIN ["COM"]
properties('MP2/aug-cc-pvtz', properties = ['dipole'])
--------------------------------------------------------------------------

    Molecular point group: c1
  Charge       = 0
  Multiplicity = 1
  Basis Set: AUG-CC-PVTZ
    Blend: AUG-CC-PVTZ
  Basis Set: (AUG-CC-PVTZ AUX)
    Blend: AUG-CC-PVTZ-JKFIT

    Orbital Energies [Eh]
    ---------------------

    Doubly Occupied:

       1A    -15.557878     2A    -11.274924     3A    -11.274241
       4A    -11.257773     5A    -11.235688     6A    -11.234816
       7A    -11.224977     8A    -11.211832     9A    -11.210316
      10A    -11.210078    11A    -11.206239    12A    -11.204531
      13A     -1.251712    14A     -1.126242    15A     -1.081639
      16A     -1.043750    17A     -0.983811    18A     -0.954018
      19A     -0.889741    20A     -0.855021    21A     -0.835427
      22A     -0.775067    23A     -0.761386    24A     -0.696312
      25A     -0.667704    26A     -0.642741    27A     -0.637536
      28A     -0.605818    29A     -0.583832    30A     -0.578602
      31A     -0.571576    32A     -0.546339    33A     -0.537252
      34A     -0.527325    35A     -0.514094    36A     -0.477003
      37A     -0.472541    38A     -0.467070    39A     -0.454921
      40A     -0.441076    41A     -0.427646    42A     -0.408818
      43A     -0.376986    44A     -0.331661

  @DF-RHF Final Energy:  -479.88405804161397

   => Energetics <=

    Nuclear Repulsion Energy =            685.3511666201035268
    One-Electron Energy =               -2009.2145314088277246
    Two-Electron Energy =                 843.9793067471101722
    Total Energy =                       -479.8840580416139119
  Basis Set: (AUG-CC-PVTZ AUX)
    Blend: AUG-CC-PVTZ-RI
    Molecular point group: c1

    Geometry (in Angstrom), charge = 0, multiplicity = 1:

       Center              X                  Y                   Z               Mass
    ------------   -----------------  -----------------  -----------------  -----------------
         N            0.973668223155     0.890332347656     0.321303956753    14.003074004430
         C           -2.770358076845    -0.223330352344    -0.264022943247    12.000000000000
         C           -0.486441776845    -1.007753652344    -0.012852043247    12.000000000000
         C           -1.437675776845    -0.303728652344    -1.016198043247    12.000000000000
         C           -2.286047776845     0.185194347656     1.151046956753    12.000000000000
         C           -1.168973776845    -0.836486652344     1.376290956753    12.000000000000
         C           -3.669601776845     0.944351347656    -0.877401043247    12.000000000000
         C            0.892654223155    -0.407867652344    -0.044744043247    12.000000000000
         C            2.019957223155    -1.142757652344    -0.428540043247    12.000000000000
         C            3.270239223155    -0.525418652344    -0.439640043247    12.000000000000
         C            2.183941223155     1.472184347656     0.309881956753    12.000000000000
         C            3.356897223155     0.813044347656    -0.061743043247    12.000000000000
         H           -3.297862776845    -1.078612652344    -0.254933043247     1.007825032230
         H           -0.402676776845    -2.073743652344    -0.258998043247     1.007825032230
         H           -1.031184776845     0.684879347656    -1.261987043247     1.007825032230
         H           -1.544814776845    -0.862606652344    -1.953134043247     1.007825032230
         H           -3.086095776845     0.120679347656     1.897820956753     1.007825032230
         H           -1.870150776845     1.199630347656     1.181835956753     1.007825032230
         H           -0.454951776845    -0.522666652344     2.143295956753     1.007825032230
         H           -1.597165776845    -1.794520652344     1.694833956753     1.007825032230
         H           -3.946605776845     0.691152347656    -1.906094043247     1.007825032230
         H           -4.592177776845     1.056611347656    -0.298552043247     1.007825032230
         H           -3.158605776845     1.913084347656    -0.892813043247     1.007825032230
         H            1.914877223155    -2.186876652344    -0.713812043247     1.007825032230
         H            4.158247223155    -1.078973652344    -0.735973043247     1.007825032230
         H            2.208724223155     2.517976347656     0.613587956753     1.007825032230
         H            4.307985223155     1.338018347656    -0.053021043247     1.007825032230

  Basis Set: AUG-CC-PVTZ
    Blend: AUG-CC-PVTZ
  Basis Set: (AUG-CC-PVTZ AUX)
    Blend: AUG-CC-PVTZ-JKFIT
	 Reference Energy          =    -479.8840580416139687 [Eh]
	 Singles Energy            =      -0.0000000000000000 [Eh]
	 Same-Spin Energy          =      -0.5326022976326699 [Eh]
	 Opposite-Spin Energy      =      -1.7457365812630439 [Eh]
	 Correlation Energy        =      -2.2783388788957137 [Eh]
	 Total Energy              =    -482.1623969205097069 [Eh]

	 ================> DF-SCS-MP2 Energies <==================
	-----------------------------------------------------------
	 SCS Same-Spin Scale       =       0.3333333333333333 [-]
	 SCS Opposite-Spin Scale   =       1.2000000000000000 [-]
	 SCS Same-Spin Energy      =      -0.1775340992108899 [Eh]
	 SCS Opposite-Spin Energy  =      -2.0948838975156527 [Eh]
	 SCS Correlation Energy    =      -2.2724179967265425 [Eh]
	 SCS Total Energy          =    -482.1564760383404860 [Eh]
	-----------------------------------------------------------

  Dipole Moment: [D]
     X:     1.3190      Y:    -1.1303      Z:    -0.4827     Total:     1.8029

*** Psi4 exiting successfully. Buy a developer a beer!
