                               Psi4 1.4a3.dev225

  ==> Input File <==

--------------------------------------------------------------------------
#psi4
#
memory 32 gb

molecule  {
0 1
  N        1.0430420     0.8835120     0.3262100
  C       -2.6935940    -0.1236090    -0.2650160
  C       -0.4170680    -1.0145740    -0.0079460
  C       -1.3683020    -0.3105490    -1.0112920
  C       -2.2166740     0.1783740     1.1559530
  C       -1.0996000    -0.8433070     1.3811970
  C       -3.6002280     0.9375310    -0.8724950
  C        0.9620280    -0.4146880    -0.0398380
  C        2.0893310    -1.1495780    -0.4236340
  C        3.3396130    -0.5322390    -0.4347340
  C        2.2533150     1.4653640     0.3147880
  C        3.4262710     0.8062240    -0.0568370
  H       -3.2284890    -1.0854330    -0.2500270
  H       -0.3333030    -2.0805640    -0.2540920
  H       -0.9618110     0.6780590    -1.2570810
  H       -1.4754410    -0.8694270    -1.9482280
  H       -3.0167220     0.1138590     1.9027270
  H       -1.8007770     1.1928100     1.1867420
  H       -0.3855780    -0.5294870     2.1482020
  H       -1.5277920    -1.8013410     1.6997400
  H       -3.8926662     0.6518198    -1.8883194
  H       -4.5228040     1.0497910    -0.2936460
  H       -3.0892320     1.9062640    -0.8879070
  H        1.9842510    -2.1936970    -0.7089060
  H        4.2276210    -1.0857940    -0.7310670
  H        2.2780980     2.5111560     0.6184940
  H        4.3773590     1.3311980    -0.0481150
units angstrom
no_reorient  #important for SAPT in psi4, default
symmetry c1  #important for SAPT in psi4, default
}

set PROPERTIES_ORIGIN ["COM"]
properties('MP2/aug-cc-pvtz', properties = ['dipole'])
--------------------------------------------------------------------------

    Molecular point group: c1
  Charge       = 0
  Multiplicity = 1
  Basis Set: AUG-CC-PVTZ
    Blend: AUG-CC-PVTZ
  Basis Set: (AUG-CC-PVTZ AUX)
    Blend: AUG-CC-PVTZ-JKFIT

    Orbital Energies [Eh]
    ---------------------

    Doubly Occupied:

       1A    -15.557999     2A    -11.275317     3A    -11.274346
       4A    -11.257932     5A    -11.235871     6A    -11.235096
       7A    -11.226111     8A    -11.214387     9A    -11.211304
      10A    -11.209677    11A    -11.205313    12A    -11.203534
      13A     -1.251859    14A     -1.127513    15A     -1.081847
      16A     -1.046494    17A     -0.991315    18A     -0.954734
      19A     -0.893722    20A     -0.855182    21A     -0.836665
      22A     -0.764371    23A     -0.755272    24A     -0.696762
      25A     -0.668101    26A     -0.640667    27A     -0.640193
      28A     -0.607805    29A     -0.585904    30A     -0.577315
      31A     -0.573980    32A     -0.550482    33A     -0.538268
      34A     -0.527639    35A     -0.512834    36A     -0.473122
      37A     -0.468898    38A     -0.460675    39A     -0.452666
      40A     -0.447230    41A     -0.438834    42A     -0.409995
      43A     -0.376977    44A     -0.332106

  @DF-RHF Final Energy:  -479.89645924978709

   => Energetics <=

    Nuclear Repulsion Energy =            685.8749374958997578
    One-Electron Energy =               -2010.2501603211981092
    Two-Electron Energy =                 844.4787635755112660
    Total Energy =                       -479.8964592497870854
  Basis Set: (AUG-CC-PVTZ AUX)
    Blend: AUG-CC-PVTZ-RI
    Molecular point group: c1

    Geometry (in Angstrom), charge = 0, multiplicity = 1:

       Center              X                  Y                   Z               Mass
    ------------   -----------------  -----------------  -----------------  -----------------
         N            0.973214347641     0.882600655031     0.321662818107    14.003074004430
         C           -2.763421652359    -0.124520344969    -0.269563181893    12.000000000000
         C           -0.486895652359    -1.015485344969    -0.012493181893    12.000000000000
         C           -1.438129652359    -0.311460344969    -1.015839181893    12.000000000000
         C           -2.286501652360     0.177462655031     1.151405818107    12.000000000000
         C           -1.169427652359    -0.844218344969     1.376649818107    12.000000000000
         C           -3.670055652359     0.936619655031    -0.877042181893    12.000000000000
         C            0.892200347641    -0.415599344969    -0.044385181893    12.000000000000
         C            2.019503347641    -1.150489344969    -0.428181181893    12.000000000000
         C            3.269785347641    -0.533150344969    -0.439281181893    12.000000000000
         C            2.183487347640     1.464452655031     0.310240818107    12.000000000000
         C            3.356443347640     0.805312655031    -0.061384181893    12.000000000000
         H           -3.298316652360    -1.086344344969    -0.254574181893     1.007825032230
         H           -0.403130652359    -2.081475344969    -0.258639181893     1.007825032230
         H           -1.031638652360     0.677147655031    -1.261628181893     1.007825032230
         H           -1.545268652360    -0.870338344969    -1.952775181893     1.007825032230
         H           -3.086549652360     0.112947655031     1.898179818107     1.007825032230
         H           -1.870604652359     1.191898655031     1.182194818107     1.007825032230
         H           -0.455405652359    -0.530398344969     2.143654818107     1.007825032230
         H           -1.597619652360    -1.802252344969     1.695192818107     1.007825032230
         H           -3.962493852359     0.650908455031    -1.892866581893     1.007825032230
         H           -4.592631652359     1.048879655031    -0.298193181893     1.007825032230
         H           -3.159059652359     1.905352655031    -0.892454181893     1.007825032230
         H            1.914423347640    -2.194608344969    -0.713453181893     1.007825032230
         H            4.157793347641    -1.086705344969    -0.735614181893     1.007825032230
         H            2.208270347640     2.510244655031     0.613946818107     1.007825032230
         H            4.307531347641     1.330286655031    -0.052662181893     1.007825032230

  Basis Set: AUG-CC-PVTZ
    Blend: AUG-CC-PVTZ
  Basis Set: (AUG-CC-PVTZ AUX)
    Blend: AUG-CC-PVTZ-JKFIT
	 Reference Energy          =    -479.8964592497870854 [Eh]
	 Singles Energy            =      -0.0000000000000000 [Eh]
	 Same-Spin Energy          =      -0.5327969576023380 [Eh]
	 Opposite-Spin Energy      =      -1.7455741913544576 [Eh]
	 Correlation Energy        =      -2.2783711489567957 [Eh]
	 Total Energy              =    -482.1748303987438931 [Eh]

	 ================> DF-SCS-MP2 Energies <==================
	-----------------------------------------------------------
	 SCS Same-Spin Scale       =       0.3333333333333333 [-]
	 SCS Opposite-Spin Scale   =       1.2000000000000000 [-]
	 SCS Same-Spin Energy      =      -0.1775989858674460 [Eh]
	 SCS Opposite-Spin Energy  =      -2.0946890296253491 [Eh]
	 SCS Correlation Energy    =      -2.2722880154927951 [Eh]
	 SCS Total Energy          =    -482.1687472652798760 [Eh]
	-----------------------------------------------------------

  Dipole Moment: [D]
     X:     1.3228      Y:    -1.0769      Z:    -0.4915     Total:     1.7751

*** Psi4 exiting successfully. Buy a developer a beer!
