                               Psi4 1.4a3.dev225

  ==> Input File <==

--------------------------------------------------------------------------
#psi4
#
memory 32 gb

molecule  {
0 1
  N        1.0430420     0.8835120     0.3262100
  C       -2.6935940    -0.1236090    -0.2650160
  C       -0.4170680    -1.0145740    -0.0079460
  C       -1.3683020    -0.3105490    -1.0112920
  C       -2.2166740     0.1783740     1.1559530
  C       -1.0996000    -0.8433070     1.3811970
  C       -3.6002280     0.9375310    -0.8724950
  C        0.9620280    -0.4146880    -0.0398380
  C        2.0893310    -1.1495780    -0.4236340
  C        3.3396130    -0.5322390    -0.4347340
  C        2.2713395     1.4740295     0.3146179
  C        3.4262710     0.8062240    -0.0568370
  H       -3.2284890    -1.0854330    -0.2500270
  H       -0.3333030    -2.0805640    -0.2540920
  H       -0.9618110     0.6780590    -1.2570810
  H       -1.4754410    -0.8694270    -1.9482280
  H       -3.0167220     0.1138590     1.9027270
  H       -1.8007770     1.1928100     1.1867420
  H       -0.3855780    -0.5294870     2.1482020
  H       -1.5277920    -1.8013410     1.6997400
  H       -3.8772320     0.6843320    -1.9011880
  H       -4.5228040     1.0497910    -0.2936460
  H       -3.0892320     1.9062640    -0.8879070
  H        1.9842510    -2.1936970    -0.7089060
  H        4.2276210    -1.0857940    -0.7310670
  H        2.2780980     2.5111560     0.6184940
  H        4.3773590     1.3311980    -0.0481150
units angstrom
no_reorient  #important for SAPT in psi4, default
symmetry c1  #important for SAPT in psi4, default
}

set PROPERTIES_ORIGIN ["COM"]
properties('MP2/aug-cc-pvtz', properties = ['dipole'])
--------------------------------------------------------------------------

    Molecular point group: c1
  Charge       = 0
  Multiplicity = 1
  Basis Set: AUG-CC-PVTZ
    Blend: AUG-CC-PVTZ
  Basis Set: (AUG-CC-PVTZ AUX)
    Blend: AUG-CC-PVTZ-JKFIT

    Orbital Energies [Eh]
    ---------------------

    Doubly Occupied:

       1A    -15.558794     2A    -11.275173     3A    -11.273880
       4A    -11.258393     5A    -11.235593     6A    -11.235281
       7A    -11.226102     8A    -11.214479     9A    -11.211257
      10A    -11.209576    11A    -11.205142    12A    -11.203554
      13A     -1.247019    14A     -1.127264    15A     -1.081044
      16A     -1.046643    17A     -0.991748    18A     -0.955008
      19A     -0.893780    20A     -0.856619    21A     -0.835237
      22A     -0.764086    23A     -0.755453    24A     -0.696883
      25A     -0.667117    26A     -0.641608    27A     -0.639483
      28A     -0.609152    29A     -0.584823    30A     -0.577381
      31A     -0.574515    32A     -0.551479    33A     -0.536785
      34A     -0.526091    35A     -0.511405    36A     -0.473302
      37A     -0.468862    38A     -0.460949    39A     -0.452568
      40A     -0.446918    41A     -0.439475    42A     -0.410234
      43A     -0.374391    44A     -0.334032

  @DF-RHF Final Energy:  -479.89540902136758

   => Energetics <=

    Nuclear Repulsion Energy =            685.5476449996453994
    One-Electron Energy =               -2009.6089473645322414
    Two-Electron Energy =                 844.1658933435193148
    Total Energy =                       -479.8954090213675272
  Basis Set: (AUG-CC-PVTZ AUX)
    Blend: AUG-CC-PVTZ-RI
    Molecular point group: c1

    Geometry (in Angstrom), charge = 0, multiplicity = 1:

       Center              X                  Y                   Z               Mass
    ------------   -----------------  -----------------  -----------------  -----------------
         N            0.971775368455     0.881751894930     0.321755981311    14.003074004430
         C           -2.764860631545    -0.125369105070    -0.269470018689    12.000000000000
         C           -0.488334631545    -1.016334105070    -0.012400018689    12.000000000000
         C           -1.439568631545    -0.312309105070    -1.015746018689    12.000000000000
         C           -2.287940631545     0.176613894930     1.151498981311    12.000000000000
         C           -1.170866631545    -0.845067105070     1.376742981311    12.000000000000
         C           -3.671494631545     0.935770894930    -0.876949018689    12.000000000000
         C            0.890761368455    -0.416448105070    -0.044292018689    12.000000000000
         C            2.018064368455    -1.151338105070    -0.428088018689    12.000000000000
         C            3.268346368455    -0.533999105070    -0.439188018689    12.000000000000
         C            2.200072868455     1.472269394930     0.310163881311    12.000000000000
         C            3.355004368455     0.804463894930    -0.061291018689    12.000000000000
         H           -3.299755631545    -1.087193105070    -0.254481018689     1.007825032230
         H           -0.404569631545    -2.082324105070    -0.258546018689     1.007825032230
         H           -1.033077631545     0.676298894930    -1.261535018689     1.007825032230
         H           -1.546707631545    -0.871187105070    -1.952682018689     1.007825032230
         H           -3.087988631545     0.112098894930     1.898272981311     1.007825032230
         H           -1.872043631545     1.191049894930     1.182287981311     1.007825032230
         H           -0.456844631545    -0.531247105070     2.143747981311     1.007825032230
         H           -1.599058631545    -1.803101105070     1.695285981311     1.007825032230
         H           -3.948498631545     0.682571894930    -1.905642018689     1.007825032230
         H           -4.594070631545     1.048030894930    -0.298100018689     1.007825032230
         H           -3.160498631545     1.904503894930    -0.892361018689     1.007825032230
         H            1.912984368455    -2.195457105070    -0.713360018689     1.007825032230
         H            4.156354368455    -1.087554105070    -0.735521018689     1.007825032230
         H            2.206831368455     2.509395894930     0.614039981311     1.007825032230
         H            4.306092368455     1.329437894930    -0.052569018689     1.007825032230

  Basis Set: AUG-CC-PVTZ
    Blend: AUG-CC-PVTZ
  Basis Set: (AUG-CC-PVTZ AUX)
    Blend: AUG-CC-PVTZ-JKFIT
	 Reference Energy          =    -479.8954090213675840 [Eh]
	 Singles Energy            =      -0.0000000000000000 [Eh]
	 Same-Spin Energy          =      -0.5329494966460460 [Eh]
	 Opposite-Spin Energy      =      -1.7459991022384258 [Eh]
	 Correlation Energy        =      -2.2789485988844715 [Eh]
	 Total Energy              =    -482.1743576202520671 [Eh]

	 ================> DF-SCS-MP2 Energies <==================
	-----------------------------------------------------------
	 SCS Same-Spin Scale       =       0.3333333333333333 [-]
	 SCS Opposite-Spin Scale   =       1.2000000000000000 [-]
	 SCS Same-Spin Energy      =      -0.1776498322153486 [Eh]
	 SCS Opposite-Spin Energy  =      -2.0951989226861110 [Eh]
	 SCS Correlation Energy    =      -2.2728487549014598 [Eh]
	 SCS Total Energy          =    -482.1682577762690585 [Eh]
	-----------------------------------------------------------

  Dipole Moment: [D]
     X:     1.3436      Y:    -1.0667      Z:    -0.4957     Total:     1.7857

*** Psi4 exiting successfully. Buy a developer a beer!
