                               Psi4 1.4a3.dev225

  ==> Input File <==

--------------------------------------------------------------------------
#psi4
#
memory 32 gb

molecule  {
0 1
  N        1.0430420     0.8835120     0.3262100
  C       -2.6704221     0.0343348    -0.2806678
  C       -0.4170680    -1.0145740    -0.0079460
  C       -1.3683020    -0.3105490    -1.0112920
  C       -2.2166740     0.1783740     1.1559530
  C       -1.0996000    -0.8433070     1.3811970
  C       -3.6002280     0.9375310    -0.8724950
  C        0.9620280    -0.4146880    -0.0398380
  C        2.0893310    -1.1495780    -0.4236340
  C        3.3396130    -0.5322390    -0.4347340
  C        2.2533150     1.4653640     0.3147880
  C        3.4262710     0.8062240    -0.0568370
  H       -3.2284890    -1.0854330    -0.2500270
  H       -0.3333030    -2.0805640    -0.2540920
  H       -0.9618110     0.6780590    -1.2570810
  H       -1.4754410    -0.8694270    -1.9482280
  H       -3.0167220     0.1138590     1.9027270
  H       -1.8007770     1.1928100     1.1867420
  H       -0.3855780    -0.5294870     2.1482020
  H       -1.5277920    -1.8013410     1.6997400
  H       -3.8772320     0.6843320    -1.9011880
  H       -4.5228040     1.0497910    -0.2936460
  H       -3.0892320     1.9062640    -0.8879070
  H        1.9842510    -2.1936970    -0.7089060
  H        4.2276210    -1.0857940    -0.7310670
  H        2.2780980     2.5111560     0.6184940
  H        4.3773590     1.3311980    -0.0481150
units angstrom
no_reorient  #important for SAPT in psi4, default
symmetry c1  #important for SAPT in psi4, default
}

set PROPERTIES_ORIGIN ["COM"]
properties('MP2/aug-cc-pvtz', properties = ['dipole'])
--------------------------------------------------------------------------

    Molecular point group: c1
  Charge       = 0
  Multiplicity = 1
  Basis Set: AUG-CC-PVTZ
    Blend: AUG-CC-PVTZ
  Basis Set: (AUG-CC-PVTZ AUX)
    Blend: AUG-CC-PVTZ-JKFIT

    Orbital Energies [Eh]
    ---------------------

    Doubly Occupied:

       1A    -15.558674     2A    -11.276332     3A    -11.274921
       4A    -11.258558     5A    -11.236549     6A    -11.235938
       7A    -11.228711     8A    -11.224391     9A    -11.214031
      10A    -11.212043    11A    -11.206041    12A    -11.205129
      13A     -1.252566    14A     -1.131471    15A     -1.082629
      16A     -1.053338    17A     -1.003957    18A     -0.956859
      19A     -0.901025    20A     -0.855968    21A     -0.839255
      22A     -0.767742    23A     -0.736832    24A     -0.698528
      25A     -0.669240    26A     -0.645009    27A     -0.639498
      28A     -0.615120    29A     -0.588067    30A     -0.578583
      31A     -0.575978    32A     -0.560724    33A     -0.539764
      34A     -0.527457    35A     -0.510979    36A     -0.491619
      37A     -0.474198    38A     -0.470396    39A     -0.455457
      40A     -0.441514    41A     -0.412578    42A     -0.396263
      43A     -0.376627    44A     -0.333026

  @DF-RHF Final Energy:  -479.86912340835136

   => Energetics <=

    Nuclear Repulsion Energy =            686.5888077535137199
    One-Electron Energy =               -2011.4886935982535761
    Two-Electron Energy =                 845.0307624363884997
    Total Energy =                       -479.8691234083513564
  Basis Set: (AUG-CC-PVTZ AUX)
    Blend: AUG-CC-PVTZ-RI
    Molecular point group: c1

    Geometry (in Angstrom), charge = 0, multiplicity = 1:

       Center              X                  Y                   Z               Mass
    ------------   -----------------  -----------------  -----------------  -----------------
         N            0.971391998125     0.870633879770     0.322909034201    14.003074004430
         C           -2.742072101875     0.021456679770    -0.283968765799    12.000000000000
         C           -0.488718001875    -1.027452120230    -0.011246965799    12.000000000000
         C           -1.439952001875    -0.323427120230    -1.014592965799    12.000000000000
         C           -2.288324001875     0.165495879770     1.152652034201    12.000000000000
         C           -1.171250001875    -0.856185120230     1.377896034201    12.000000000000
         C           -3.671878001875     0.924652879770    -0.875795965799    12.000000000000
         C            0.890377998125    -0.427566120230    -0.043138965799    12.000000000000
         C            2.017680998125    -1.162456120230    -0.426934965799    12.000000000000
         C            3.267962998125    -0.545117120230    -0.438034965799    12.000000000000
         C            2.181664998125     1.452485879770     0.311487034201    12.000000000000
         C            3.354620998125     0.793345879770    -0.060137965799    12.000000000000
         H           -3.300139001875    -1.098311120230    -0.253327965799     1.007825032230
         H           -0.404953001875    -2.093442120230    -0.257392965799     1.007825032230
         H           -1.033461001875     0.665180879770    -1.260381965799     1.007825032230
         H           -1.547091001875    -0.882305120230    -1.951528965799     1.007825032230
         H           -3.088372001875     0.100980879770     1.899426034201     1.007825032230
         H           -1.872427001875     1.179931879770     1.183441034201     1.007825032230
         H           -0.457228001875    -0.542365120230     2.144901034201     1.007825032230
         H           -1.599442001875    -1.814219120230     1.696439034201     1.007825032230
         H           -3.948882001875     0.671453879770    -1.904488965799     1.007825032230
         H           -4.594454001875     1.036912879770    -0.296946965799     1.007825032230
         H           -3.160882001875     1.893385879770    -0.891207965799     1.007825032230
         H            1.912600998125    -2.206575120230    -0.712206965799     1.007825032230
         H            4.155970998125    -1.098672120230    -0.734367965799     1.007825032230
         H            2.206447998125     2.498277879770     0.615193034201     1.007825032230
         H            4.305708998125     1.318319879770    -0.051415965799     1.007825032230

  Basis Set: AUG-CC-PVTZ
    Blend: AUG-CC-PVTZ
  Basis Set: (AUG-CC-PVTZ AUX)
    Blend: AUG-CC-PVTZ-JKFIT
	 Reference Energy          =    -479.8691234083513564 [Eh]
	 Singles Energy            =      -0.0000000000000000 [Eh]
	 Same-Spin Energy          =      -0.5341144434538720 [Eh]
	 Opposite-Spin Energy      =      -1.7478597920999026 [Eh]
	 Correlation Energy        =      -2.2819742355537747 [Eh]
	 Total Energy              =    -482.1510976439051319 [Eh]

	 ================> DF-SCS-MP2 Energies <==================
	-----------------------------------------------------------
	 SCS Same-Spin Scale       =       0.3333333333333333 [-]
	 SCS Opposite-Spin Scale   =       1.2000000000000000 [-]
	 SCS Same-Spin Energy      =      -0.1780381478179573 [Eh]
	 SCS Opposite-Spin Energy  =      -2.0974317505198830 [Eh]
	 SCS Correlation Energy    =      -2.2754698983378403 [Eh]
	 SCS Total Energy          =    -482.1445933066892167 [Eh]
	-----------------------------------------------------------

  Dipole Moment: [D]
     X:     1.4119      Y:    -0.9183      Z:    -0.5098     Total:     1.7597

*** Psi4 exiting successfully. Buy a developer a beer!
