                               Psi4 1.4a3.dev225

  ==> Input File <==

--------------------------------------------------------------------------
#psi4
#
memory 32 gb

molecule  {
0 1
  N        1.0430420     0.8835120     0.3262100
  C       -2.6935940    -0.1236090    -0.2650160
  C       -0.4170680    -1.0145740    -0.0079460
  C       -1.3683020    -0.3105490    -1.0112920
  C       -2.2166740     0.1783740     1.1559530
  C       -1.0996000    -0.8433070     1.3811970
  C       -3.6002280     0.9375310    -0.8724950
  C        0.9620280    -0.4146880    -0.0398380
  C        2.0893310    -1.1495780    -0.4236340
  C        3.3396130    -0.5322390    -0.4347340
  C        2.2533150     1.4653640     0.3147880
  C        3.4262710     0.8062240    -0.0568370
  H       -3.2284890    -1.0854330    -0.2500270
  H       -0.3333030    -2.0805640    -0.2540920
  H       -0.9618110     0.6780590    -1.2570810
  H       -1.4754410    -0.8694270    -1.9482280
  H       -3.0167220     0.1138590     1.9027270
  H       -1.8007770     1.1928100     1.1867420
  H       -0.3855780    -0.5294870     2.1482020
  H       -1.4887466    -1.7139812     1.6706932
  H       -3.8772320     0.6843320    -1.9011880
  H       -4.5228040     1.0497910    -0.2936460
  H       -3.0892320     1.9062640    -0.8879070
  H        1.9842510    -2.1936970    -0.7089060
  H        4.2276210    -1.0857940    -0.7310670
  H        2.2780980     2.5111560     0.6184940
  H        4.3773590     1.3311980    -0.0481150
units angstrom
no_reorient  #important for SAPT in psi4, default
symmetry c1  #important for SAPT in psi4, default
}

set PROPERTIES_ORIGIN ["COM"]
properties('MP2/aug-cc-pvtz', properties = ['dipole'])
--------------------------------------------------------------------------

    Molecular point group: c1
  Charge       = 0
  Multiplicity = 1
  Basis Set: AUG-CC-PVTZ
    Blend: AUG-CC-PVTZ
  Basis Set: (AUG-CC-PVTZ AUX)
    Blend: AUG-CC-PVTZ-JKFIT

    Orbital Energies [Eh]
    ---------------------

    Doubly Occupied:

       1A    -15.557480     2A    -11.274887     3A    -11.273977
       4A    -11.257593     5A    -11.235462     6A    -11.234680
       7A    -11.225410     8A    -11.214432     9A    -11.209377
      10A    -11.205066    11A    -11.202836    12A    -11.198501
      13A     -1.251396    14A     -1.128352    15A     -1.081470
      16A     -1.046065    17A     -0.993981    18A     -0.956041
      19A     -0.894596    20A     -0.854874    21A     -0.839607
      22A     -0.769817    23A     -0.755303    24A     -0.696381
      25A     -0.669395    26A     -0.640873    27A     -0.640048
      28A     -0.607846    29A     -0.590831    30A     -0.578783
      31A     -0.573876    32A     -0.552105    33A     -0.537659
      34A     -0.526667    35A     -0.513007    36A     -0.473054
      37A     -0.469465    38A     -0.460601    39A     -0.457680
      40A     -0.446745    41A     -0.439085    42A     -0.409539
      43A     -0.376626    44A     -0.331740

  @DF-RHF Final Energy:  -479.89091494529350

   => Energetics <=

    Nuclear Repulsion Energy =            686.4336110395325932
    One-Electron Energy =               -2011.3426328929760984
    Two-Electron Energy =                 845.0181069081498890
    Total Energy =                       -479.8909149452935026
  Basis Set: (AUG-CC-PVTZ AUX)
    Blend: AUG-CC-PVTZ-RI
    Molecular point group: c1

    Geometry (in Angstrom), charge = 0, multiplicity = 1:

       Center              X                  Y                   Z               Mass
    ------------   -----------------  -----------------  -----------------  -----------------
         N            0.972873572123     0.881850843306     0.321925003258    14.003074004430
         C           -2.763762427877    -0.125270156694    -0.269300996742    12.000000000000
         C           -0.487236427877    -1.016235156694    -0.012230996742    12.000000000000
         C           -1.438470427877    -0.312210156694    -1.015576996742    12.000000000000
         C           -2.286842427877     0.176712843306     1.151668003258    12.000000000000
         C           -1.169768427877    -0.844968156694     1.376912003258    12.000000000000
         C           -3.670396427877     0.935869843306    -0.876779996742    12.000000000000
         C            0.891859572123    -0.416349156694    -0.044122996742    12.000000000000
         C            2.019162572123    -1.151239156694    -0.427918996742    12.000000000000
         C            3.269444572123    -0.533900156694    -0.439018996742    12.000000000000
         C            2.183146572123     1.463702843306     0.310503003258    12.000000000000
         C            3.356102572123     0.804562843306    -0.061121996742    12.000000000000
         H           -3.298657427877    -1.087094156694    -0.254311996742     1.007825032230
         H           -0.403471427877    -2.082225156694    -0.258376996742     1.007825032230
         H           -1.031979427877     0.676397843306    -1.261365996742     1.007825032230
         H           -1.545609427877    -0.871088156694    -1.952512996742     1.007825032230
         H           -3.086890427877     0.112197843306     1.898442003258     1.007825032230
         H           -1.870945427877     1.191148843306     1.182457003258     1.007825032230
         H           -0.455746427877    -0.531148156694     2.143917003258     1.007825032230
         H           -1.558915027877    -1.715642356694     1.666408203258     1.007825032230
         H           -3.947400427877     0.682670843306    -1.905472996742     1.007825032230
         H           -4.592972427877     1.048129843306    -0.297930996742     1.007825032230
         H           -3.159400427877     1.904602843306    -0.892191996742     1.007825032230
         H            1.914082572123    -2.195358156694    -0.713190996742     1.007825032230
         H            4.157452572123    -1.087455156694    -0.735351996742     1.007825032230
         H            2.207929572123     2.509494843306     0.614209003258     1.007825032230
         H            4.307190572123     1.329536843306    -0.052399996742     1.007825032230

  Basis Set: AUG-CC-PVTZ
    Blend: AUG-CC-PVTZ
  Basis Set: (AUG-CC-PVTZ AUX)
    Blend: AUG-CC-PVTZ-JKFIT
	 Reference Energy          =    -479.8909149452935026 [Eh]
	 Singles Energy            =      -0.0000000000000000 [Eh]
	 Same-Spin Energy          =      -0.5327733334657960 [Eh]
	 Opposite-Spin Energy      =      -1.7449520388211512 [Eh]
	 Correlation Energy        =      -2.2777253722869473 [Eh]
	 Total Energy              =    -482.1686403175804685 [Eh]

	 ================> DF-SCS-MP2 Energies <==================
	-----------------------------------------------------------
	 SCS Same-Spin Scale       =       0.3333333333333333 [-]
	 SCS Opposite-Spin Scale   =       1.2000000000000000 [-]
	 SCS Same-Spin Energy      =      -0.1775911111552653 [Eh]
	 SCS Opposite-Spin Energy  =      -2.0939424465853813 [Eh]
	 SCS Correlation Energy    =      -2.2715335577406468 [Eh]
	 SCS Total Energy          =    -482.1624485030341702 [Eh]
	-----------------------------------------------------------

  Dipole Moment: [D]
     X:     1.2999      Y:    -1.1268      Z:    -0.4590     Total:     1.7805

*** Psi4 exiting successfully. Buy a developer a beer!
