                               Psi4 1.4a3.dev225

  ==> Input File <==

--------------------------------------------------------------------------
#psi4
#
memory 32 gb

molecule  {
0 1
  N        1.0430420     0.8835120     0.3262100
  C       -2.6935940    -0.1236090    -0.2650160
  C       -0.4170680    -1.0145740    -0.0079460
  C       -1.3683020    -0.3105490    -1.0112920
  C       -2.2166740     0.1783740     1.1559530
  C       -1.0996000    -0.8433070     1.3811970
  C       -3.6002280     0.9375310    -0.8724950
  C        0.9620280    -0.4146880    -0.0398380
  C        2.0893310    -1.1495780    -0.4236340
  C        3.3396130    -0.5322390    -0.4347340
  C        2.2533150     1.4653640     0.3147880
  C        3.4262710     0.8062240    -0.0568370
  H       -3.2284890    -1.0854330    -0.2500270
  H       -0.3333030    -2.0805640    -0.2540920
  H       -0.9618110     0.6780590    -1.2570810
  H       -1.4754410    -0.8694270    -1.9482280
  H       -3.0167220     0.1138590     1.9027270
  H       -1.8007770     1.1928100     1.1867420
  H       -0.2550313    -0.4721104     2.2884357
  H       -1.5277920    -1.8013410     1.6997400
  H       -3.8772320     0.6843320    -1.9011880
  H       -4.5228040     1.0497910    -0.2936460
  H       -3.0892320     1.9062640    -0.8879070
  H        1.9842510    -2.1936970    -0.7089060
  H        4.2276210    -1.0857940    -0.7310670
  H        2.2780980     2.5111560     0.6184940
  H        4.3773590     1.3311980    -0.0481150
units angstrom
no_reorient  #important for SAPT in psi4, default
symmetry c1  #important for SAPT in psi4, default
}

set PROPERTIES_ORIGIN ["COM"]
properties('MP2/aug-cc-pvtz', properties = ['dipole'])
--------------------------------------------------------------------------

    Molecular point group: c1
  Charge       = 0
  Multiplicity = 1
  Basis Set: AUG-CC-PVTZ
    Blend: AUG-CC-PVTZ
  Basis Set: (AUG-CC-PVTZ AUX)
    Blend: AUG-CC-PVTZ-JKFIT

    Orbital Energies [Eh]
    ---------------------

    Doubly Occupied:

       1A    -15.557575     2A    -11.275506     3A    -11.273978
       4A    -11.257630     5A    -11.235552     6A    -11.234916
       7A    -11.234036     8A    -11.228673     9A    -11.216652
      10A    -11.211506    11A    -11.206767    12A    -11.206149
      13A     -1.251501    14A     -1.128355    15A     -1.081561
      16A     -1.046924    17A     -0.989388    18A     -0.954035
      19A     -0.893022    20A     -0.854722    21A     -0.834518
      22A     -0.760001    23A     -0.755281    24A     -0.694706
      25A     -0.668505    26A     -0.641517    27A     -0.637187
      28A     -0.602191    29A     -0.584624    30A     -0.578551
      31A     -0.574134    32A     -0.549973    33A     -0.536245
      34A     -0.526697    35A     -0.509552    36A     -0.472443
      37A     -0.466974    38A     -0.461595    39A     -0.452110
      40A     -0.447067    41A     -0.431183    42A     -0.409938
      43A     -0.376157    44A     -0.331977

  @DF-RHF Final Energy:  -479.87596401825806

   => Energetics <=

    Nuclear Repulsion Energy =            685.0185572041348223
    One-Electron Energy =               -2008.5058945712248715
    Two-Electron Energy =                 843.6113733488319895
    Total Energy =                       -479.8759640182580597
  Basis Set: (AUG-CC-PVTZ AUX)
    Blend: AUG-CC-PVTZ-RI
    Molecular point group: c1

    Geometry (in Angstrom), charge = 0, multiplicity = 1:

       Center              X                  Y                   Z               Mass
    ------------   -----------------  -----------------  -----------------  -----------------
         N            0.972301222052     0.882038391315     0.320866136268    14.003074004430
         C           -2.764334777948    -0.125082608685    -0.270359863732    12.000000000000
         C           -0.487808777948    -1.016047608685    -0.013289863732    12.000000000000
         C           -1.439042777948    -0.312022608685    -1.016635863732    12.000000000000
         C           -2.287414777948     0.176900391315     1.150609136268    12.000000000000
         C           -1.170340777948    -0.844780608685     1.375853136268    12.000000000000
         C           -3.670968777948     0.936057391315    -0.877838863732    12.000000000000
         C            0.891287222052    -0.416161608685    -0.045181863732    12.000000000000
         C            2.018590222052    -1.151051608685    -0.428977863732    12.000000000000
         C            3.268872222052    -0.533712608685    -0.440077863732    12.000000000000
         C            2.182574222052     1.463890391315     0.309444136268    12.000000000000
         C            3.355530222052     0.804750391315    -0.062180863732    12.000000000000
         H           -3.299229777948    -1.086906608685    -0.255370863732     1.007825032230
         H           -0.404043777948    -2.082037608685    -0.259435863732     1.007825032230
         H           -1.032551777948     0.676585391315    -1.262424863732     1.007825032230
         H           -1.546181777948    -0.870900608685    -1.953571863732     1.007825032230
         H           -3.087462777948     0.112385391315     1.897383136268     1.007825032230
         H           -1.871517777948     1.191336391315     1.181398136268     1.007825032230
         H           -0.325772077948    -0.473584008685     2.283091836268     1.007825032230
         H           -1.598532777948    -1.802814608685     1.694396136268     1.007825032230
         H           -3.947972777948     0.682858391315    -1.906531863732     1.007825032230
         H           -4.593544777948     1.048317391315    -0.298989863732     1.007825032230
         H           -3.159972777948     1.904790391315    -0.893250863732     1.007825032230
         H            1.913510222052    -2.195170608685    -0.714249863732     1.007825032230
         H            4.156880222052    -1.087267608685    -0.736410863732     1.007825032230
         H            2.207357222052     2.509682391315     0.613150136268     1.007825032230
         H            4.306618222052     1.329724391315    -0.053458863732     1.007825032230

  Basis Set: AUG-CC-PVTZ
    Blend: AUG-CC-PVTZ
  Basis Set: (AUG-CC-PVTZ AUX)
    Blend: AUG-CC-PVTZ-JKFIT
	 Reference Energy          =    -479.8759640182580597 [Eh]
	 Singles Energy            =      -0.0000000000000000 [Eh]
	 Same-Spin Energy          =      -0.5331035060625163 [Eh]
	 Opposite-Spin Energy      =      -1.7475521477121785 [Eh]
	 Correlation Energy        =      -2.2806556537746947 [Eh]
	 Total Energy              =    -482.1566196720327753 [Eh]

	 ================> DF-SCS-MP2 Energies <==================
	-----------------------------------------------------------
	 SCS Same-Spin Scale       =       0.3333333333333333 [-]
	 SCS Opposite-Spin Scale   =       1.2000000000000000 [-]
	 SCS Same-Spin Energy      =      -0.1777011686875054 [Eh]
	 SCS Opposite-Spin Energy  =      -2.0970625772546141 [Eh]
	 SCS Correlation Energy    =      -2.2747637459421197 [Eh]
	 SCS Total Energy          =    -482.1507277642001554 [Eh]
	-----------------------------------------------------------

  Dipole Moment: [D]
     X:     1.2213      Y:    -1.0545      Z:    -0.6337     Total:     1.7335

*** Psi4 exiting successfully. Buy a developer a beer!
