                               Psi4 1.4a3.dev225

  ==> Input File <==

--------------------------------------------------------------------------
#psi4
#
memory 32 gb

molecule  {
0 1
  N        1.0430420     0.8835120     0.3262100
  C       -2.6935940    -0.1236090    -0.2650160
  C       -0.4170680    -1.0145740    -0.0079460
  C       -1.5412706    -0.2861508    -0.9138929
  C       -2.2166740     0.1783740     1.1559530
  C       -1.0996000    -0.8433070     1.3811970
  C       -3.6002280     0.9375310    -0.8724950
  C        0.9620280    -0.4146880    -0.0398380
  C        2.0893310    -1.1495780    -0.4236340
  C        3.3396130    -0.5322390    -0.4347340
  C        2.2533150     1.4653640     0.3147880
  C        3.4262710     0.8062240    -0.0568370
  H       -3.2284890    -1.0854330    -0.2500270
  H       -0.3333030    -2.0805640    -0.2540920
  H       -0.9618110     0.6780590    -1.2570810
  H       -1.4754410    -0.8694270    -1.9482280
  H       -3.0167220     0.1138590     1.9027270
  H       -1.8007770     1.1928100     1.1867420
  H       -0.3855780    -0.5294870     2.1482020
  H       -1.5277920    -1.8013410     1.6997400
  H       -3.8772320     0.6843320    -1.9011880
  H       -4.5228040     1.0497910    -0.2936460
  H       -3.0892320     1.9062640    -0.8879070
  H        1.9842510    -2.1936970    -0.7089060
  H        4.2276210    -1.0857940    -0.7310670
  H        2.2780980     2.5111560     0.6184940
  H        4.3773590     1.3311980    -0.0481150
units angstrom
no_reorient  #important for SAPT in psi4, default
symmetry c1  #important for SAPT in psi4, default
}

set PROPERTIES_ORIGIN ["COM"]
properties('MP2/aug-cc-pvtz', properties = ['dipole'])
--------------------------------------------------------------------------

    Molecular point group: c1
  Charge       = 0
  Multiplicity = 1
  Basis Set: AUG-CC-PVTZ
    Blend: AUG-CC-PVTZ
  Basis Set: (AUG-CC-PVTZ AUX)
    Blend: AUG-CC-PVTZ-JKFIT

    Orbital Energies [Eh]
    ---------------------

    Doubly Occupied:

       1A    -15.558920     2A    -11.276841     3A    -11.274654
       4A    -11.258570     5A    -11.236967     6A    -11.236631
       7A    -11.228406     8A    -11.219441     9A    -11.210902
      10A    -11.207908    11A    -11.206311    12A    -11.204186
      13A     -1.252274    14A     -1.150456    15A     -1.082977
      16A     -1.052699    17A     -0.998326    18A     -0.946461
      19A     -0.904963    20A     -0.855855    21A     -0.837288
      22A     -0.771837    23A     -0.747756    24A     -0.697641
      25A     -0.666626    26A     -0.648775    27A     -0.642526
      28A     -0.613150    29A     -0.588742    30A     -0.579075
      31A     -0.573585    32A     -0.553969    33A     -0.537847
      34A     -0.523649    35A     -0.513474    36A     -0.493891
      37A     -0.470842    38A     -0.456833    39A     -0.456475
      40A     -0.430290    41A     -0.421127    42A     -0.408590
      43A     -0.376758    44A     -0.331168

  @DF-RHF Final Energy:  -479.84793241810871

   => Energetics <=

    Nuclear Repulsion Energy =            687.2209859166447359
    One-Electron Energy =               -2012.7265134037068037
    Two-Electron Energy =                 845.6575950689532419
    Total Energy =                       -479.8479324181087122
  Basis Set: (AUG-CC-PVTZ AUX)
    Blend: AUG-CC-PVTZ-RI
    Molecular point group: c1

    Geometry (in Angstrom), charge = 0, multiplicity = 1:

       Center              X                  Y                   Z               Mass
    ------------   -----------------  -----------------  -----------------  -----------------
         N            0.986000236914     0.880580147951     0.314489179339    14.003074004430
         C           -2.750635763086    -0.126540852049    -0.276736820661    12.000000000000
         C           -0.474109763086    -1.017505852049    -0.019666820661    12.000000000000
         C           -1.598312363086    -0.289082652049    -0.925613720661    12.000000000000
         C           -2.273715763086     0.175442147951     1.144232179339    12.000000000000
         C           -1.156641763086    -0.846238852049     1.369476179339    12.000000000000
         C           -3.657269763086     0.934599147951    -0.884215820661    12.000000000000
         C            0.904986236914    -0.417619852049    -0.051558820661    12.000000000000
         C            2.032289236914    -1.152509852049    -0.435354820661    12.000000000000
         C            3.282571236914    -0.535170852049    -0.446454820661    12.000000000000
         C            2.196273236914     1.462432147951     0.303067179339    12.000000000000
         C            3.369229236914     0.803292147951    -0.068557820661    12.000000000000
         H           -3.285530763086    -1.088364852049    -0.261747820661     1.007825032230
         H           -0.390344763086    -2.083495852049    -0.265812820661     1.007825032230
         H           -1.018852763086     0.675127147951    -1.268801820661     1.007825032230
         H           -1.532482763086    -0.872358852049    -1.959948820661     1.007825032230
         H           -3.073763763086     0.110927147951     1.891006179339     1.007825032230
         H           -1.857818763086     1.189878147951     1.175021179339     1.007825032230
         H           -0.442619763086    -0.532418852049     2.136481179339     1.007825032230
         H           -1.584833763086    -1.804272852049     1.688019179339     1.007825032230
         H           -3.934273763086     0.681400147951    -1.912908820661     1.007825032230
         H           -4.579845763086     1.046859147951    -0.305366820661     1.007825032230
         H           -3.146273763086     1.903332147951    -0.899627820661     1.007825032230
         H            1.927209236914    -2.196628852049    -0.720626820661     1.007825032230
         H            4.170579236914    -1.088725852049    -0.742787820661     1.007825032230
         H            2.221056236914     2.508224147951     0.606773179339     1.007825032230
         H            4.320317236914     1.328266147951    -0.059835820661     1.007825032230

  Basis Set: AUG-CC-PVTZ
    Blend: AUG-CC-PVTZ
  Basis Set: (AUG-CC-PVTZ AUX)
    Blend: AUG-CC-PVTZ-JKFIT
	 Reference Energy          =    -479.8479324181087122 [Eh]
	 Singles Energy            =      -0.0000000000000000 [Eh]
	 Same-Spin Energy          =      -0.5359169823784615 [Eh]
	 Opposite-Spin Energy      =      -1.7496531494081355 [Eh]
	 Correlation Energy        =      -2.2855701317865971 [Eh]
	 Total Energy              =    -482.1335025498952973 [Eh]

	 ================> DF-SCS-MP2 Energies <==================
	-----------------------------------------------------------
	 SCS Same-Spin Scale       =       0.3333333333333333 [-]
	 SCS Opposite-Spin Scale   =       1.2000000000000000 [-]
	 SCS Same-Spin Energy      =      -0.1786389941261538 [Eh]
	 SCS Opposite-Spin Energy  =      -2.0995837792897625 [Eh]
	 SCS Correlation Energy    =      -2.2782227734159162 [Eh]
	 SCS Total Energy          =    -482.1261551915246173 [Eh]
	-----------------------------------------------------------

  Dipole Moment: [D]
     X:     1.3219      Y:    -1.0112      Z:    -0.3909     Total:     1.7096

*** Psi4 exiting successfully. Buy a developer a beer!
