                               Psi4 1.4a3.dev225

  ==> Input File <==

--------------------------------------------------------------------------
#psi4
#
memory 32 gb

molecule  {
0 1
  N        1.0430420     0.8835120     0.3262100
  C       -2.6935940    -0.1236090    -0.2650160
  C       -0.4170680    -1.0145740    -0.0079460
  C       -1.3274621    -0.2780541    -1.0257483
  C       -2.2166740     0.1783740     1.1559530
  C       -1.0996000    -0.8433070     1.3811970
  C       -3.6002280     0.9375310    -0.8724950
  C        0.9620280    -0.4146880    -0.0398380
  C        2.0893310    -1.1495780    -0.4236340
  C        3.3396130    -0.5322390    -0.4347340
  C        2.2533150     1.4653640     0.3147880
  C        3.4262710     0.8062240    -0.0568370
  H       -3.2284890    -1.0854330    -0.2500270
  H       -0.3333030    -2.0805640    -0.2540920
  H       -0.9618110     0.6780590    -1.2570810
  H       -1.4754410    -0.8694270    -1.9482280
  H       -3.0167220     0.1138590     1.9027270
  H       -1.8007770     1.1928100     1.1867420
  H       -0.3855780    -0.5294870     2.1482020
  H       -1.5277920    -1.8013410     1.6997400
  H       -3.8772320     0.6843320    -1.9011880
  H       -4.5228040     1.0497910    -0.2936460
  H       -3.0892320     1.9062640    -0.8879070
  H        1.9842510    -2.1936970    -0.7089060
  H        4.2276210    -1.0857940    -0.7310670
  H        2.2780980     2.5111560     0.6184940
  H        4.3773590     1.3311980    -0.0481150
units angstrom
no_reorient  #important for SAPT in psi4, default
symmetry c1  #important for SAPT in psi4, default
}

set PROPERTIES_ORIGIN ["COM"]
properties('MP2/aug-cc-pvtz', properties = ['dipole'])
--------------------------------------------------------------------------

    Molecular point group: c1
  Charge       = 0
  Multiplicity = 1
  Basis Set: AUG-CC-PVTZ
    Blend: AUG-CC-PVTZ
  Basis Set: (AUG-CC-PVTZ AUX)
    Blend: AUG-CC-PVTZ-JKFIT

    Orbital Energies [Eh]
    ---------------------

    Doubly Occupied:

       1A    -15.557680     2A    -11.274932     3A    -11.274319
       4A    -11.257784     5A    -11.235492     6A    -11.234604
       7A    -11.226461     8A    -11.216377     9A    -11.211475
      10A    -11.208601    11A    -11.204869    12A    -11.203509
      13A     -1.251812    14A     -1.124850    15A     -1.081564
      16A     -1.045622    17A     -0.990324    18A     -0.955636
      19A     -0.892580    20A     -0.855073    21A     -0.836407
      22A     -0.764159    23A     -0.758068    24A     -0.696497
      25A     -0.667246    26A     -0.640159    27A     -0.638065
      28A     -0.606954    29A     -0.585284    30A     -0.581038
      31A     -0.573714    32A     -0.550926    33A     -0.537963
      34A     -0.530267    35A     -0.512992    36A     -0.472300
      37A     -0.469109    38A     -0.464295    39A     -0.454168
      40A     -0.447009    41A     -0.433290    42A     -0.409105
      43A     -0.376948    44A     -0.331514

  @DF-RHF Final Energy:  -479.89392982445349

   => Energetics <=

    Nuclear Repulsion Energy =            685.7588325338591630
    One-Electron Energy =               -2010.0234396532216579
    Two-Electron Energy =                 844.3706772949091146
    Total Energy =                       -479.8939298244534939
  Basis Set: (AUG-CC-PVTZ AUX)
    Blend: AUG-CC-PVTZ-RI
    Molecular point group: c1

    Geometry (in Angstrom), charge = 0, multiplicity = 1:

       Center              X                  Y                   Z               Mass
    ------------   -----------------  -----------------  -----------------  -----------------
         N            0.970076113017     0.879977118352     0.322819995224    14.003074004430
         C           -2.766559886983    -0.127143881648    -0.268406004776    12.000000000000
         C           -0.490033886983    -1.018108881648    -0.011336004776    12.000000000000
         C           -1.400427986983    -0.281588981648    -1.029138304776    12.000000000000
         C           -2.289639886983     0.174839118352     1.152562995224    12.000000000000
         C           -1.172565886983    -0.846841881648     1.377806995224    12.000000000000
         C           -3.673193886983     0.933996118352    -0.875885004776    12.000000000000
         C            0.889062113017    -0.418222881648    -0.043228004776    12.000000000000
         C            2.016365113017    -1.153112881648    -0.427024004776    12.000000000000
         C            3.266647113017    -0.535773881648    -0.438124004776    12.000000000000
         C            2.180349113017     1.461829118352     0.311397995224    12.000000000000
         C            3.353305113017     0.802689118352    -0.060227004776    12.000000000000
         H           -3.301454886983    -1.088967881648    -0.253417004776     1.007825032230
         H           -0.406268886983    -2.084098881648    -0.257482004776     1.007825032230
         H           -1.034776886983     0.674524118352    -1.260471004776     1.007825032230
         H           -1.548406886983    -0.872961881648    -1.951618004776     1.007825032230
         H           -3.089687886983     0.110324118352     1.899336995224     1.007825032230
         H           -1.873742886983     1.189275118352     1.183351995224     1.007825032230
         H           -0.458543886983    -0.533021881648     2.144811995224     1.007825032230
         H           -1.600757886983    -1.804875881648     1.696349995224     1.007825032230
         H           -3.950197886983     0.680797118352    -1.904578004776     1.007825032230
         H           -4.595769886983     1.046256118352    -0.297036004776     1.007825032230
         H           -3.162197886983     1.902729118352    -0.891297004776     1.007825032230
         H            1.911285113017    -2.197231881648    -0.712296004776     1.007825032230
         H            4.154655113017    -1.089328881648    -0.734457004776     1.007825032230
         H            2.205132113017     2.507621118352     0.615103995224     1.007825032230
         H            4.304393113017     1.327663118352    -0.051505004776     1.007825032230

  Basis Set: AUG-CC-PVTZ
    Blend: AUG-CC-PVTZ
  Basis Set: (AUG-CC-PVTZ AUX)
    Blend: AUG-CC-PVTZ-JKFIT
	 Reference Energy          =    -479.8939298244534939 [Eh]
	 Singles Energy            =      -0.0000000000000000 [Eh]
	 Same-Spin Energy          =      -0.5326030408688509 [Eh]
	 Opposite-Spin Energy      =      -1.7455168487047743 [Eh]
	 Correlation Energy        =      -2.2781198895736252 [Eh]
	 Total Energy              =    -482.1720497140271391 [Eh]

	 ================> DF-SCS-MP2 Energies <==================
	-----------------------------------------------------------
	 SCS Same-Spin Scale       =       0.3333333333333333 [-]
	 SCS Opposite-Spin Scale   =       1.2000000000000000 [-]
	 SCS Same-Spin Energy      =      -0.1775343469562836 [Eh]
	 SCS Opposite-Spin Energy  =      -2.0946202184457290 [Eh]
	 SCS Correlation Energy    =      -2.2721545654020128 [Eh]
	 SCS Total Energy          =    -482.1660843898554845 [Eh]
	-----------------------------------------------------------

  Dipole Moment: [D]
     X:     1.3087      Y:    -1.0702      Z:    -0.4938     Total:     1.7612

*** Psi4 exiting successfully. Buy a developer a beer!
