                               Psi4 1.4a3.dev225

  ==> Input File <==

--------------------------------------------------------------------------
#psi4
#
memory 32 gb

molecule  {
0 1
  N        1.0663269     0.8828845     0.3225224
  C       -2.6935940    -0.1236090    -0.2650160
  C       -0.4170680    -1.0145740    -0.0079460
  C       -1.3683020    -0.3105490    -1.0112920
  C       -2.2166740     0.1783740     1.1559530
  C       -1.0996000    -0.8433070     1.3811970
  C       -3.6002280     0.9375310    -0.8724950
  C        0.9620280    -0.4146880    -0.0398380
  C        2.0893310    -1.1495780    -0.4236340
  C        3.3396130    -0.5322390    -0.4347340
  C        2.2533150     1.4653640     0.3147880
  C        3.4262710     0.8062240    -0.0568370
  H       -3.2284890    -1.0854330    -0.2500270
  H       -0.3333030    -2.0805640    -0.2540920
  H       -0.9618110     0.6780590    -1.2570810
  H       -1.4754410    -0.8694270    -1.9482280
  H       -3.0167220     0.1138590     1.9027270
  H       -1.8007770     1.1928100     1.1867420
  H       -0.3855780    -0.5294870     2.1482020
  H       -1.5277920    -1.8013410     1.6997400
  H       -3.8772320     0.6843320    -1.9011880
  H       -4.5228040     1.0497910    -0.2936460
  H       -3.0892320     1.9062640    -0.8879070
  H        1.9842510    -2.1936970    -0.7089060
  H        4.2276210    -1.0857940    -0.7310670
  H        2.2780980     2.5111560     0.6184940
  H        4.3773590     1.3311980    -0.0481150
units angstrom
no_reorient  #important for SAPT in psi4, default
symmetry c1  #important for SAPT in psi4, default
}

set PROPERTIES_ORIGIN ["COM"]
properties('MP2/aug-cc-pvtz', properties = ['dipole'])
--------------------------------------------------------------------------

    Molecular point group: c1
  Charge       = 0
  Multiplicity = 1
  Basis Set: AUG-CC-PVTZ
    Blend: AUG-CC-PVTZ
  Basis Set: (AUG-CC-PVTZ AUX)
    Blend: AUG-CC-PVTZ-JKFIT

    Orbital Energies [Eh]
    ---------------------

    Doubly Occupied:

       1A    -15.555062     2A    -11.275307     3A    -11.271746
       4A    -11.256860     5A    -11.234927     6A    -11.234621
       7A    -11.226838     8A    -11.214921     9A    -11.211776
      10A    -11.210102    11A    -11.205493    12A    -11.204112
      13A     -1.256180    14A     -1.128262    15A     -1.081331
      16A     -1.047676    17A     -0.991468    18A     -0.955080
      19A     -0.894090    20A     -0.853984    21A     -0.838632
      22A     -0.765475    23A     -0.755992    24A     -0.697472
      25A     -0.668449    26A     -0.641007    27A     -0.640288
      28A     -0.608173    29A     -0.585435    30A     -0.578077
      31A     -0.574345    32A     -0.552101    33A     -0.539440
      34A     -0.528220    35A     -0.512726    36A     -0.473589
      37A     -0.469432    38A     -0.461340    39A     -0.453504
      40A     -0.447381    41A     -0.439747    42A     -0.406118
      43A     -0.378176    44A     -0.331340

  @DF-RHF Final Energy:  -479.89755503645534

   => Energetics <=

    Nuclear Repulsion Energy =            686.0599809099214781
    One-Electron Energy =               -2010.6024819271140132
    Two-Electron Energy =                 844.6449459807372477
    Total Energy =                       -479.8975550364552873
  Basis Set: (AUG-CC-PVTZ AUX)
    Blend: AUG-CC-PVTZ-RI
    Molecular point group: c1

    Geometry (in Angstrom), charge = 0, multiplicity = 1:

       Center              X                  Y                   Z               Mass
    ------------   -----------------  -----------------  -----------------  -----------------
         N            0.994379000632     0.881824324264     0.318376204035    14.003074004430
         C           -2.765541899368    -0.124669175736    -0.269162195965    12.000000000000
         C           -0.489015899368    -1.015634175736    -0.012092195965    12.000000000000
         C           -1.440249899368    -0.311609175736    -1.015438195965    12.000000000000
         C           -2.288621899368     0.177313824264     1.151806804035    12.000000000000
         C           -1.171547899368    -0.844367175736     1.377050804035    12.000000000000
         C           -3.672175899368     0.936470824264    -0.876641195965    12.000000000000
         C            0.890080100632    -0.415748175736    -0.043984195965    12.000000000000
         C            2.017383100632    -1.150638175736    -0.427780195965    12.000000000000
         C            3.267665100632    -0.533299175736    -0.438880195965    12.000000000000
         C            2.181367100632     1.464303824264     0.310641804035    12.000000000000
         C            3.354323100632     0.805163824264    -0.060983195965    12.000000000000
         H           -3.300436899368    -1.086493175736    -0.254173195965     1.007825032230
         H           -0.405250899368    -2.081624175736    -0.258238195965     1.007825032230
         H           -1.033758899368     0.676998824264    -1.261227195965     1.007825032230
         H           -1.547388899368    -0.870487175736    -1.952374195965     1.007825032230
         H           -3.088669899368     0.112798824264     1.898580804035     1.007825032230
         H           -1.872724899368     1.191749824264     1.182595804035     1.007825032230
         H           -0.457525899368    -0.530547175736     2.144055804035     1.007825032230
         H           -1.599739899368    -1.802401175736     1.695593804035     1.007825032230
         H           -3.949179899368     0.683271824264    -1.905334195965     1.007825032230
         H           -4.594751899368     1.048730824264    -0.297792195965     1.007825032230
         H           -3.161179899368     1.905203824264    -0.892053195965     1.007825032230
         H            1.912303100632    -2.194757175736    -0.713052195965     1.007825032230
         H            4.155673100632    -1.086854175736    -0.735213195965     1.007825032230
         H            2.206150100632     2.510095824264     0.614347804035     1.007825032230
         H            4.305411100632     1.330137824264    -0.052261195965     1.007825032230

  Basis Set: AUG-CC-PVTZ
    Blend: AUG-CC-PVTZ
  Basis Set: (AUG-CC-PVTZ AUX)
    Blend: AUG-CC-PVTZ-JKFIT
	 Reference Energy          =    -479.8975550364553442 [Eh]
	 Singles Energy            =      -0.0000000000000000 [Eh]
	 Same-Spin Energy          =      -0.5325402747853792 [Eh]
	 Opposite-Spin Energy      =      -1.7447740946454813 [Eh]
	 Correlation Energy        =      -2.2773143694308606 [Eh]
	 Total Energy              =    -482.1748694058862270 [Eh]

	 ================> DF-SCS-MP2 Energies <==================
	-----------------------------------------------------------
	 SCS Same-Spin Scale       =       0.3333333333333333 [-]
	 SCS Opposite-Spin Scale   =       1.2000000000000000 [-]
	 SCS Same-Spin Energy      =      -0.1775134249284597 [Eh]
	 SCS Opposite-Spin Energy  =      -2.0937289135745774 [Eh]
	 SCS Correlation Energy    =      -2.2712423385030371 [Eh]
	 SCS Total Energy          =    -482.1687973749583875 [Eh]
	-----------------------------------------------------------

  Dipole Moment: [D]
     X:     1.2703      Y:    -1.0700      Z:    -0.4863     Total:     1.7306

*** Psi4 exiting successfully. Buy a developer a beer!
