                               Psi4 1.4a3.dev225

  ==> Input File <==

--------------------------------------------------------------------------
#psi4
#
memory 32 gb

molecule  {
0 1
  N        1.0430420     0.8835120     0.3262100
  C       -2.6935940    -0.1236090    -0.2650160
  C       -0.4170680    -1.0145740    -0.0079460
  C       -1.3683020    -0.3105490    -1.0112920
  C       -2.2057957     0.1940416     1.1746536
  C       -1.0996000    -0.8433070     1.3811970
  C       -3.6002280     0.9375310    -0.8724950
  C        0.9620280    -0.4146880    -0.0398380
  C        2.0893310    -1.1495780    -0.4236340
  C        3.3396130    -0.5322390    -0.4347340
  C        2.2533150     1.4653640     0.3147880
  C        3.4262710     0.8062240    -0.0568370
  H       -3.2284890    -1.0854330    -0.2500270
  H       -0.3333030    -2.0805640    -0.2540920
  H       -0.9618110     0.6780590    -1.2570810
  H       -1.4754410    -0.8694270    -1.9482280
  H       -3.0167220     0.1138590     1.9027270
  H       -1.8007770     1.1928100     1.1867420
  H       -0.3855780    -0.5294870     2.1482020
  H       -1.5277920    -1.8013410     1.6997400
  H       -3.8772320     0.6843320    -1.9011880
  H       -4.5228040     1.0497910    -0.2936460
  H       -3.0892320     1.9062640    -0.8879070
  H        1.9842510    -2.1936970    -0.7089060
  H        4.2276210    -1.0857940    -0.7310670
  H        2.2780980     2.5111560     0.6184940
  H        4.3773590     1.3311980    -0.0481150
units angstrom
no_reorient  #important for SAPT in psi4, default
symmetry c1  #important for SAPT in psi4, default
}

set PROPERTIES_ORIGIN ["COM"]
properties('MP2/aug-cc-pvtz', properties = ['dipole'])
--------------------------------------------------------------------------

    Molecular point group: c1
  Charge       = 0
  Multiplicity = 1
  Basis Set: AUG-CC-PVTZ
    Blend: AUG-CC-PVTZ
  Basis Set: (AUG-CC-PVTZ AUX)
    Blend: AUG-CC-PVTZ-JKFIT

    Orbital Energies [Eh]
    ---------------------

    Doubly Occupied:

       1A    -15.558065     2A    -11.275347     3A    -11.274395
       4A    -11.257964     5A    -11.235897     6A    -11.235117
       7A    -11.226167     8A    -11.215489     9A    -11.211406
      10A    -11.209545    11A    -11.204950    12A    -11.202958
      13A     -1.251895    14A     -1.125567    15A     -1.081841
      16A     -1.045642    17A     -0.990934    18A     -0.955050
      19A     -0.893095    20A     -0.855152    21A     -0.836456
      22A     -0.765225    23A     -0.755380    24A     -0.696821
      25A     -0.667889    26A     -0.640377    27A     -0.639602
      28A     -0.607462    29A     -0.584840    30A     -0.578537
      31A     -0.573866    32A     -0.551523    33A     -0.538507
      34A     -0.527343    35A     -0.512653    36A     -0.473141
      37A     -0.469434    38A     -0.461739    39A     -0.454810
      40A     -0.448021    41A     -0.433461    42A     -0.410101
      43A     -0.377016    44A     -0.332151

  @DF-RHF Final Energy:  -479.89614667984068

   => Energetics <=

    Nuclear Repulsion Energy =            685.5991058264658022
    One-Electron Energy =               -2009.7048425539981054
    Two-Electron Energy =                 844.2095900476915631
    Total Energy =                       -479.8961466798407400
  Basis Set: (AUG-CC-PVTZ AUX)
    Blend: AUG-CC-PVTZ-RI
    Molecular point group: c1

    Geometry (in Angstrom), charge = 0, multiplicity = 1:

       Center              X                  Y                   Z               Mass
    ------------   -----------------  -----------------  -----------------  -----------------
         N            0.972307606295     0.881230389434     0.320350520981    14.003074004430
         C           -2.764328393705    -0.125890610566    -0.270875479019    12.000000000000
         C           -0.487802393705    -1.016855610566    -0.013805479019    12.000000000000
         C           -1.439036393705    -0.312830610566    -1.017151479019    12.000000000000
         C           -2.276530093705     0.191759989434     1.168794120981    12.000000000000
         C           -1.170334393705    -0.845588610566     1.375337520981    12.000000000000
         C           -3.670962393705     0.935249389434    -0.878354479019    12.000000000000
         C            0.891293606295    -0.416969610566    -0.045697479019    12.000000000000
         C            2.018596606295    -1.151859610566    -0.429493479019    12.000000000000
         C            3.268878606295    -0.534520610566    -0.440593479019    12.000000000000
         C            2.182580606295     1.463082389434     0.308928520981    12.000000000000
         C            3.355536606295     0.803942389434    -0.062696479019    12.000000000000
         H           -3.299223393705    -1.087714610566    -0.255886479019     1.007825032230
         H           -0.404037393705    -2.082845610566    -0.259951479019     1.007825032230
         H           -1.032545393705     0.675777389434    -1.262940479019     1.007825032230
         H           -1.546175393705    -0.871708610566    -1.954087479019     1.007825032230
         H           -3.087456393705     0.111577389434     1.896867520981     1.007825032230
         H           -1.871511393705     1.190528389434     1.180882520981     1.007825032230
         H           -0.456312393705    -0.531768610566     2.142342520981     1.007825032230
         H           -1.598526393705    -1.803622610566     1.693880520981     1.007825032230
         H           -3.947966393705     0.682050389434    -1.907047479019     1.007825032230
         H           -4.593538393705     1.047509389434    -0.299505479019     1.007825032230
         H           -3.159966393705     1.903982389434    -0.893766479019     1.007825032230
         H            1.913516606295    -2.195978610566    -0.714765479019     1.007825032230
         H            4.156886606295    -1.088075610566    -0.736926479019     1.007825032230
         H            2.207363606295     2.508874389434     0.612634520981     1.007825032230
         H            4.306624606295     1.328916389434    -0.053974479019     1.007825032230

  Basis Set: AUG-CC-PVTZ
    Blend: AUG-CC-PVTZ
  Basis Set: (AUG-CC-PVTZ AUX)
    Blend: AUG-CC-PVTZ-JKFIT
	 Reference Energy          =    -479.8961466798406832 [Eh]
	 Singles Energy            =      -0.0000000000000000 [Eh]
	 Same-Spin Energy          =      -0.5326653983581062 [Eh]
	 Opposite-Spin Energy      =      -1.7454887514409947 [Eh]
	 Correlation Energy        =      -2.2781541497991009 [Eh]
	 Total Energy              =    -482.1743008296397761 [Eh]

	 ================> DF-SCS-MP2 Energies <==================
	-----------------------------------------------------------
	 SCS Same-Spin Scale       =       0.3333333333333333 [-]
	 SCS Opposite-Spin Scale   =       1.2000000000000000 [-]
	 SCS Same-Spin Energy      =      -0.1775551327860354 [Eh]
	 SCS Opposite-Spin Energy  =      -2.0945865017291934 [Eh]
	 SCS Correlation Energy    =      -2.2721416345152288 [Eh]
	 SCS Total Energy          =    -482.1682883143558911 [Eh]
	-----------------------------------------------------------

  Dipole Moment: [D]
     X:     1.3311      Y:    -1.0681      Z:    -0.4942     Total:     1.7768

*** Psi4 exiting successfully. Buy a developer a beer!
