                               Psi4 1.4a3.dev225

  ==> Input File <==

--------------------------------------------------------------------------
#psi4
#
memory 32 gb

molecule  {
0 1
  N        1.1821463     0.8738013     0.3025372
  C       -2.6935940    -0.1236090    -0.2650160
  C       -0.4170680    -1.0145740    -0.0079460
  C       -1.3683020    -0.3105490    -1.0112920
  C       -2.2166740     0.1783740     1.1559530
  C       -1.0996000    -0.8433070     1.3811970
  C       -3.6002280     0.9375310    -0.8724950
  C        0.9620280    -0.4146880    -0.0398380
  C        2.0893310    -1.1495780    -0.4236340
  C        3.3396130    -0.5322390    -0.4347340
  C        2.2533150     1.4653640     0.3147880
  C        3.4262710     0.8062240    -0.0568370
  H       -3.2284890    -1.0854330    -0.2500270
  H       -0.3333030    -2.0805640    -0.2540920
  H       -0.9618110     0.6780590    -1.2570810
  H       -1.4754410    -0.8694270    -1.9482280
  H       -3.0167220     0.1138590     1.9027270
  H       -1.8007770     1.1928100     1.1867420
  H       -0.3855780    -0.5294870     2.1482020
  H       -1.5277920    -1.8013410     1.6997400
  H       -3.8772320     0.6843320    -1.9011880
  H       -4.5228040     1.0497910    -0.2936460
  H       -3.0892320     1.9062640    -0.8879070
  H        1.9842510    -2.1936970    -0.7089060
  H        4.2276210    -1.0857940    -0.7310670
  H        2.2780980     2.5111560     0.6184940
  H        4.3773590     1.3311980    -0.0481150
units angstrom
no_reorient  #important for SAPT in psi4, default
symmetry c1  #important for SAPT in psi4, default
}

set PROPERTIES_ORIGIN ["COM"]
properties('MP2/aug-cc-pvtz', properties = ['dipole'])
--------------------------------------------------------------------------

    Molecular point group: c1
  Charge       = 0
  Multiplicity = 1
  Basis Set: AUG-CC-PVTZ
    Blend: AUG-CC-PVTZ
  Basis Set: (AUG-CC-PVTZ AUX)
    Blend: AUG-CC-PVTZ-JKFIT

    Orbital Energies [Eh]
    ---------------------

    Doubly Occupied:

       1A    -15.539519     2A    -11.275710     3A    -11.257933
       4A    -11.251163     5A    -11.232496     6A    -11.230396
       7A    -11.229975     8A    -11.216596     9A    -11.213704
      10A    -11.212079    11A    -11.206827    12A    -11.206240
      13A     -1.281191    14A     -1.131988    15A     -1.080405
      16A     -1.051669    17A     -0.992932    18A     -0.956609
      19A     -0.895567    20A     -0.852820    21A     -0.842935
      22A     -0.770695    23A     -0.757881    24A     -0.702474
      25A     -0.669533    26A     -0.645309    27A     -0.638776
      28A     -0.609542    29A     -0.588487    30A     -0.581560
      31A     -0.575248    32A     -0.554399    33A     -0.547886
      34A     -0.532024    35A     -0.516356    36A     -0.476334
      37A     -0.472080    38A     -0.462947    39A     -0.457202
      40A     -0.449281    41A     -0.441119    42A     -0.384426
      43A     -0.382882    44A     -0.327093

  @DF-RHF Final Energy:  -479.88448088199385

   => Energetics <=

    Nuclear Repulsion Energy =            687.2368265039599464
    One-Electron Energy =               -2012.8380395866201980
    Two-Electron Energy =                 845.7167322006664563
    Total Energy =                       -479.8844808819937953
  Basis Set: (AUG-CC-PVTZ AUX)
    Blend: AUG-CC-PVTZ-RI
    Molecular point group: c1

    Geometry (in Angstrom), charge = 0, multiplicity = 1:

       Center              X                  Y                   Z               Mass
    ------------   -----------------  -----------------  -----------------  -----------------
         N            1.100132467757     0.873530550574     0.300127929642    14.003074004430
         C           -2.775607832243    -0.123879749426    -0.267425270358    12.000000000000
         C           -0.499081832243    -1.014844749426    -0.010355270358    12.000000000000
         C           -1.450315832243    -0.310819749426    -1.013701270358    12.000000000000
         C           -2.298687832243     0.178103250574     1.153543729642    12.000000000000
         C           -1.181613832243    -0.843577749426     1.378787729642    12.000000000000
         C           -3.682241832243     0.937260250574    -0.874904270358    12.000000000000
         C            0.880014167757    -0.414958749426    -0.042247270358    12.000000000000
         C            2.007317167757    -1.149848749426    -0.426043270358    12.000000000000
         C            3.257599167757    -0.532509749426    -0.437143270358    12.000000000000
         C            2.171301167757     1.465093250574     0.312378729642    12.000000000000
         C            3.344257167757     0.805953250574    -0.059246270358    12.000000000000
         H           -3.310502832243    -1.085703749426    -0.252436270358     1.007825032230
         H           -0.415316832243    -2.080834749426    -0.256501270358     1.007825032230
         H           -1.043824832243     0.677788250574    -1.259490270358     1.007825032230
         H           -1.557454832243    -0.869697749426    -1.950637270358     1.007825032230
         H           -3.098735832243     0.113588250574     1.900317729642     1.007825032230
         H           -1.882790832243     1.192539250574     1.184332729642     1.007825032230
         H           -0.467591832243    -0.529757749426     2.145792729642     1.007825032230
         H           -1.609805832243    -1.801611749426     1.697330729642     1.007825032230
         H           -3.959245832243     0.684061250574    -1.903597270358     1.007825032230
         H           -4.604817832243     1.049520250574    -0.296055270358     1.007825032230
         H           -3.171245832243     1.905993250574    -0.890316270358     1.007825032230
         H            1.902237167757    -2.193967749426    -0.711315270358     1.007825032230
         H            4.145607167757    -1.086064749426    -0.733476270358     1.007825032230
         H            2.196084167757     2.510885250574     0.616084729642     1.007825032230
         H            4.295345167757     1.330927250574    -0.050524270358     1.007825032230

  Basis Set: AUG-CC-PVTZ
    Blend: AUG-CC-PVTZ
  Basis Set: (AUG-CC-PVTZ AUX)
    Blend: AUG-CC-PVTZ-JKFIT
	 Reference Energy          =    -479.8844808819938521 [Eh]
	 Singles Energy            =      -0.0000000000000000 [Eh]
	 Same-Spin Energy          =      -0.5315972812588232 [Eh]
	 Opposite-Spin Energy      =      -1.7420585025850515 [Eh]
	 Correlation Energy        =      -2.2736557838438749 [Eh]
	 Total Energy              =    -482.1581366658377306 [Eh]

	 ================> DF-SCS-MP2 Energies <==================
	-----------------------------------------------------------
	 SCS Same-Spin Scale       =       0.3333333333333333 [-]
	 SCS Opposite-Spin Scale   =       1.2000000000000000 [-]
	 SCS Same-Spin Energy      =      -0.1771990937529411 [Eh]
	 SCS Opposite-Spin Energy  =      -2.0904702031020617 [Eh]
	 SCS Correlation Energy    =      -2.2676692968550025 [Eh]
	 SCS Total Energy          =    -482.1521501788488422 [Eh]
	-----------------------------------------------------------

  Dipole Moment: [D]
     X:     0.9053      Y:    -1.0766      Z:    -0.4377     Total:     1.4731

*** Psi4 exiting successfully. Buy a developer a beer!
