                               Psi4 1.4a3.dev225

  ==> Input File <==

--------------------------------------------------------------------------
#psi4
#
memory 32 gb

molecule  {
0 1
  N        1.0430420     0.8835120     0.3262100
  C       -2.6935940    -0.1236090    -0.2650160
  C       -0.4170680    -1.0145740    -0.0079460
  C       -1.2818177    -0.3227481    -1.0599916
  C       -2.2166740     0.1783740     1.1559530
  C       -1.0996000    -0.8433070     1.3811970
  C       -3.6002280     0.9375310    -0.8724950
  C        0.9620280    -0.4146880    -0.0398380
  C        2.0893310    -1.1495780    -0.4236340
  C        3.3396130    -0.5322390    -0.4347340
  C        2.2533150     1.4653640     0.3147880
  C        3.4262710     0.8062240    -0.0568370
  H       -3.2284890    -1.0854330    -0.2500270
  H       -0.3333030    -2.0805640    -0.2540920
  H       -0.9618110     0.6780590    -1.2570810
  H       -1.4754410    -0.8694270    -1.9482280
  H       -3.0167220     0.1138590     1.9027270
  H       -1.8007770     1.1928100     1.1867420
  H       -0.3855780    -0.5294870     2.1482020
  H       -1.5277920    -1.8013410     1.6997400
  H       -3.8772320     0.6843320    -1.9011880
  H       -4.5228040     1.0497910    -0.2936460
  H       -3.0892320     1.9062640    -0.8879070
  H        1.9842510    -2.1936970    -0.7089060
  H        4.2276210    -1.0857940    -0.7310670
  H        2.2780980     2.5111560     0.6184940
  H        4.3773590     1.3311980    -0.0481150
units angstrom
no_reorient  #important for SAPT in psi4, default
symmetry c1  #important for SAPT in psi4, default
}

set PROPERTIES_ORIGIN ["COM"]
properties('MP2/aug-cc-pvtz', properties = ['dipole'])
--------------------------------------------------------------------------

    Molecular point group: c1
  Charge       = 0
  Multiplicity = 1
  Basis Set: AUG-CC-PVTZ
    Blend: AUG-CC-PVTZ
  Basis Set: (AUG-CC-PVTZ AUX)
    Blend: AUG-CC-PVTZ-JKFIT

    Orbital Energies [Eh]
    ---------------------

    Doubly Occupied:

       1A    -15.557423     2A    -11.274695     3A    -11.274136
       4A    -11.257561     5A    -11.235189     6A    -11.234254
       7A    -11.226141     8A    -11.218656     9A    -11.212138
      10A    -11.208014    11A    -11.204826    12A    -11.203621
      13A     -1.251678    14A     -1.122028    15A     -1.081248
      16A     -1.044400    17A     -0.989219    18A     -0.958795
      19A     -0.890543    20A     -0.854829    21A     -0.836549
      22A     -0.764625    23A     -0.755936    24A     -0.696752
      25A     -0.668933    26A     -0.639924    27A     -0.637901
      28A     -0.606216    29A     -0.584217    30A     -0.581539
      31A     -0.573025    32A     -0.551059    33A     -0.538877
      34A     -0.530310    35A     -0.512476    36A     -0.483892
      37A     -0.470255    38A     -0.465349    39A     -0.452360
      40A     -0.444646    41A     -0.421866    42A     -0.406731
      43A     -0.376656    44A     -0.331438

  @DF-RHF Final Energy:  -479.88896700773068

   => Energetics <=

    Nuclear Repulsion Energy =            685.2982143001084978
    One-Electron Energy =               -2009.1125076466328210
    Two-Electron Energy =                 843.9253263387935249
    Total Energy =                       -479.8889670077306846
  Basis Set: (AUG-CC-PVTZ AUX)
    Blend: AUG-CC-PVTZ-RI
    Molecular point group: c1

    Geometry (in Angstrom), charge = 0, multiplicity = 1:

       Center              X                  Y                   Z               Mass
    ------------   -----------------  -----------------  -----------------  -----------------
         N            0.966676589234     0.883305857824     0.325370382846    14.003074004430
         C           -2.769959410766    -0.123815142176    -0.265855617154    12.000000000000
         C           -0.493433410766    -1.014780142176    -0.008785617154    12.000000000000
         C           -1.358183110766    -0.322954242176    -1.060831217154    12.000000000000
         C           -2.293039410766     0.178167857824     1.155113382846    12.000000000000
         C           -1.175965410766    -0.843513142176     1.380357382846    12.000000000000
         C           -3.676593410766     0.937324857824    -0.873334617154    12.000000000000
         C            0.885662589234    -0.414894142176    -0.040677617154    12.000000000000
         C            2.012965589234    -1.149784142176    -0.424473617154    12.000000000000
         C            3.263247589234    -0.532445142176    -0.435573617154    12.000000000000
         C            2.176949589234     1.465157857824     0.313948382846    12.000000000000
         C            3.349905589234     0.806017857824    -0.057676617154    12.000000000000
         H           -3.304854410766    -1.085639142176    -0.250866617154     1.007825032230
         H           -0.409668410766    -2.080770142176    -0.254931617154     1.007825032230
         H           -1.038176410766     0.677852857824    -1.257920617154     1.007825032230
         H           -1.551806410766    -0.869633142176    -1.949067617154     1.007825032230
         H           -3.093087410766     0.113652857824     1.901887382846     1.007825032230
         H           -1.877142410766     1.192603857824     1.185902382846     1.007825032230
         H           -0.461943410766    -0.529693142176     2.147362382846     1.007825032230
         H           -1.604157410766    -1.801547142176     1.698900382846     1.007825032230
         H           -3.953597410766     0.684125857824    -1.902027617154     1.007825032230
         H           -4.599169410766     1.049584857824    -0.294485617154     1.007825032230
         H           -3.165597410766     1.906057857824    -0.888746617154     1.007825032230
         H            1.907885589234    -2.193903142176    -0.709745617154     1.007825032230
         H            4.151255589234    -1.086000142176    -0.731906617154     1.007825032230
         H            2.201732589234     2.510949857824     0.617654382846     1.007825032230
         H            4.300993589234     1.330991857824    -0.048954617154     1.007825032230

  Basis Set: AUG-CC-PVTZ
    Blend: AUG-CC-PVTZ
  Basis Set: (AUG-CC-PVTZ AUX)
    Blend: AUG-CC-PVTZ-JKFIT
	 Reference Energy          =    -479.8889670077306846 [Eh]
	 Singles Energy            =      -0.0000000000000000 [Eh]
	 Same-Spin Energy          =      -0.5327250999834792 [Eh]
	 Opposite-Spin Energy      =      -1.7459524108274223 [Eh]
	 Correlation Energy        =      -2.2786775108109012 [Eh]
	 Total Energy              =    -482.1676445185415787 [Eh]

	 ================> DF-SCS-MP2 Energies <==================
	-----------------------------------------------------------
	 SCS Same-Spin Scale       =       0.3333333333333333 [-]
	 SCS Opposite-Spin Scale   =       1.2000000000000000 [-]
	 SCS Same-Spin Energy      =      -0.1775750333278264 [Eh]
	 SCS Opposite-Spin Energy  =      -2.0951428929929068 [Eh]
	 SCS Correlation Energy    =      -2.2727179263207331 [Eh]
	 SCS Total Energy          =    -482.1616849340514364 [Eh]
	-----------------------------------------------------------

  Dipole Moment: [D]
     X:     1.2804      Y:    -1.0916      Z:    -0.4987     Total:     1.7550

*** Psi4 exiting successfully. Buy a developer a beer!
