                               Psi4 1.4a3.dev225

  ==> Input File <==

--------------------------------------------------------------------------
#psi4
#
memory 32 gb

molecule  {
0 1
  N        1.0430420     0.8835120     0.3262100
  C       -2.6935940    -0.1236090    -0.2650160
  C       -0.2778988    -0.9705025     0.0645615
  C       -1.3683020    -0.3105490    -1.0112920
  C       -2.2166740     0.1783740     1.1559530
  C       -1.0996000    -0.8433070     1.3811970
  C       -3.6002280     0.9375310    -0.8724950
  C        0.9620280    -0.4146880    -0.0398380
  C        2.0893310    -1.1495780    -0.4236340
  C        3.3396130    -0.5322390    -0.4347340
  C        2.2533150     1.4653640     0.3147880
  C        3.4262710     0.8062240    -0.0568370
  H       -3.2284890    -1.0854330    -0.2500270
  H       -0.3333030    -2.0805640    -0.2540920
  H       -0.9618110     0.6780590    -1.2570810
  H       -1.4754410    -0.8694270    -1.9482280
  H       -3.0167220     0.1138590     1.9027270
  H       -1.8007770     1.1928100     1.1867420
  H       -0.3855780    -0.5294870     2.1482020
  H       -1.5277920    -1.8013410     1.6997400
  H       -3.8772320     0.6843320    -1.9011880
  H       -4.5228040     1.0497910    -0.2936460
  H       -3.0892320     1.9062640    -0.8879070
  H        1.9842510    -2.1936970    -0.7089060
  H        4.2276210    -1.0857940    -0.7310670
  H        2.2780980     2.5111560     0.6184940
  H        4.3773590     1.3311980    -0.0481150
units angstrom
no_reorient  #important for SAPT in psi4, default
symmetry c1  #important for SAPT in psi4, default
}

set PROPERTIES_ORIGIN ["COM"]
properties('MP2/aug-cc-pvtz', properties = ['dipole'])
--------------------------------------------------------------------------

    Molecular point group: c1
  Charge       = 0
  Multiplicity = 1
  Basis Set: AUG-CC-PVTZ
    Blend: AUG-CC-PVTZ
  Basis Set: (AUG-CC-PVTZ AUX)
    Blend: AUG-CC-PVTZ-JKFIT

    Orbital Energies [Eh]
    ---------------------

    Doubly Occupied:

       1A    -15.557195     2A    -11.274219     3A    -11.267957
       4A    -11.257749     5A    -11.235763     6A    -11.234973
       7A    -11.226640     8A    -11.217489     9A    -11.216057
      10A    -11.214801    11A    -11.206805    12A    -11.205234
      13A     -1.256984    14A     -1.124234    15A     -1.082238
      16A     -1.060539    17A     -0.991162    18A     -0.948130
      19A     -0.899552    20A     -0.858027    21A     -0.842812
      22A     -0.767685    23A     -0.754309    24A     -0.694085
      25A     -0.670175    26A     -0.645255    27A     -0.637676
      28A     -0.607749    29A     -0.583767    30A     -0.578383
      31A     -0.574228    32A     -0.553337    33A     -0.541747
      34A     -0.526703    35A     -0.516676    36A     -0.485035
      37A     -0.463244    38A     -0.461076    39A     -0.450216
      40A     -0.440978    41A     -0.431473    42A     -0.410726
      43A     -0.376960    44A     -0.324496

  @DF-RHF Final Energy:  -479.86746232895547

   => Energetics <=

    Nuclear Repulsion Energy =            686.8079785340122498
    One-Electron Energy =               -2012.0018015987584477
    Two-Electron Energy =                 845.3263607357905585
    Total Energy =                       -479.8674623289555257
  Basis Set: (AUG-CC-PVTZ AUX)
    Blend: AUG-CC-PVTZ-RI
    Molecular point group: c1

    Geometry (in Angstrom), charge = 0, multiplicity = 1:

       Center              X                  Y                   Z               Mass
    ------------   -----------------  -----------------  -----------------  -----------------
         N            0.962752699982     0.879114911224     0.316343066918    14.003074004430
         C           -2.773883300018    -0.128006088776    -0.274882933082    12.000000000000
         C           -0.358188100018    -0.974899588776     0.054694566918    12.000000000000
         C           -1.448591300018    -0.314946088776    -1.021158933082    12.000000000000
         C           -2.296963300018     0.173976911224     1.146086066918    12.000000000000
         C           -1.179889300018    -0.847704088776     1.371330066918    12.000000000000
         C           -3.680517300018     0.933133911224    -0.882361933082    12.000000000000
         C            0.881738699982    -0.419085088776    -0.049704933082    12.000000000000
         C            2.009041699982    -1.153975088776    -0.433500933082    12.000000000000
         C            3.259323699982    -0.536636088776    -0.444600933082    12.000000000000
         C            2.173025699982     1.460966911224     0.304921066918    12.000000000000
         C            3.345981699982     0.801826911224    -0.066703933082    12.000000000000
         H           -3.308778300018    -1.089830088776    -0.259893933082     1.007825032230
         H           -0.413592300018    -2.084961088776    -0.263958933082     1.007825032230
         H           -1.042100300018     0.673661911224    -1.266947933082     1.007825032230
         H           -1.555730300018    -0.873824088776    -1.958094933082     1.007825032230
         H           -3.097011300018     0.109461911224     1.892860066918     1.007825032230
         H           -1.881066300018     1.188412911224     1.176875066918     1.007825032230
         H           -0.465867300018    -0.533884088776     2.138335066918     1.007825032230
         H           -1.608081300018    -1.805738088776     1.689873066918     1.007825032230
         H           -3.957521300018     0.679934911224    -1.911054933082     1.007825032230
         H           -4.603093300018     1.045393911224    -0.303512933082     1.007825032230
         H           -3.169521300018     1.901866911224    -0.897773933082     1.007825032230
         H            1.903961699982    -2.198094088776    -0.718772933082     1.007825032230
         H            4.147331699982    -1.090191088776    -0.740933933082     1.007825032230
         H            2.197808699982     2.506758911224     0.608627066918     1.007825032230
         H            4.297069699982     1.326800911224    -0.057981933082     1.007825032230

  Basis Set: AUG-CC-PVTZ
    Blend: AUG-CC-PVTZ
  Basis Set: (AUG-CC-PVTZ AUX)
    Blend: AUG-CC-PVTZ-JKFIT
	 Reference Energy          =    -479.8674623289554688 [Eh]
	 Singles Energy            =      -0.0000000000000000 [Eh]
	 Same-Spin Energy          =      -0.5349415400969744 [Eh]
	 Opposite-Spin Energy      =      -1.7490239053622030 [Eh]
	 Correlation Energy        =      -2.2839654454591773 [Eh]
	 Total Energy              =    -482.1514277744146284 [Eh]

	 ================> DF-SCS-MP2 Energies <==================
	-----------------------------------------------------------
	 SCS Same-Spin Scale       =       0.3333333333333333 [-]
	 SCS Opposite-Spin Scale   =       1.2000000000000000 [-]
	 SCS Same-Spin Energy      =      -0.1783138466989914 [Eh]
	 SCS Opposite-Spin Energy  =      -2.0988286864346435 [Eh]
	 SCS Correlation Energy    =      -2.2771425331336350 [Eh]
	 SCS Total Energy          =    -482.1446048620891247 [Eh]
	-----------------------------------------------------------

  Dipole Moment: [D]
     X:     1.1923      Y:    -1.0366      Z:    -0.4853     Total:     1.6528

*** Psi4 exiting successfully. Buy a developer a beer!
