                               Psi4 1.4a3.dev225

  ==> Input File <==

--------------------------------------------------------------------------
#psi4
#
memory 32 gb

molecule  {
0 1
  N        1.0430420     0.8835120     0.3262100
  C       -2.6935940    -0.1236090    -0.2650160
  C       -0.4170680    -1.0145740    -0.0079460
  C       -1.3683020    -0.3105490    -1.0112920
  C       -2.2166740     0.1783740     1.1559530
  C       -1.0996000    -0.8433070     1.3811970
  C       -3.6002280     0.9375310    -0.8724950
  C        0.9620280    -0.4146880    -0.0398380
  C        2.0893310    -1.1495780    -0.4236340
  C        3.3396130    -0.5322390    -0.4347340
  C        2.2533150     1.4653640     0.3147880
  C        3.4262710     0.8062240    -0.0568370
  H       -3.2284890    -1.0854330    -0.2500270
  H       -0.3333030    -2.0805640    -0.2540920
  H       -0.9618110     0.6780590    -1.2570810
  H       -1.4754410    -0.8694270    -1.9482280
  H       -3.0167220     0.1138590     1.9027270
  H       -1.8007770     1.1928100     1.1867420
  H       -0.3855780    -0.5294870     2.1482020
  H       -1.5277920    -1.8013410     1.6997400
  H       -3.8693871     0.7007063    -1.9071532
  H       -4.5228040     1.0497910    -0.2936460
  H       -3.0892320     1.9062640    -0.8879070
  H        1.9842510    -2.1936970    -0.7089060
  H        4.2276210    -1.0857940    -0.7310670
  H        2.2780980     2.5111560     0.6184940
  H        4.3773590     1.3311980    -0.0481150
units angstrom
no_reorient  #important for SAPT in psi4, default
symmetry c1  #important for SAPT in psi4, default
}

set PROPERTIES_ORIGIN ["COM"]
properties('MP2/aug-cc-pvtz', properties = ['dipole'])
--------------------------------------------------------------------------

    Molecular point group: c1
  Charge       = 0
  Multiplicity = 1
  Basis Set: AUG-CC-PVTZ
    Blend: AUG-CC-PVTZ
  Basis Set: (AUG-CC-PVTZ AUX)
    Blend: AUG-CC-PVTZ-JKFIT

    Orbital Energies [Eh]
    ---------------------

    Doubly Occupied:

       1A    -15.558016     2A    -11.275338     3A    -11.274362
       4A    -11.257951     5A    -11.235890     6A    -11.235117
       7A    -11.226152     8A    -11.214709     9A    -11.211438
      10A    -11.209725    11A    -11.205209    12A    -11.203792
      13A     -1.251879    14A     -1.127561    15A     -1.081866
      16A     -1.046469    17A     -0.991177    18A     -0.954814
      19A     -0.893816    20A     -0.855215    21A     -0.836768
      22A     -0.764416    23A     -0.755792    24A     -0.696801
      25A     -0.668107    26A     -0.640711    27A     -0.640005
      28A     -0.608070    29A     -0.584548    30A     -0.577611
      31A     -0.574092    32A     -0.552430    33A     -0.537972
      34A     -0.526803    35A     -0.511269    36A     -0.473204
      37A     -0.468984    38A     -0.461226    39A     -0.452731
      40A     -0.446927    41A     -0.439842    42A     -0.410010
      43A     -0.376996    44A     -0.332129

  @DF-RHF Final Energy:  -479.89658285292626

   => Energetics <=

    Nuclear Repulsion Energy =            685.8589416859417724
    One-Electron Energy =               -2010.2151692336806263
    Two-Electron Energy =                 844.4596446948125958
    Total Energy =                       -479.8965828529262581
  Basis Set: (AUG-CC-PVTZ AUX)
    Blend: AUG-CC-PVTZ-RI
    Molecular point group: c1

    Geometry (in Angstrom), charge = 0, multiplicity = 1:

       Center              X                  Y                   Z               Mass
    ------------   -----------------  -----------------  -----------------  -----------------
         N            0.973068734469     0.882294864931     0.321780625469    14.003074004430
         C           -2.763567265531    -0.124826135069    -0.269445374531    12.000000000000
         C           -0.487041265531    -1.015791135069    -0.012375374531    12.000000000000
         C           -1.438275265531    -0.311766135069    -1.015721374531    12.000000000000
         C           -2.286647265531     0.177156864931     1.151523625469    12.000000000000
         C           -1.169573265531    -0.844524135069     1.376767625469    12.000000000000
         C           -3.670201265531     0.936313864931    -0.876924374531    12.000000000000
         C            0.892054734469    -0.415905135069    -0.044267374531    12.000000000000
         C            2.019357734469    -1.150795135069    -0.428063374531    12.000000000000
         C            3.269639734469    -0.533456135069    -0.439163374531    12.000000000000
         C            2.183341734469     1.464146864931     0.310358625469    12.000000000000
         C            3.356297734469     0.805006864931    -0.061266374531    12.000000000000
         H           -3.298462265531    -1.086650135069    -0.254456374531     1.007825032230
         H           -0.403276265531    -2.081781135069    -0.258521374531     1.007825032230
         H           -1.031784265531     0.676841864931    -1.261510374531     1.007825032230
         H           -1.545414265531    -0.870644135069    -1.952657374531     1.007825032230
         H           -3.086695265531     0.112641864931     1.898297625469     1.007825032230
         H           -1.870750265531     1.191592864931     1.182312625469     1.007825032230
         H           -0.455551265531    -0.530704135069     2.143772625469     1.007825032230
         H           -1.597765265531    -1.802558135069     1.695310625469     1.007825032230
         H           -3.939360365531     0.699489164931    -1.911582574531     1.007825032230
         H           -4.592777265531     1.048573864931    -0.298075374531     1.007825032230
         H           -3.159205265531     1.905046864931    -0.892336374531     1.007825032230
         H            1.914277734469    -2.194914135069    -0.713335374531     1.007825032230
         H            4.157647734469    -1.087011135069    -0.735496374531     1.007825032230
         H            2.208124734469     2.509938864931     0.614064625469     1.007825032230
         H            4.307385734469     1.329980864931    -0.052544374531     1.007825032230

  Basis Set: AUG-CC-PVTZ
    Blend: AUG-CC-PVTZ
  Basis Set: (AUG-CC-PVTZ AUX)
    Blend: AUG-CC-PVTZ-JKFIT
	 Reference Energy          =    -479.8965828529262581 [Eh]
	 Singles Energy            =      -0.0000000000000000 [Eh]
	 Same-Spin Energy          =      -0.5327882999941485 [Eh]
	 Opposite-Spin Energy      =      -1.7455392284880835 [Eh]
	 Correlation Energy        =      -2.2783275284822322 [Eh]
	 Total Energy              =    -482.1749103814084947 [Eh]

	 ================> DF-SCS-MP2 Energies <==================
	-----------------------------------------------------------
	 SCS Same-Spin Scale       =       0.3333333333333333 [-]
	 SCS Opposite-Spin Scale   =       1.2000000000000000 [-]
	 SCS Same-Spin Energy      =      -0.1775960999980495 [Eh]
	 SCS Opposite-Spin Energy  =      -2.0946470741857000 [Eh]
	 SCS Correlation Energy    =      -2.2722431741837492 [Eh]
	 SCS Total Energy          =    -482.1688260271100148 [Eh]
	-----------------------------------------------------------

  Dipole Moment: [D]
     X:     1.3349      Y:    -1.0672      Z:    -0.4965     Total:     1.7797

*** Psi4 exiting successfully. Buy a developer a beer!
