                               Psi4 1.4a3.dev225

  ==> Input File <==

--------------------------------------------------------------------------
#psi4
#
memory 32 gb

molecule  {
0 1
  N        1.0430420     0.8835120     0.3262100
  C       -2.6935940    -0.1236090    -0.2650160
  C       -0.4170680    -1.0145740    -0.0079460
  C       -1.4559301    -0.3377284    -1.1428624
  C       -2.2166740     0.1783740     1.1559530
  C       -1.0996000    -0.8433070     1.3811970
  C       -3.6002280     0.9375310    -0.8724950
  C        0.9620280    -0.4146880    -0.0398380
  C        2.0893310    -1.1495780    -0.4236340
  C        3.3396130    -0.5322390    -0.4347340
  C        2.2533150     1.4653640     0.3147880
  C        3.4262710     0.8062240    -0.0568370
  H       -3.2284890    -1.0854330    -0.2500270
  H       -0.3333030    -2.0805640    -0.2540920
  H       -0.9618110     0.6780590    -1.2570810
  H       -1.4754410    -0.8694270    -1.9482280
  H       -3.0167220     0.1138590     1.9027270
  H       -1.8007770     1.1928100     1.1867420
  H       -0.3855780    -0.5294870     2.1482020
  H       -1.5277920    -1.8013410     1.6997400
  H       -3.8772320     0.6843320    -1.9011880
  H       -4.5228040     1.0497910    -0.2936460
  H       -3.0892320     1.9062640    -0.8879070
  H        1.9842510    -2.1936970    -0.7089060
  H        4.2276210    -1.0857940    -0.7310670
  H        2.2780980     2.5111560     0.6184940
  H        4.3773590     1.3311980    -0.0481150
units angstrom
no_reorient  #important for SAPT in psi4, default
symmetry c1  #important for SAPT in psi4, default
}

set PROPERTIES_ORIGIN ["COM"]
properties('MP2/aug-cc-pvtz', properties = ['dipole'])
--------------------------------------------------------------------------

    Molecular point group: c1
  Charge       = 0
  Multiplicity = 1
  Basis Set: AUG-CC-PVTZ
    Blend: AUG-CC-PVTZ
  Basis Set: (AUG-CC-PVTZ AUX)
    Blend: AUG-CC-PVTZ-JKFIT

    Orbital Energies [Eh]
    ---------------------

    Doubly Occupied:

       1A    -15.557128     2A    -11.274737     3A    -11.273596
       4A    -11.257260     5A    -11.235113     6A    -11.234294
       7A    -11.229737     8A    -11.217092     9A    -11.212169
      10A    -11.210581    11A    -11.206106    12A    -11.203740
      13A     -1.250516    14A     -1.118387    15A     -1.081101
      16A     -1.045068    17A     -0.991382    18A     -0.952537
      19A     -0.895207    20A     -0.854218    21A     -0.836928
      22A     -0.767586    23A     -0.758272    24A     -0.694222
      25A     -0.672356    26A     -0.646340    27A     -0.637067
      28A     -0.604743    29A     -0.583522    30A     -0.574667
      31A     -0.572981    32A     -0.557517    33A     -0.538163
      34A     -0.528775    35A     -0.510989    36A     -0.489746
      37A     -0.468862    38A     -0.455658    39A     -0.450553
      40A     -0.441066    41A     -0.427295    42A     -0.406270
      43A     -0.376326    44A     -0.328661

  @DF-RHF Final Energy:  -479.86977615578439

   => Energetics <=

    Nuclear Repulsion Energy =            683.3517418301582893
    One-Electron Energy =               -2005.1859727771993676
    Two-Electron Energy =                 841.9644547912566850
    Total Energy =                       -479.8697761557843933
  Basis Set: (AUG-CC-PVTZ AUX)
    Blend: AUG-CC-PVTZ-RI
    Molecular point group: c1

    Geometry (in Angstrom), charge = 0, multiplicity = 1:

       Center              X                  Y                   Z               Mass
    ------------   -----------------  -----------------  -----------------  -----------------
         N            0.979644209462     0.884421567224     0.331542470891    14.003074004430
         C           -2.756991790538    -0.122699432776    -0.259683529109    12.000000000000
         C           -0.480465790538    -1.013664432776    -0.002613529109    12.000000000000
         C           -1.519327890538    -0.336818832776    -1.137529929109    12.000000000000
         C           -2.280071790538     0.179283567224     1.161285470891    12.000000000000
         C           -1.162997790538    -0.842397432776     1.386529470891    12.000000000000
         C           -3.663625790538     0.938440567224    -0.867162529109    12.000000000000
         C            0.898630209462    -0.413778432776    -0.034505529109    12.000000000000
         C            2.025933209462    -1.148668432776    -0.418301529109    12.000000000000
         C            3.276215209462    -0.531329432776    -0.429401529109    12.000000000000
         C            2.189917209462     1.466273567224     0.320120470891    12.000000000000
         C            3.362873209462     0.807133567224    -0.051504529109    12.000000000000
         H           -3.291886790538    -1.084523432776    -0.244694529109     1.007825032230
         H           -0.396700790538    -2.079654432776    -0.248759529109     1.007825032230
         H           -1.025208790538     0.678968567224    -1.251748529109     1.007825032230
         H           -1.538838790538    -0.868517432776    -1.942895529109     1.007825032230
         H           -3.080119790538     0.114768567224     1.908059470891     1.007825032230
         H           -1.864174790538     1.193719567224     1.192074470891     1.007825032230
         H           -0.448975790538    -0.528577432776     2.153534470891     1.007825032230
         H           -1.591189790538    -1.800431432776     1.705072470891     1.007825032230
         H           -3.940629790538     0.685241567224    -1.895855529109     1.007825032230
         H           -4.586201790538     1.050700567224    -0.288313529109     1.007825032230
         H           -3.152629790538     1.907173567224    -0.882574529109     1.007825032230
         H            1.920853209462    -2.192787432776    -0.703573529109     1.007825032230
         H            4.164223209462    -1.084884432776    -0.725734529109     1.007825032230
         H            2.214700209462     2.512065567224     0.623826470891     1.007825032230
         H            4.313961209462     1.332107567224    -0.042782529109     1.007825032230

  Basis Set: AUG-CC-PVTZ
    Blend: AUG-CC-PVTZ
  Basis Set: (AUG-CC-PVTZ AUX)
    Blend: AUG-CC-PVTZ-JKFIT
	 Reference Energy          =    -479.8697761557843933 [Eh]
	 Singles Energy            =      -0.0000000000000000 [Eh]
	 Same-Spin Energy          =      -0.5328502828597970 [Eh]
	 Opposite-Spin Energy      =      -1.7467075967526819 [Eh]
	 Correlation Energy        =      -2.2795578796124789 [Eh]
	 Total Energy              =    -482.1493340353968620 [Eh]

	 ================> DF-SCS-MP2 Energies <==================
	-----------------------------------------------------------
	 SCS Same-Spin Scale       =       0.3333333333333333 [-]
	 SCS Opposite-Spin Scale   =       1.2000000000000000 [-]
	 SCS Same-Spin Energy      =      -0.1776167609532656 [Eh]
	 SCS Opposite-Spin Energy  =      -2.0960491161032184 [Eh]
	 SCS Correlation Energy    =      -2.2736658770564842 [Eh]
	 SCS Total Energy          =    -482.1434420328408805 [Eh]
	-----------------------------------------------------------

  Dipole Moment: [D]
     X:     1.2890      Y:    -1.1393      Z:    -0.4981     Total:     1.7909

*** Psi4 exiting successfully. Buy a developer a beer!
