                               Psi4 1.4a3.dev225

  ==> Input File <==

--------------------------------------------------------------------------
#psi4
#
memory 32 gb

molecule  {
0 1
  N        1.0430420     0.8835120     0.3262100
  C       -2.6935940    -0.1236090    -0.2650160
  C       -0.4170680    -1.0145740    -0.0079460
  C       -1.3600173    -0.2639441    -0.9849833
  C       -2.2166740     0.1783740     1.1559530
  C       -1.0996000    -0.8433070     1.3811970
  C       -3.6002280     0.9375310    -0.8724950
  C        0.9620280    -0.4146880    -0.0398380
  C        2.0893310    -1.1495780    -0.4236340
  C        3.3396130    -0.5322390    -0.4347340
  C        2.2533150     1.4653640     0.3147880
  C        3.4262710     0.8062240    -0.0568370
  H       -3.2284890    -1.0854330    -0.2500270
  H       -0.3333030    -2.0805640    -0.2540920
  H       -0.9618110     0.6780590    -1.2570810
  H       -1.4754410    -0.8694270    -1.9482280
  H       -3.0167220     0.1138590     1.9027270
  H       -1.8007770     1.1928100     1.1867420
  H       -0.3855780    -0.5294870     2.1482020
  H       -1.5277920    -1.8013410     1.6997400
  H       -3.8772320     0.6843320    -1.9011880
  H       -4.5228040     1.0497910    -0.2936460
  H       -3.0892320     1.9062640    -0.8879070
  H        1.9842510    -2.1936970    -0.7089060
  H        4.2276210    -1.0857940    -0.7310670
  H        2.2780980     2.5111560     0.6184940
  H        4.3773590     1.3311980    -0.0481150
units angstrom
no_reorient  #important for SAPT in psi4, default
symmetry c1  #important for SAPT in psi4, default
}

set PROPERTIES_ORIGIN ["COM"]
properties('MP2/aug-cc-pvtz', properties = ['dipole'])
--------------------------------------------------------------------------

    Molecular point group: c1
  Charge       = 0
  Multiplicity = 1
  Basis Set: AUG-CC-PVTZ
    Blend: AUG-CC-PVTZ
  Basis Set: (AUG-CC-PVTZ AUX)
    Blend: AUG-CC-PVTZ-JKFIT

    Orbital Energies [Eh]
    ---------------------

    Doubly Occupied:

       1A    -15.558092     2A    -11.275357     3A    -11.274544
       4A    -11.258066     5A    -11.235919     6A    -11.235122
       7A    -11.226301     8A    -11.214293     9A    -11.211170
      10A    -11.210314    11A    -11.205387    12A    -11.203544
      13A     -1.252130    14A     -1.129541    15A     -1.081977
      16A     -1.047072    17A     -0.991722    18A     -0.953948
      19A     -0.894411    20A     -0.855420    21A     -0.836570
      22A     -0.764103    23A     -0.758403    24A     -0.696831
      25A     -0.666719    26A     -0.641001    27A     -0.638881
      28A     -0.608632    29A     -0.586464    30A     -0.579607
      31A     -0.574229    32A     -0.550961    33A     -0.537760
      34A     -0.528345    35A     -0.513187    36A     -0.471707
      37A     -0.464518    38A     -0.460503    39A     -0.456901
      40A     -0.451351    41A     -0.436203    42A     -0.410120
      43A     -0.377144    44A     -0.331946

  @DF-RHF Final Energy:  -479.89320547425518

   => Energetics <=

    Nuclear Repulsion Energy =            686.3652196631433071
    One-Electron Energy =               -2011.2040149671493054
    Two-Electron Energy =                 844.9455898297508156
    Total Energy =                       -479.8932054742551827
  Basis Set: (AUG-CC-PVTZ AUX)
    Blend: AUG-CC-PVTZ-RI
    Molecular point group: c1

    Geometry (in Angstrom), charge = 0, multiplicity = 1:

       Center              X                  Y                   Z               Mass
    ------------   -----------------  -----------------  -----------------  -----------------
         N            0.972500773582     0.878926227540     0.319783881549    14.003074004430
         C           -2.764135226418    -0.128194772460    -0.271442118451    12.000000000000
         C           -0.487609226418    -1.019159772460    -0.014372118451    12.000000000000
         C           -1.430558526418    -0.268529872460    -0.991409418451    12.000000000000
         C           -2.287215226418     0.173788227540     1.149526881549    12.000000000000
         C           -1.170141226418    -0.847892772460     1.374770881549    12.000000000000
         C           -3.670769226418     0.932945227540    -0.878921118451    12.000000000000
         C            0.891486773582    -0.419273772460    -0.046264118451    12.000000000000
         C            2.018789773582    -1.154163772460    -0.430060118451    12.000000000000
         C            3.269071773582    -0.536824772460    -0.441160118451    12.000000000000
         C            2.182773773582     1.460778227540     0.308361881549    12.000000000000
         C            3.355729773582     0.801638227540    -0.063263118451    12.000000000000
         H           -3.299030226418    -1.090018772460    -0.256453118451     1.007825032230
         H           -0.403844226418    -2.085149772460    -0.260518118451     1.007825032230
         H           -1.032352226418     0.673473227540    -1.263507118451     1.007825032230
         H           -1.545982226418    -0.874012772460    -1.954654118451     1.007825032230
         H           -3.087263226418     0.109273227540     1.896300881549     1.007825032230
         H           -1.871318226418     1.188224227540     1.180315881549     1.007825032230
         H           -0.456119226418    -0.534072772460     2.141775881549     1.007825032230
         H           -1.598333226418    -1.805926772460     1.693313881549     1.007825032230
         H           -3.947773226418     0.679746227540    -1.907614118451     1.007825032230
         H           -4.593345226418     1.045205227540    -0.300072118451     1.007825032230
         H           -3.159773226418     1.901678227540    -0.894333118451     1.007825032230
         H            1.913709773582    -2.198282772460    -0.715332118451     1.007825032230
         H            4.157079773582    -1.090379772460    -0.737493118451     1.007825032230
         H            2.207556773582     2.506570227540     0.612067881549     1.007825032230
         H            4.306817773582     1.326612227540    -0.054541118451     1.007825032230

  Basis Set: AUG-CC-PVTZ
    Blend: AUG-CC-PVTZ
  Basis Set: (AUG-CC-PVTZ AUX)
    Blend: AUG-CC-PVTZ-JKFIT
	 Reference Energy          =    -479.8932054742551827 [Eh]
	 Singles Energy            =      -0.0000000000000000 [Eh]
	 Same-Spin Energy          =      -0.5329168483943908 [Eh]
	 Opposite-Spin Energy      =      -1.7457273102197135 [Eh]
	 Correlation Energy        =      -2.2786441586141044 [Eh]
	 Total Energy              =    -482.1718496328692822 [Eh]

	 ================> DF-SCS-MP2 Energies <==================
	-----------------------------------------------------------
	 SCS Same-Spin Scale       =       0.3333333333333333 [-]
	 SCS Opposite-Spin Scale   =       1.2000000000000000 [-]
	 SCS Same-Spin Energy      =      -0.1776389494647969 [Eh]
	 SCS Opposite-Spin Energy  =      -2.0948727722636562 [Eh]
	 SCS Correlation Energy    =      -2.2725117217284532 [Eh]
	 SCS Total Energy          =    -482.1657171959836319 [Eh]
	-----------------------------------------------------------

  Dipole Moment: [D]
     X:     1.3319      Y:    -1.0457      Z:    -0.4738     Total:     1.7584

*** Psi4 exiting successfully. Buy a developer a beer!
