                               Psi4 1.4a3.dev225

  ==> Input File <==

--------------------------------------------------------------------------
#psi4
#
memory 32 gb

molecule  {
0 1
  N        1.0430420     0.8835120     0.3262100
  C       -2.6935940    -0.1236090    -0.2650160
  C       -0.4170680    -1.0145740    -0.0079460
  C       -1.3643039    -0.2871358    -0.9982885
  C       -2.2166740     0.1783740     1.1559530
  C       -1.0996000    -0.8433070     1.3811970
  C       -3.6002280     0.9375310    -0.8724950
  C        0.9620280    -0.4146880    -0.0398380
  C        2.0893310    -1.1495780    -0.4236340
  C        3.3396130    -0.5322390    -0.4347340
  C        2.2533150     1.4653640     0.3147880
  C        3.4262710     0.8062240    -0.0568370
  H       -3.2284890    -1.0854330    -0.2500270
  H       -0.3333030    -2.0805640    -0.2540920
  H       -0.9618110     0.6780590    -1.2570810
  H       -1.4754410    -0.8694270    -1.9482280
  H       -3.0167220     0.1138590     1.9027270
  H       -1.8007770     1.1928100     1.1867420
  H       -0.3855780    -0.5294870     2.1482020
  H       -1.5277920    -1.8013410     1.6997400
  H       -3.8772320     0.6843320    -1.9011880
  H       -4.5228040     1.0497910    -0.2936460
  H       -3.0892320     1.9062640    -0.8879070
  H        1.9842510    -2.1936970    -0.7089060
  H        4.2276210    -1.0857940    -0.7310670
  H        2.2780980     2.5111560     0.6184940
  H        4.3773590     1.3311980    -0.0481150
units angstrom
no_reorient  #important for SAPT in psi4, default
symmetry c1  #important for SAPT in psi4, default
}

set PROPERTIES_ORIGIN ["COM"]
properties('MP2/aug-cc-pvtz', properties = ['dipole'])
--------------------------------------------------------------------------

    Molecular point group: c1
  Charge       = 0
  Multiplicity = 1
  Basis Set: AUG-CC-PVTZ
    Blend: AUG-CC-PVTZ
  Basis Set: (AUG-CC-PVTZ AUX)
    Blend: AUG-CC-PVTZ-JKFIT

    Orbital Energies [Eh]
    ---------------------

    Doubly Occupied:

       1A    -15.558045     2A    -11.275336     3A    -11.274446
       4A    -11.258002     5A    -11.235898     6A    -11.235112
       7A    -11.226165     8A    -11.214379     9A    -11.211259
      10A    -11.209916    11A    -11.205305    12A    -11.203602
      13A     -1.251994    14A     -1.128518    15A     -1.081914
      16A     -1.046765    17A     -0.991459    18A     -0.954313
      19A     -0.894057    20A     -0.855306    21A     -0.836638
      22A     -0.764220    23A     -0.756837    24A     -0.696812
      25A     -0.667328    26A     -0.640756    27A     -0.639512
      28A     -0.608239    29A     -0.585697    30A     -0.578562
      31A     -0.574161    32A     -0.551359    33A     -0.537887
      34A     -0.527699    35A     -0.512513    36A     -0.471580
      37A     -0.466315    38A     -0.461400    39A     -0.455037
      40A     -0.449601    41A     -0.438172    42A     -0.410064
      43A     -0.377071    44A     -0.332034

  @DF-RHF Final Energy:  -479.89572761106291

   => Energetics <=

    Nuclear Repulsion Energy =            686.1149911007871651
    One-Electron Energy =               -2010.7188681540496873
    Two-Electron Energy =                 844.7081494421995558
    Total Energy =                       -479.8957276110629664
  Basis Set: (AUG-CC-PVTZ AUX)
    Blend: AUG-CC-PVTZ-RI
    Molecular point group: c1

    Geometry (in Angstrom), charge = 0, multiplicity = 1:

       Center              X                  Y                   Z               Mass
    ------------   -----------------  -----------------  -----------------  -----------------
         N            0.972820032870     0.880653509216     0.320774832111    14.003074004430
         C           -2.763815967130    -0.126467490784    -0.270451167889    12.000000000000
         C           -0.487289967130    -1.017432490784    -0.013381167889    12.000000000000
         C           -1.434525867130    -0.289994290784    -1.003723667889    12.000000000000
         C           -2.286895967130     0.175515509216     1.150517832111    12.000000000000
         C           -1.169821967130    -0.846165490784     1.375761832111    12.000000000000
         C           -3.670449967130     0.934672509216    -0.877930167889    12.000000000000
         C            0.891806032870    -0.417546490784    -0.045273167889    12.000000000000
         C            2.019109032870    -1.152436490784    -0.429069167889    12.000000000000
         C            3.269391032870    -0.535097490784    -0.440169167889    12.000000000000
         C            2.183093032870     1.462505509216     0.309352832111    12.000000000000
         C            3.356049032870     0.803365509216    -0.062272167889    12.000000000000
         H           -3.298710967130    -1.088291490784    -0.255462167889     1.007825032230
         H           -0.403524967130    -2.083422490784    -0.259527167889     1.007825032230
         H           -1.032032967130     0.675200509216    -1.262516167889     1.007825032230
         H           -1.545662967130    -0.872285490784    -1.953663167889     1.007825032230
         H           -3.086943967130     0.111000509216     1.897291832111     1.007825032230
         H           -1.870998967130     1.189951509216     1.181306832111     1.007825032230
         H           -0.455799967130    -0.532345490784     2.142766832111     1.007825032230
         H           -1.598013967130    -1.804199490784     1.694304832111     1.007825032230
         H           -3.947453967130     0.681473509216    -1.906623167889     1.007825032230
         H           -4.593025967130     1.046932509216    -0.299081167889     1.007825032230
         H           -3.159453967130     1.903405509216    -0.893342167889     1.007825032230
         H            1.914029032870    -2.196555490784    -0.714341167889     1.007825032230
         H            4.157399032870    -1.088652490784    -0.736502167889     1.007825032230
         H            2.207876032870     2.508297509216     0.613058832111     1.007825032230
         H            4.307137032870     1.328339509216    -0.053550167889     1.007825032230

  Basis Set: AUG-CC-PVTZ
    Blend: AUG-CC-PVTZ
  Basis Set: (AUG-CC-PVTZ AUX)
    Blend: AUG-CC-PVTZ-JKFIT
	 Reference Energy          =    -479.8957276110629095 [Eh]
	 Singles Energy            =      -0.0000000000000000 [Eh]
	 Same-Spin Energy          =      -0.5328368944571416 [Eh]
	 Opposite-Spin Energy      =      -1.7455941884170336 [Eh]
	 Correlation Energy        =      -2.2784310828741754 [Eh]
	 Total Energy              =    -482.1741586939371018 [Eh]

	 ================> DF-SCS-MP2 Energies <==================
	-----------------------------------------------------------
	 SCS Same-Spin Scale       =       0.3333333333333333 [-]
	 SCS Opposite-Spin Scale   =       1.2000000000000000 [-]
	 SCS Same-Spin Energy      =      -0.1776122981523805 [Eh]
	 SCS Opposite-Spin Energy  =      -2.0947130261004401 [Eh]
	 SCS Correlation Energy    =      -2.2723253242528205 [Eh]
	 SCS Total Energy          =    -482.1680529353157567 [Eh]
	-----------------------------------------------------------

  Dipole Moment: [D]
     X:     1.3315      Y:    -1.0581      Z:    -0.4861     Total:     1.7688

*** Psi4 exiting successfully. Buy a developer a beer!
