                               Psi4 1.4a3.dev225

  ==> Input File <==

--------------------------------------------------------------------------
#psi4
#
memory 32 gb

molecule  {
0 1
  N        1.0430420     0.8835120     0.3262100
  C       -2.6935940    -0.1236090    -0.2650160
  C       -0.4170680    -1.0145740    -0.0079460
  C       -1.3683020    -0.3105490    -1.0112920
  C       -2.2166740     0.1783740     1.1559530
  C       -1.0996000    -0.8433070     1.3811970
  C       -3.6002280     0.9375310    -0.8724950
  C        0.9620280    -0.4146880    -0.0398380
  C        2.0893310    -1.1495780    -0.4236340
  C        3.3396130    -0.5322390    -0.4347340
  C        2.2533150     1.4653640     0.3147880
  C        3.4262710     0.8062240    -0.0568370
  H       -3.2284890    -1.0854330    -0.2500270
  H       -0.3333030    -2.0805640    -0.2540920
  H       -0.9618110     0.6780590    -1.2570810
  H       -1.4754410    -0.8694270    -1.9482280
  H       -3.0167220     0.1138590     1.9027270
  H       -1.8007770     1.1928100     1.1867420
  H       -0.3855780    -0.5294870     2.1482020
  H       -1.5277920    -1.8013410     1.6997400
  H       -3.9224474     0.5878789    -1.8588866
  H       -4.5228040     1.0497910    -0.2936460
  H       -3.0892320     1.9062640    -0.8879070
  H        1.9842510    -2.1936970    -0.7089060
  H        4.2276210    -1.0857940    -0.7310670
  H        2.2780980     2.5111560     0.6184940
  H        4.3773590     1.3311980    -0.0481150
units angstrom
no_reorient  #important for SAPT in psi4, default
symmetry c1  #important for SAPT in psi4, default
}

set PROPERTIES_ORIGIN ["COM"]
properties('MP2/aug-cc-pvtz', properties = ['dipole'])
--------------------------------------------------------------------------

    Molecular point group: c1
  Charge       = 0
  Multiplicity = 1
  Basis Set: AUG-CC-PVTZ
    Blend: AUG-CC-PVTZ
  Basis Set: (AUG-CC-PVTZ AUX)
    Blend: AUG-CC-PVTZ-JKFIT

    Orbital Energies [Eh]
    ---------------------

    Doubly Occupied:

       1A    -15.557980     2A    -11.275294     3A    -11.274329
       4A    -11.257911     5A    -11.235850     6A    -11.235071
       7A    -11.226062     8A    -11.214002     9A    -11.211116
      10A    -11.209631    11A    -11.205469    12A    -11.203161
      13A     -1.251836    14A     -1.127463    15A     -1.081826
      16A     -1.046553    17A     -0.991571    18A     -0.954627
      19A     -0.893688    20A     -0.855145    21A     -0.836538
      22A     -0.764314    23A     -0.754641    24A     -0.696716
      25A     -0.668102    26A     -0.640834    27A     -0.640333
      28A     -0.607494    29A     -0.588005    30A     -0.576958
      31A     -0.573789    32A     -0.548032    33A     -0.538611
      34A     -0.528840    35A     -0.514286    36A     -0.473011
      37A     -0.468782    38A     -0.459999    39A     -0.452583
      40A     -0.447656    41A     -0.436949    42A     -0.409974
      43A     -0.376956    44A     -0.332080

  @DF-RHF Final Energy:  -479.89531417795888

   => Energetics <=

    Nuclear Repulsion Energy =            685.9015509037450329
    One-Electron Energy =               -2010.3055941319400972
    Two-Electron Energy =                 844.5087290502360702
    Total Energy =                       -479.8953141779588805
  Basis Set: (AUG-CC-PVTZ AUX)
    Blend: AUG-CC-PVTZ-RI
    Molecular point group: c1

    Geometry (in Angstrom), charge = 0, multiplicity = 1:

       Center              X                  Y                   Z               Mass
    ------------   -----------------  -----------------  -----------------  -----------------
         N            0.973400632119     0.883000611957     0.321478712907    14.003074004430
         C           -2.763235367881    -0.124120388043    -0.269747287093    12.000000000000
         C           -0.486709367881    -1.015085388043    -0.012677287093    12.000000000000
         C           -1.437943367881    -0.311060388043    -1.016023287093    12.000000000000
         C           -2.286315367881     0.177862611957     1.151221712907    12.000000000000
         C           -1.169241367881    -0.843818388043     1.376465712907    12.000000000000
         C           -3.669869367881     0.937019611957    -0.877226287093    12.000000000000
         C            0.892386632119    -0.415199388043    -0.044569287093    12.000000000000
         C            2.019689632119    -1.150089388043    -0.428365287093    12.000000000000
         C            3.269971632119    -0.532750388043    -0.439465287093    12.000000000000
         C            2.183673632119     1.464852611957     0.310056712907    12.000000000000
         C            3.356629632119     0.805712611957    -0.061568287093    12.000000000000
         H           -3.298130367881    -1.085944388043    -0.254758287093     1.007825032230
         H           -0.402944367881    -2.081075388043    -0.258823287093     1.007825032230
         H           -1.031452367881     0.677547611957    -1.261812287093     1.007825032230
         H           -1.545082367881    -0.869938388043    -1.952959287093     1.007825032230
         H           -3.086363367881     0.113347611957     1.897995712907     1.007825032230
         H           -1.870418367881     1.192298611957     1.182010712907     1.007825032230
         H           -0.455219367881    -0.529998388043     2.143470712907     1.007825032230
         H           -1.597433367881    -1.801852388043     1.695008712907     1.007825032230
         H           -3.992088767881     0.587367511957    -1.863617887093     1.007825032230
         H           -4.592445367881     1.049279611957    -0.298377287093     1.007825032230
         H           -3.158873367881     1.905752611957    -0.892638287093     1.007825032230
         H            1.914609632119    -2.194208388043    -0.713637287093     1.007825032230
         H            4.157979632119    -1.086305388043    -0.735798287093     1.007825032230
         H            2.208456632119     2.510644611957     0.613762712907     1.007825032230
         H            4.307717632119     1.330686611957    -0.052846287093     1.007825032230

  Basis Set: AUG-CC-PVTZ
    Blend: AUG-CC-PVTZ
  Basis Set: (AUG-CC-PVTZ AUX)
    Blend: AUG-CC-PVTZ-JKFIT
	 Reference Energy          =    -479.8953141779588805 [Eh]
	 Singles Energy            =      -0.0000000000000000 [Eh]
	 Same-Spin Energy          =      -0.5328535955420608 [Eh]
	 Opposite-Spin Energy      =      -1.7456853414096498 [Eh]
	 Correlation Energy        =      -2.2785389369517106 [Eh]
	 Total Energy              =    -482.1738531149105711 [Eh]

	 ================> DF-SCS-MP2 Energies <==================
	-----------------------------------------------------------
	 SCS Same-Spin Scale       =       0.3333333333333333 [-]
	 SCS Opposite-Spin Scale   =       1.2000000000000000 [-]
	 SCS Same-Spin Energy      =      -0.1776178651806869 [Eh]
	 SCS Opposite-Spin Energy  =      -2.0948224096915795 [Eh]
	 SCS Correlation Energy    =      -2.2724402748722663 [Eh]
	 SCS Total Energy          =    -482.1677544528311614 [Eh]
	-----------------------------------------------------------

  Dipole Moment: [D]
     X:     1.3083      Y:    -1.0881      Z:    -0.4833     Total:     1.7690

*** Psi4 exiting successfully. Buy a developer a beer!
