                               Psi4 1.4a3.dev225

  ==> Input File <==

--------------------------------------------------------------------------
#psi4
#
memory 32 gb

molecule  {
0 1
  N        1.0430420     0.8835120     0.3262100
  C       -2.6935940    -0.1236090    -0.2650160
  C       -0.4170680    -1.0145740    -0.0079460
  C       -1.3683020    -0.3105490    -1.0112920
  C       -2.2166740     0.1783740     1.1559530
  C       -1.0996000    -0.8433070     1.3811970
  C       -3.6002280     0.9375310    -0.8724950
  C        0.9620280    -0.4146880    -0.0398380
  C        2.0893310    -1.1495780    -0.4236340
  C        3.3396130    -0.5322390    -0.4347340
  C        2.2533150     1.4653640     0.3147880
  C        3.4262710     0.8062240    -0.0568370
  H       -3.2284890    -1.0854330    -0.2500270
  H       -0.3333030    -2.0805640    -0.2540920
  H       -0.9618110     0.6780590    -1.2570810
  H       -1.4754410    -0.8694270    -1.9482280
  H       -3.0167220     0.1138590     1.9027270
  H       -1.8007770     1.1928100     1.1867420
  H       -0.3855780    -0.5294870     2.1482020
  H       -1.5277920    -1.8013410     1.6997400
  H       -3.8772320     0.6843320    -1.9011880
  H       -4.5228040     1.0497910    -0.2936460
  H       -3.0892320     1.9062640    -0.8879070
  H        1.9794196    -2.2417035    -0.7220222
  H        4.2276210    -1.0857940    -0.7310670
  H        2.2780980     2.5111560     0.6184940
  H        4.3773590     1.3311980    -0.0481150
units angstrom
no_reorient  #important for SAPT in psi4, default
symmetry c1  #important for SAPT in psi4, default
}

set PROPERTIES_ORIGIN ["COM"]
properties('MP2/aug-cc-pvtz', properties = ['dipole'])
--------------------------------------------------------------------------

    Molecular point group: c1
  Charge       = 0
  Multiplicity = 1
  Basis Set: AUG-CC-PVTZ
    Blend: AUG-CC-PVTZ
  Basis Set: (AUG-CC-PVTZ AUX)
    Blend: AUG-CC-PVTZ-JKFIT

    Orbital Energies [Eh]
    ---------------------

    Doubly Occupied:

       1A    -15.558490     2A    -11.275855     3A    -11.274624
       4A    -11.258482     5A    -11.240842     6A    -11.236285
       7A    -11.226064     8A    -11.214588     9A    -11.211369
      10A    -11.209682    11A    -11.205240    12A    -11.203706
      13A     -1.252233    14A     -1.127550    15A     -1.081579
      16A     -1.045985    17A     -0.990957    18A     -0.954638
      19A     -0.893750    20A     -0.853534    21A     -0.836351
      22A     -0.764465    23A     -0.755596    24A     -0.694964
      25A     -0.668027    26A     -0.640228    27A     -0.636130
      28A     -0.606433    29A     -0.584742    30A     -0.576921
      31A     -0.573658    32A     -0.551692    33A     -0.537664
      34A     -0.526118    35A     -0.511461    36A     -0.472915
      37A     -0.468819    38A     -0.460974    39A     -0.452710
      40A     -0.447008    41A     -0.439490    42A     -0.410160
      43A     -0.377353    44A     -0.332415

  @DF-RHF Final Energy:  -479.89409993390478

   => Energetics <=

    Nuclear Repulsion Energy =            685.6107831282351981
    One-Electron Energy =               -2009.7262719917362119
    Two-Electron Energy =                 844.2213889295961735
    Total Energy =                       -479.8940999339048403
  Basis Set: (AUG-CC-PVTZ AUX)
    Blend: AUG-CC-PVTZ-RI
    Molecular point group: c1

    Geometry (in Angstrom), charge = 0, multiplicity = 1:

       Center              X                  Y                   Z               Mass
    ------------   -----------------  -----------------  -----------------  -----------------
         N            0.973148026033     0.882697573476     0.321825355712    14.003074004430
         C           -2.763487973967    -0.124423426524    -0.269400644288    12.000000000000
         C           -0.486961973967    -1.015388426524    -0.012330644288    12.000000000000
         C           -1.438195973967    -0.311363426524    -1.015676644288    12.000000000000
         C           -2.286567973967     0.177559573476     1.151568355712    12.000000000000
         C           -1.169493973967    -0.844121426524     1.376812355712    12.000000000000
         C           -3.670121973967     0.936716573476    -0.876879644288    12.000000000000
         C            0.892134026033    -0.415502426524    -0.044222644288    12.000000000000
         C            2.019437026033    -1.150392426524    -0.428018644288    12.000000000000
         C            3.269719026033    -0.533053426524    -0.439118644288    12.000000000000
         C            2.183421026033     1.464549573476     0.310403355712    12.000000000000
         C            3.356377026033     0.805409573476    -0.061221644288    12.000000000000
         H           -3.298382973967    -1.086247426524    -0.254411644288     1.007825032230
         H           -0.403196973967    -2.081378426524    -0.258476644288     1.007825032230
         H           -1.031704973967     0.677244573476    -1.261465644288     1.007825032230
         H           -1.545334973967    -0.870241426524    -1.952612644288     1.007825032230
         H           -3.086615973967     0.113044573476     1.898342355712     1.007825032230
         H           -1.870670973967     1.191995573476     1.182357355712     1.007825032230
         H           -0.455471973967    -0.530301426524     2.143817355712     1.007825032230
         H           -1.597685973967    -1.802155426524     1.695355355712     1.007825032230
         H           -3.947125973967     0.683517573476    -1.905572644288     1.007825032230
         H           -4.592697973967     1.048976573476    -0.298030644288     1.007825032230
         H           -3.159125973967     1.905449573476    -0.892291644288     1.007825032230
         H            1.909525626033    -2.242517926524    -0.726406844288     1.007825032230
         H            4.157727026033    -1.086608426524    -0.735451644288     1.007825032230
         H            2.208204026033     2.510341573476     0.614109355712     1.007825032230
         H            4.307465026033     1.330383573476    -0.052499644288     1.007825032230

  Basis Set: AUG-CC-PVTZ
    Blend: AUG-CC-PVTZ
  Basis Set: (AUG-CC-PVTZ AUX)
    Blend: AUG-CC-PVTZ-JKFIT
	 Reference Energy          =    -479.8940999339047835 [Eh]
	 Singles Energy            =      -0.0000000000000000 [Eh]
	 Same-Spin Energy          =      -0.5329181824124692 [Eh]
	 Opposite-Spin Energy      =      -1.7460013603768314 [Eh]
	 Correlation Energy        =      -2.2789195427893008 [Eh]
	 Total Energy              =    -482.1730194766940940 [Eh]

	 ================> DF-SCS-MP2 Energies <==================
	-----------------------------------------------------------
	 SCS Same-Spin Scale       =       0.3333333333333333 [-]
	 SCS Opposite-Spin Scale   =       1.2000000000000000 [-]
	 SCS Same-Spin Energy      =      -0.1776393941374897 [Eh]
	 SCS Opposite-Spin Energy  =      -2.0952016324521976 [Eh]
	 SCS Correlation Energy    =      -2.2728410265896875 [Eh]
	 SCS Total Energy          =    -482.1669409604944576 [Eh]
	-----------------------------------------------------------

  Dipole Moment: [D]
     X:     1.3344      Y:    -1.0537      Z:    -0.4906     Total:     1.7696

*** Psi4 exiting successfully. Buy a developer a beer!
