                               Psi4 1.4a3.dev225

  ==> Input File <==

--------------------------------------------------------------------------
#psi4
#
memory 32 gb

molecule  {
0 1
  N        1.1821335     0.8738261     0.3024522
  C       -2.6935940    -0.1236090    -0.2650160
  C       -0.4170680    -1.0145740    -0.0079460
  C       -1.3683020    -0.3105490    -1.0112920
  C       -2.2166740     0.1783740     1.1559530
  C       -1.0996000    -0.8433070     1.3811970
  C       -3.6002280     0.9375310    -0.8724950
  C        0.9620280    -0.4146880    -0.0398380
  C        2.0893310    -1.1495780    -0.4236340
  C        3.3396130    -0.5322390    -0.4347340
  C        2.2533150     1.4653640     0.3147880
  C        3.4262710     0.8062240    -0.0568370
  H       -3.2284890    -1.0854330    -0.2500270
  H       -0.3333030    -2.0805640    -0.2540920
  H       -0.9618110     0.6780590    -1.2570810
  H       -1.4754410    -0.8694270    -1.9482280
  H       -3.0167220     0.1138590     1.9027270
  H       -1.8007770     1.1928100     1.1867420
  H       -0.3855780    -0.5294870     2.1482020
  H       -1.5277920    -1.8013410     1.6997400
  H       -3.8772320     0.6843320    -1.9011880
  H       -4.5228040     1.0497910    -0.2936460
  H       -3.0892320     1.9062640    -0.8879070
  H        1.9842510    -2.1936970    -0.7089060
  H        4.2276210    -1.0857940    -0.7310670
  H        2.2780980     2.5111560     0.6184940
  H        4.3773590     1.3311980    -0.0481150
units angstrom
no_reorient  #important for SAPT in psi4, default
symmetry c1  #important for SAPT in psi4, default
}

set PROPERTIES_ORIGIN ["COM"]
properties('MP2/aug-cc-pvtz', properties = ['dipole'])
--------------------------------------------------------------------------

    Molecular point group: c1
  Charge       = 0
  Multiplicity = 1
  Basis Set: AUG-CC-PVTZ
    Blend: AUG-CC-PVTZ
  Basis Set: (AUG-CC-PVTZ AUX)
    Blend: AUG-CC-PVTZ-JKFIT

    Orbital Energies [Eh]
    ---------------------

    Doubly Occupied:

       1A    -15.539519     2A    -11.275710     3A    -11.257933
       4A    -11.251163     5A    -11.232496     6A    -11.230396
       7A    -11.229975     8A    -11.216596     9A    -11.213704
      10A    -11.212078    11A    -11.206826    12A    -11.206240
      13A     -1.281191    14A     -1.131988    15A     -1.080405
      16A     -1.051669    17A     -0.992932    18A     -0.956609
      19A     -0.895566    20A     -0.852821    21A     -0.842935
      22A     -0.770695    23A     -0.757881    24A     -0.702474
      25A     -0.669533    26A     -0.645309    27A     -0.638776
      28A     -0.609542    29A     -0.588486    30A     -0.581559
      31A     -0.575248    32A     -0.554399    33A     -0.547887
      34A     -0.532023    35A     -0.516356    36A     -0.476334
      37A     -0.472080    38A     -0.462947    39A     -0.457202
      40A     -0.449281    41A     -0.441119    42A     -0.384425
      43A     -0.382883    44A     -0.327093

  @DF-RHF Final Energy:  -479.88448089801534

   => Energetics <=

    Nuclear Repulsion Energy =            687.2368744351625764
    One-Electron Energy =               -2012.8381372606556852
    Two-Electron Energy =                 845.7167819274776548
    Total Energy =                       -479.8844808980153402
  Basis Set: (AUG-CC-PVTZ AUX)
    Blend: AUG-CC-PVTZ-RI
    Molecular point group: c1

    Geometry (in Angstrom), charge = 0, multiplicity = 1:

       Center              X                  Y                   Z               Mass
    ------------   -----------------  -----------------  -----------------  -----------------
         N            1.100120780213     0.873553195191     0.300050317043    14.003074004430
         C           -2.775606719787    -0.123881904809    -0.267417882957    12.000000000000
         C           -0.499080719787    -1.014846904809    -0.010347882957    12.000000000000
         C           -1.450314719787    -0.310821904809    -1.013693882957    12.000000000000
         C           -2.298686719787     0.178101095191     1.153551117043    12.000000000000
         C           -1.181612719787    -0.843579904809     1.378795117043    12.000000000000
         C           -3.682240719787     0.937258095191    -0.874896882957    12.000000000000
         C            0.880015280213    -0.414960904809    -0.042239882957    12.000000000000
         C            2.007318280213    -1.149850904809    -0.426035882957    12.000000000000
         C            3.257600280213    -0.532511904809    -0.437135882957    12.000000000000
         C            2.171302280213     1.465091095191     0.312386117043    12.000000000000
         C            3.344258280213     0.805951095191    -0.059238882957    12.000000000000
         H           -3.310501719787    -1.085705904809    -0.252428882957     1.007825032230
         H           -0.415315719787    -2.080836904809    -0.256493882957     1.007825032230
         H           -1.043823719787     0.677786095191    -1.259482882957     1.007825032230
         H           -1.557453719787    -0.869699904809    -1.950629882957     1.007825032230
         H           -3.098734719787     0.113586095191     1.900325117043     1.007825032230
         H           -1.882789719787     1.192537095191     1.184340117043     1.007825032230
         H           -0.467590719787    -0.529759904809     2.145800117043     1.007825032230
         H           -1.609804719787    -1.801613904809     1.697338117043     1.007825032230
         H           -3.959244719787     0.684059095191    -1.903589882957     1.007825032230
         H           -4.604816719787     1.049518095191    -0.296047882957     1.007825032230
         H           -3.171244719787     1.905991095191    -0.890308882957     1.007825032230
         H            1.902238280213    -2.193969904809    -0.711307882957     1.007825032230
         H            4.145608280213    -1.086066904809    -0.733468882957     1.007825032230
         H            2.196085280213     2.510883095191     0.616092117043     1.007825032230
         H            4.295346280213     1.330925095191    -0.050516882957     1.007825032230

  Basis Set: AUG-CC-PVTZ
    Blend: AUG-CC-PVTZ
  Basis Set: (AUG-CC-PVTZ AUX)
    Blend: AUG-CC-PVTZ-JKFIT
	 Reference Energy          =    -479.8844808980153402 [Eh]
	 Singles Energy            =      -0.0000000000000000 [Eh]
	 Same-Spin Energy          =      -0.5315972970386478 [Eh]
	 Opposite-Spin Energy      =      -1.7420585028410709 [Eh]
	 Correlation Energy        =      -2.2736557998797187 [Eh]
	 Total Energy              =    -482.1581366978950314 [Eh]

	 ================> DF-SCS-MP2 Energies <==================
	-----------------------------------------------------------
	 SCS Same-Spin Scale       =       0.3333333333333333 [-]
	 SCS Opposite-Spin Scale   =       1.2000000000000000 [-]
	 SCS Same-Spin Energy      =      -0.1771990990128826 [Eh]
	 SCS Opposite-Spin Energy  =      -2.0904702034092848 [Eh]
	 SCS Correlation Energy    =      -2.2676693024221675 [Eh]
	 SCS Total Energy          =    -482.1521502004375179 [Eh]
	-----------------------------------------------------------

  Dipole Moment: [D]
     X:     0.9053      Y:    -1.0766      Z:    -0.4376     Total:     1.4731

*** Psi4 exiting successfully. Buy a developer a beer!
