                               Psi4 1.4a3.dev225

  ==> Input File <==

--------------------------------------------------------------------------
#psi4
#
memory 32 gb

molecule  {
0 1
  N        1.0430420     0.8835120     0.3262100
  C       -2.6935940    -0.1236090    -0.2650160
  C       -0.4170680    -1.0145740    -0.0079460
  C       -1.3683020    -0.3105490    -1.0112920
  C       -2.2166740     0.1783740     1.1559530
  C       -1.0996000    -0.8433070     1.3811970
  C       -3.6002280     0.9375310    -0.8724950
  C        0.9620280    -0.4146880    -0.0398380
  C        2.0893310    -1.1495780    -0.4236340
  C        3.3396130    -0.5322390    -0.4347340
  C        2.2533150     1.4653640     0.3147880
  C        3.4262710     0.8062240    -0.0568370
  H       -3.2284890    -1.0854330    -0.2500270
  H       -0.3333030    -2.0805640    -0.2540920
  H       -0.9618110     0.6780590    -1.2570810
  H       -1.4754410    -0.8694270    -1.9482280
  H       -3.0167220     0.1138590     1.9027270
  H       -1.8766144     1.0078312     1.1811277
  H       -0.3855780    -0.5294870     2.1482020
  H       -1.5277920    -1.8013410     1.6997400
  H       -3.8772320     0.6843320    -1.9011880
  H       -4.5228040     1.0497910    -0.2936460
  H       -3.0892320     1.9062640    -0.8879070
  H        1.9842510    -2.1936970    -0.7089060
  H        4.2276210    -1.0857940    -0.7310670
  H        2.2780980     2.5111560     0.6184940
  H        4.3773590     1.3311980    -0.0481150
units angstrom
no_reorient  #important for SAPT in psi4, default
symmetry c1  #important for SAPT in psi4, default
}

set PROPERTIES_ORIGIN ["COM"]
properties('MP2/aug-cc-pvtz', properties = ['dipole'])
--------------------------------------------------------------------------

    Molecular point group: c1
  Charge       = 0
  Multiplicity = 1
  Basis Set: AUG-CC-PVTZ
    Blend: AUG-CC-PVTZ
  Basis Set: (AUG-CC-PVTZ AUX)
    Blend: AUG-CC-PVTZ-JKFIT

    Orbital Energies [Eh]
    ---------------------

    Doubly Occupied:

       1A    -15.558323     2A    -11.275354     3A    -11.274529
       4A    -11.258012     5A    -11.235935     6A    -11.235086
       7A    -11.225730     8A    -11.213102     9A    -11.209874
      10A    -11.209460    11A    -11.205372    12A    -11.179001
      13A     -1.252031    14A     -1.130651    15A     -1.081980
      16A     -1.047845    17A     -0.991404    18A     -0.963820
      19A     -0.895067    20A     -0.855651    21A     -0.841966
      22A     -0.777849    23A     -0.758517    24A     -0.696942
      25A     -0.667903    26A     -0.641171    27A     -0.640422
      28A     -0.612848    29A     -0.587650    30A     -0.584680
      31A     -0.573978    32A     -0.552020    33A     -0.541302
      34A     -0.527855    35A     -0.516290    36A     -0.473107
      37A     -0.469301    38A     -0.462205    39A     -0.458279
      40A     -0.448372    41A     -0.438308    42A     -0.410697
      43A     -0.377123    44A     -0.332099

  @DF-RHF Final Energy:  -479.86370778381439

   => Energetics <=

    Nuclear Repulsion Energy =            686.8597627745753016
    One-Electron Energy =               -2012.0687179746905713
    Two-Electron Energy =                 845.3452474163009356
    Total Energy =                       -479.8637077838143341
  Basis Set: (AUG-CC-PVTZ AUX)
    Blend: AUG-CC-PVTZ-RI
    Molecular point group: c1

    Geometry (in Angstrom), charge = 0, multiplicity = 1:

       Center              X                  Y                   Z               Mass
    ------------   -----------------  -----------------  -----------------  -----------------
         N            0.973592175888     0.883554349342     0.321778430553    14.003074004430
         C           -2.763043824112    -0.123566650658    -0.269447569447    12.000000000000
         C           -0.486517824112    -1.014531650658    -0.012377569447    12.000000000000
         C           -1.437751824112    -0.310506650658    -1.015723569447    12.000000000000
         C           -2.286123824112     0.178416349342     1.151521430553    12.000000000000
         C           -1.169049824112    -0.843264650658     1.376765430553    12.000000000000
         C           -3.669677824112     0.937573349342    -0.876926569447    12.000000000000
         C            0.892578175888    -0.414645650658    -0.044269569447    12.000000000000
         C            2.019881175888    -1.149535650658    -0.428065569447    12.000000000000
         C            3.270163175888    -0.532196650658    -0.439165569447    12.000000000000
         C            2.183865175888     1.465406349342     0.310356430553    12.000000000000
         C            3.356821175888     0.806266349342    -0.061268569447    12.000000000000
         H           -3.297938824112    -1.085390650658    -0.254458569447     1.007825032230
         H           -0.402752824112    -2.080521650658    -0.258523569447     1.007825032230
         H           -1.031260824112     0.678101349342    -1.261512569447     1.007825032230
         H           -1.544890824112    -0.869384650658    -1.952659569447     1.007825032230
         H           -3.086171824112     0.113901349342     1.898295430553     1.007825032230
         H           -1.946064224112     1.007873549342     1.176696130553     1.007825032230
         H           -0.455027824112    -0.529444650658     2.143770430553     1.007825032230
         H           -1.597241824112    -1.801298650658     1.695308430553     1.007825032230
         H           -3.946681824112     0.684374349342    -1.905619569447     1.007825032230
         H           -4.592253824112     1.049833349342    -0.298077569447     1.007825032230
         H           -3.158681824112     1.906306349342    -0.892338569447     1.007825032230
         H            1.914801175888    -2.193654650658    -0.713337569447     1.007825032230
         H            4.158171175888    -1.085751650658    -0.735498569447     1.007825032230
         H            2.208648175888     2.511198349342     0.614062430553     1.007825032230
         H            4.307909175888     1.331240349342    -0.052546569447     1.007825032230

  Basis Set: AUG-CC-PVTZ
    Blend: AUG-CC-PVTZ
  Basis Set: (AUG-CC-PVTZ AUX)
    Blend: AUG-CC-PVTZ-JKFIT
	 Reference Energy          =    -479.8637077838143910 [Eh]
	 Singles Energy            =      -0.0000000000000000 [Eh]
	 Same-Spin Energy          =      -0.5326318408383417 [Eh]
	 Opposite-Spin Energy      =      -1.7446715853616217 [Eh]
	 Correlation Energy        =      -2.2773034261999632 [Eh]
	 Total Energy              =    -482.1410112100143692 [Eh]

	 ================> DF-SCS-MP2 Energies <==================
	-----------------------------------------------------------
	 SCS Same-Spin Scale       =       0.3333333333333333 [-]
	 SCS Opposite-Spin Scale   =       1.2000000000000000 [-]
	 SCS Same-Spin Energy      =      -0.1775439469461139 [Eh]
	 SCS Opposite-Spin Energy  =      -2.0936059024339460 [Eh]
	 SCS Correlation Energy    =      -2.2711498493800599 [Eh]
	 SCS Total Energy          =    -482.1348576331944287 [Eh]
	-----------------------------------------------------------

  Dipole Moment: [D]
     X:     1.3313      Y:    -0.9998      Z:    -0.4841     Total:     1.7339

*** Psi4 exiting successfully. Buy a developer a beer!
