                               Psi4 1.4a3.dev225

  ==> Input File <==

--------------------------------------------------------------------------
#psi4
#
memory 32 gb

molecule  {
0 1
  N        1.0430420     0.8835120     0.3262100
  C       -2.6935940    -0.1236090    -0.2650160
  C       -0.4170680    -1.0145740    -0.0079460
  C       -1.3683020    -0.3105490    -1.0112920
  C       -2.2166740     0.1783740     1.1559530
  C       -1.0996000    -0.8433070     1.3811970
  C       -3.6002280     0.9375310    -0.8724950
  C        0.9620280    -0.4146880    -0.0398380
  C        2.0893310    -1.1495780    -0.4236340
  C        3.3396130    -0.5322390    -0.4347340
  C        2.2533150     1.4653640     0.3147880
  C        3.4262710     0.8062240    -0.0568370
  H       -3.2284890    -1.0854330    -0.2500270
  H       -0.3333030    -2.0805640    -0.2540920
  H       -0.9618110     0.6780590    -1.2570810
  H       -1.4754410    -0.8694270    -1.9482280
  H       -3.0167220     0.1138590     1.9027270
  H       -1.8007770     1.1928100     1.1867420
  H       -0.5161247    -0.5868636     2.0079683
  H       -1.5277920    -1.8013410     1.6997400
  H       -3.8772320     0.6843320    -1.9011880
  H       -4.5228040     1.0497910    -0.2936460
  H       -3.0892320     1.9062640    -0.8879070
  H        1.9842510    -2.1936970    -0.7089060
  H        4.2276210    -1.0857940    -0.7310670
  H        2.2780980     2.5111560     0.6184940
  H        4.3773590     1.3311980    -0.0481150
units angstrom
no_reorient  #important for SAPT in psi4, default
symmetry c1  #important for SAPT in psi4, default
}

set PROPERTIES_ORIGIN ["COM"]
properties('MP2/aug-cc-pvtz', properties = ['dipole'])
--------------------------------------------------------------------------

    Molecular point group: c1
  Charge       = 0
  Multiplicity = 1
  Basis Set: AUG-CC-PVTZ
    Blend: AUG-CC-PVTZ
  Basis Set: (AUG-CC-PVTZ AUX)
    Blend: AUG-CC-PVTZ-JKFIT

    Orbital Energies [Eh]
    ---------------------

    Doubly Occupied:

       1A    -15.558422     2A    -11.275381     3A    -11.274632
       4A    -11.258204     5A    -11.236200     6A    -11.235351
       7A    -11.224628     8A    -11.213410     9A    -11.208628
      10A    -11.204293    11A    -11.202316    12A    -11.186817
      13A     -1.252240    14A     -1.129090    15A     -1.082132
      16A     -1.046363    17A     -0.998465    18A     -0.958052
      19A     -0.896877    20A     -0.856067    21A     -0.841946
      22A     -0.775990    23A     -0.755024    24A     -0.699967
      25A     -0.668320    26A     -0.646960    27A     -0.639527
      28A     -0.615557    29A     -0.585398    30A     -0.576986
      31A     -0.574007    32A     -0.555278    33A     -0.540162
      34A     -0.527549    35A     -0.514189    36A     -0.479716
      37A     -0.468461    38A     -0.460752    39A     -0.453202
      40A     -0.446842    41A     -0.440599    42A     -0.410114
      43A     -0.377472    44A     -0.332275

  @DF-RHF Final Energy:  -479.86343592243207

   => Energetics <=

    Nuclear Repulsion Energy =            686.9222652876034090
    One-Electron Energy =               -2012.2036784541107863
    Two-Electron Energy =                 845.4179772440752458
    Total Energy =                       -479.8634359224320178
  Basis Set: (AUG-CC-PVTZ AUX)
    Blend: AUG-CC-PVTZ-RI
    Molecular point group: c1

    Geometry (in Angstrom), charge = 0, multiplicity = 1:

       Center              X                  Y                   Z               Mass
    ------------   -----------------  -----------------  -----------------  -----------------
         N            0.973934388203     0.882756184418     0.322620488787    14.003074004430
         C           -2.762701611797    -0.124364815582    -0.268605511213    12.000000000000
         C           -0.486175611797    -1.015329815582    -0.011535511213    12.000000000000
         C           -1.437409611797    -0.311304815582    -1.014881511213    12.000000000000
         C           -2.285781611797     0.177618184418     1.152363488787    12.000000000000
         C           -1.168707611797    -0.844062815582     1.377607488787    12.000000000000
         C           -3.669335611797     0.936775184418    -0.876084511213    12.000000000000
         C            0.892920388203    -0.415443815582    -0.043427511213    12.000000000000
         C            2.020223388203    -1.150333815582    -0.427223511213    12.000000000000
         C            3.270505388203    -0.532994815582    -0.438323511213    12.000000000000
         C            2.184207388203     1.464608184418     0.311198488787    12.000000000000
         C            3.357163388203     0.805468184418    -0.060426511213    12.000000000000
         H           -3.297596611797    -1.086188815582    -0.253616511213     1.007825032230
         H           -0.402410611797    -2.081319815582    -0.257681511213     1.007825032230
         H           -1.030918611797     0.677303184418    -1.260670511213     1.007825032230
         H           -1.544548611797    -0.870182815582    -1.951817511213     1.007825032230
         H           -3.085829611797     0.113103184418     1.899137488787     1.007825032230
         H           -1.869884611797     1.192054184418     1.183152488787     1.007825032230
         H           -0.585232311797    -0.587619415582     2.004378788787     1.007825032230
         H           -1.596899611797    -1.802096815582     1.696150488787     1.007825032230
         H           -3.946339611797     0.683576184418    -1.904777511213     1.007825032230
         H           -4.591911611797     1.049035184418    -0.297235511213     1.007825032230
         H           -3.158339611797     1.905508184418    -0.891496511213     1.007825032230
         H            1.915143388203    -2.194452815582    -0.712495511213     1.007825032230
         H            4.158513388203    -1.086549815582    -0.734656511213     1.007825032230
         H            2.208990388203     2.510400184418     0.614904488787     1.007825032230
         H            4.308251388203     1.330442184418    -0.051704511213     1.007825032230

  Basis Set: AUG-CC-PVTZ
    Blend: AUG-CC-PVTZ
  Basis Set: (AUG-CC-PVTZ AUX)
    Blend: AUG-CC-PVTZ-JKFIT
	 Reference Energy          =    -479.8634359224320747 [Eh]
	 Singles Energy            =      -0.0000000000000000 [Eh]
	 Same-Spin Energy          =      -0.5326004041615916 [Eh]
	 Opposite-Spin Energy      =      -1.7445433039288858 [Eh]
	 Correlation Energy        =      -2.2771437080904775 [Eh]
	 Total Energy              =    -482.1405796305225522 [Eh]

	 ================> DF-SCS-MP2 Energies <==================
	-----------------------------------------------------------
	 SCS Same-Spin Scale       =       0.3333333333333333 [-]
	 SCS Opposite-Spin Scale   =       1.2000000000000000 [-]
	 SCS Same-Spin Energy      =      -0.1775334680538639 [Eh]
	 SCS Opposite-Spin Energy  =      -2.0934519647146628 [Eh]
	 SCS Correlation Energy    =      -2.2709854327685268 [Eh]
	 SCS Total Energy          =    -482.1344213552006295 [Eh]
	-----------------------------------------------------------

  Dipole Moment: [D]
     X:     1.3991      Y:    -1.0874      Z:    -0.4167     Total:     1.8203

*** Psi4 exiting successfully. Buy a developer a beer!
