                               Psi4 1.4a3.dev225

  ==> Input File <==

--------------------------------------------------------------------------
#psi4
#
memory 32 gb

molecule  {
0 1
  N        1.0430420     0.8835120     0.3262100
  C       -2.6935940    -0.1236090    -0.2650160
  C       -0.4170680    -1.0145740    -0.0079460
  C       -1.3683020    -0.3105490    -1.0112920
  C       -2.2166740     0.1783740     1.1559530
  C       -1.0996000    -0.8433070     1.3811970
  C       -3.6002280     0.9375310    -0.8724950
  C        0.9620280    -0.4146880    -0.0398380
  C        2.0893310    -1.1495780    -0.4236340
  C        3.3396130    -0.5322390    -0.4347340
  C        2.2533150     1.4653640     0.3147880
  C        3.4262710     0.8062240    -0.0568370
  H       -3.2284890    -1.0854330    -0.2500270
  H       -0.3333030    -2.0805640    -0.2540920
  H       -0.9618110     0.6780590    -1.2570810
  H       -1.4754410    -0.8694270    -1.9482280
  H       -3.0167220     0.1138590     1.9027270
  H       -1.7818177     1.2390547     1.1881456
  H       -0.3855780    -0.5294870     2.1482020
  H       -1.5277920    -1.8013410     1.6997400
  H       -3.8772320     0.6843320    -1.9011880
  H       -4.5228040     1.0497910    -0.2936460
  H       -3.0892320     1.9062640    -0.8879070
  H        1.9842510    -2.1936970    -0.7089060
  H        4.2276210    -1.0857940    -0.7310670
  H        2.2780980     2.5111560     0.6184940
  H        4.3773590     1.3311980    -0.0481150
units angstrom
no_reorient  #important for SAPT in psi4, default
symmetry c1  #important for SAPT in psi4, default
}

set PROPERTIES_ORIGIN ["COM"]
properties('MP2/aug-cc-pvtz', properties = ['dipole'])
--------------------------------------------------------------------------

    Molecular point group: c1
  Charge       = 0
  Multiplicity = 1
  Basis Set: AUG-CC-PVTZ
    Blend: AUG-CC-PVTZ
  Basis Set: (AUG-CC-PVTZ AUX)
    Blend: AUG-CC-PVTZ-JKFIT

    Orbital Energies [Eh]
    ---------------------

    Doubly Occupied:

       1A    -15.557908     2A    -11.275325     3A    -11.274296
       4A    -11.257922     5A    -11.235867     6A    -11.235121
       7A    -11.226298     8A    -11.215140     9A    -11.211960
      10A    -11.209820    11A    -11.209625    12A    -11.205233
      13A     -1.251822    14A     -1.127227    15A     -1.081830
      16A     -1.046320    17A     -0.991308    18A     -0.953555
      19A     -0.893630    20A     -0.855146    21A     -0.836006
      22A     -0.763251    23A     -0.753675    24A     -0.696771
      25A     -0.668185    26A     -0.640799    27A     -0.639938
      28A     -0.607340    29A     -0.585049    30A     -0.575259
      31A     -0.574092    32A     -0.551749    33A     -0.537296
      34A     -0.526869    35A     -0.510451    36A     -0.473448
      37A     -0.469070    38A     -0.461123    39A     -0.451477
      40A     -0.444970    41A     -0.440033    42A     -0.409669
      43A     -0.376943    44A     -0.332132

  @DF-RHF Final Energy:  -479.89445271835046

   => Energetics <=

    Nuclear Repulsion Energy =            685.6501297293392554
    One-Electron Energy =               -2009.8072722004117168
    Two-Electron Energy =                 844.2626897527219398
    Total Energy =                       -479.8944527183504078
  Basis Set: (AUG-CC-PVTZ AUX)
    Blend: AUG-CC-PVTZ-RI
    Molecular point group: c1

    Geometry (in Angstrom), charge = 0, multiplicity = 1:

       Center              X                  Y                   Z               Mass
    ------------   -----------------  -----------------  -----------------  -----------------
         N            0.972999212750     0.882108022497     0.321734532865    14.003074004430
         C           -2.763636787250    -0.125012977503    -0.269491467135    12.000000000000
         C           -0.487110787250    -1.015977977503    -0.012421467135    12.000000000000
         C           -1.438344787250    -0.311952977503    -1.015767467135    12.000000000000
         C           -2.286716787250     0.176970022497     1.151477532865    12.000000000000
         C           -1.169642787250    -0.844710977503     1.376721532865    12.000000000000
         C           -3.670270787250     0.936127022497    -0.876970467135    12.000000000000
         C            0.891985212750    -0.416091977503    -0.044313467135    12.000000000000
         C            2.019288212750    -1.150981977503    -0.428109467135    12.000000000000
         C            3.269570212750    -0.533642977503    -0.439209467135    12.000000000000
         C            2.183272212750     1.463960022497     0.310312532865    12.000000000000
         C            3.356228212750     0.804820022497    -0.061312467135    12.000000000000
         H           -3.298531787250    -1.086836977503    -0.254502467135     1.007825032230
         H           -0.403345787250    -2.081967977503    -0.258567467135     1.007825032230
         H           -1.031853787250     0.676655022497    -1.261556467135     1.007825032230
         H           -1.545483787250    -0.870830977503    -1.952703467135     1.007825032230
         H           -3.086764787250     0.112455022497     1.898251532865     1.007825032230
         H           -1.851860487250     1.237650722497     1.183670132865     1.007825032230
         H           -0.455620787250    -0.530890977503     2.143726532865     1.007825032230
         H           -1.597834787250    -1.802744977503     1.695264532865     1.007825032230
         H           -3.947274787250     0.682928022497    -1.905663467135     1.007825032230
         H           -4.592846787250     1.048387022497    -0.298121467135     1.007825032230
         H           -3.159274787250     1.904860022497    -0.892382467135     1.007825032230
         H            1.914208212750    -2.195100977503    -0.713381467135     1.007825032230
         H            4.157578212750    -1.087197977503    -0.735542467135     1.007825032230
         H            2.208055212750     2.509752022497     0.614018532865     1.007825032230
         H            4.307316212750     1.329794022497    -0.052590467135     1.007825032230

  Basis Set: AUG-CC-PVTZ
    Blend: AUG-CC-PVTZ
  Basis Set: (AUG-CC-PVTZ AUX)
    Blend: AUG-CC-PVTZ-JKFIT
	 Reference Energy          =    -479.8944527183504647 [Eh]
	 Singles Energy            =      -0.0000000000000000 [Eh]
	 Same-Spin Energy          =      -0.5328562314465372 [Eh]
	 Opposite-Spin Energy      =      -1.7459491349926370 [Eh]
	 Correlation Energy        =      -2.2788053664391743 [Eh]
	 Total Energy              =    -482.1732580847896656 [Eh]

	 ================> DF-SCS-MP2 Energies <==================
	-----------------------------------------------------------
	 SCS Same-Spin Scale       =       0.3333333333333333 [-]
	 SCS Opposite-Spin Scale   =       1.2000000000000000 [-]
	 SCS Same-Spin Energy      =      -0.1776187438155124 [Eh]
	 SCS Opposite-Spin Energy  =      -2.0951389619911645 [Eh]
	 SCS Correlation Energy    =      -2.2727577058066770 [Eh]
	 SCS Total Energy          =    -482.1672104241571333 [Eh]
	-----------------------------------------------------------

  Dipole Moment: [D]
     X:     1.3291      Y:    -1.0971      Z:    -0.4994     Total:     1.7943

*** Psi4 exiting successfully. Buy a developer a beer!
