                               Psi4 1.4a3.dev225

  ==> Input File <==

--------------------------------------------------------------------------
#psi4
#
memory 32 gb

molecule  {
0 1
  N        1.0430420     0.8835120     0.3262100
  C       -2.6935940    -0.1236090    -0.2650160
  C       -0.4170680    -1.0145740    -0.0079460
  C       -1.3683020    -0.3105490    -1.0112920
  C       -2.2166740     0.1783740     1.1559530
  C       -1.0996000    -0.8433070     1.3811970
  C       -3.6002280     0.9375310    -0.8724950
  C        0.9620280    -0.4146880    -0.0398380
  C        2.0893310    -1.1495780    -0.4236340
  C        3.3396130    -0.5322390    -0.4347340
  C        2.2533150     1.4653640     0.3147880
  C        3.4231616     0.7581982    -0.0703964
  H       -3.2284890    -1.0854330    -0.2500270
  H       -0.3333030    -2.0805640    -0.2540920
  H       -0.9618110     0.6780590    -1.2570810
  H       -1.4754410    -0.8694270    -1.9482280
  H       -3.0167220     0.1138590     1.9027270
  H       -1.8007770     1.1928100     1.1867420
  H       -0.3855780    -0.5294870     2.1482020
  H       -1.5277920    -1.8013410     1.6997400
  H       -3.8772320     0.6843320    -1.9011880
  H       -4.5228040     1.0497910    -0.2936460
  H       -3.0892320     1.9062640    -0.8879070
  H        1.9842510    -2.1936970    -0.7089060
  H        4.2276210    -1.0857940    -0.7310670
  H        2.2780980     2.5111560     0.6184940
  H        4.3773590     1.3311980    -0.0481150
units angstrom
no_reorient  #important for SAPT in psi4, default
symmetry c1  #important for SAPT in psi4, default
}

set PROPERTIES_ORIGIN ["COM"]
properties('MP2/aug-cc-pvtz', properties = ['dipole'])
--------------------------------------------------------------------------

    Molecular point group: c1
  Charge       = 0
  Multiplicity = 1
  Basis Set: AUG-CC-PVTZ
    Blend: AUG-CC-PVTZ
  Basis Set: (AUG-CC-PVTZ AUX)
    Blend: AUG-CC-PVTZ-JKFIT

    Orbital Energies [Eh]
    ---------------------

    Doubly Occupied:

       1A    -15.559366     2A    -11.278665     3A    -11.273477
       4A    -11.250946     5A    -11.235893     6A    -11.234118
       7A    -11.225441     8A    -11.214296     9A    -11.210923
      10A    -11.209217    11A    -11.205058    12A    -11.203465
      13A     -1.252883    14A     -1.127316    15A     -1.089546
      16A     -1.044626    17A     -0.989932    18A     -0.953592
      19A     -0.892458    20A     -0.858806    21A     -0.834631
      22A     -0.764131    23A     -0.755322    24A     -0.697413
      25A     -0.666596    26A     -0.641832    27A     -0.638402
      28A     -0.607375    29A     -0.586202    30A     -0.577646
      31A     -0.569341    32A     -0.552343    33A     -0.539365
      34A     -0.528289    35A     -0.512055    36A     -0.473197
      37A     -0.469041    38A     -0.460876    39A     -0.452398
      40A     -0.446835    41A     -0.439271    42A     -0.408268
      43A     -0.382461    44A     -0.329492

  @DF-RHF Final Energy:  -479.89339193952884

   => Energetics <=

    Nuclear Repulsion Energy =            686.3551133402930873
    One-Electron Energy =               -2011.2113922753449060
    Two-Electron Energy =                 844.9628869955229220
    Total Energy =                       -479.8933919395287830
  Basis Set: (AUG-CC-PVTZ AUX)
    Blend: AUG-CC-PVTZ-RI
    Molecular point group: c1

    Geometry (in Angstrom), charge = 0, multiplicity = 1:

       Center              X                  Y                   Z               Mass
    ------------   -----------------  -----------------  -----------------  -----------------
         N            0.973349388394     0.885974174611     0.322753195510    14.003074004430
         C           -2.763286611606    -0.121146825389    -0.268472804490    12.000000000000
         C           -0.486760611606    -1.012111825389    -0.011402804490    12.000000000000
         C           -1.437994611606    -0.308086825389    -1.014748804490    12.000000000000
         C           -2.286366611606     0.180836174611     1.152496195510    12.000000000000
         C           -1.169292611606    -0.840844825389     1.377740195510    12.000000000000
         C           -3.669920611606     0.939993174611    -0.875951804490    12.000000000000
         C            0.892335388394    -0.412225825389    -0.043294804490    12.000000000000
         C            2.019638388394    -1.147115825389    -0.427090804490    12.000000000000
         C            3.269920388394    -0.529776825389    -0.438190804490    12.000000000000
         C            2.183622388394     1.467826174611     0.311331195510    12.000000000000
         C            3.353468988394     0.760660374611    -0.073853204490    12.000000000000
         H           -3.298181611606    -1.082970825389    -0.253483804490     1.007825032230
         H           -0.402995611606    -2.078101825389    -0.257548804490     1.007825032230
         H           -1.031503611606     0.680521174611    -1.260537804490     1.007825032230
         H           -1.545133611606    -0.866964825389    -1.951684804490     1.007825032230
         H           -3.086414611606     0.116321174611     1.899270195510     1.007825032230
         H           -1.870469611606     1.195272174611     1.183285195510     1.007825032230
         H           -0.455270611606    -0.527024825389     2.144745195510     1.007825032230
         H           -1.597484611606    -1.798878825389     1.696283195510     1.007825032230
         H           -3.946924611606     0.686794174611    -1.904644804490     1.007825032230
         H           -4.592496611606     1.052253174611    -0.297102804490     1.007825032230
         H           -3.158924611606     1.908726174611    -0.891363804490     1.007825032230
         H            1.914558388394    -2.191234825389    -0.712362804490     1.007825032230
         H            4.157928388394    -1.083331825389    -0.734523804490     1.007825032230
         H            2.208405388394     2.513618174611     0.615037195510     1.007825032230
         H            4.307666388394     1.333660174611    -0.051571804490     1.007825032230

  Basis Set: AUG-CC-PVTZ
    Blend: AUG-CC-PVTZ
  Basis Set: (AUG-CC-PVTZ AUX)
    Blend: AUG-CC-PVTZ-JKFIT
	 Reference Energy          =    -479.8933919395288399 [Eh]
	 Singles Energy            =      -0.0000000000000000 [Eh]
	 Same-Spin Energy          =      -0.5328431792055460 [Eh]
	 Opposite-Spin Energy      =      -1.7456414391088750 [Eh]
	 Correlation Energy        =      -2.2784846183144212 [Eh]
	 Total Energy              =    -482.1718765578432340 [Eh]

	 ================> DF-SCS-MP2 Energies <==================
	-----------------------------------------------------------
	 SCS Same-Spin Scale       =       0.3333333333333333 [-]
	 SCS Opposite-Spin Scale   =       1.2000000000000000 [-]
	 SCS Same-Spin Energy      =      -0.1776143930685153 [Eh]
	 SCS Opposite-Spin Energy  =      -2.0947697269306498 [Eh]
	 SCS Correlation Energy    =      -2.2723841199991650 [Eh]
	 SCS Total Energy          =    -482.1657760595280138 [Eh]
	-----------------------------------------------------------

  Dipole Moment: [D]
     X:     1.3358      Y:    -1.0354      Z:    -0.4839     Total:     1.7580

*** Psi4 exiting successfully. Buy a developer a beer!
