                               Psi4 1.4a3.dev225

  ==> Input File <==

--------------------------------------------------------------------------
#psi4
#
memory 32 gb

molecule  {
0 1
  N        1.0430420     0.8835120     0.3262100
  C       -2.6797470    -0.0179780    -0.2745508
  C       -0.4170680    -1.0145740    -0.0079460
  C       -1.3683020    -0.3105490    -1.0112920
  C       -2.2166740     0.1783740     1.1559530
  C       -1.0996000    -0.8433070     1.3811970
  C       -3.6002280     0.9375310    -0.8724950
  C        0.9620280    -0.4146880    -0.0398380
  C        2.0893310    -1.1495780    -0.4236340
  C        3.3396130    -0.5322390    -0.4347340
  C        2.2533150     1.4653640     0.3147880
  C        3.4262710     0.8062240    -0.0568370
  H       -3.2284890    -1.0854330    -0.2500270
  H       -0.3333030    -2.0805640    -0.2540920
  H       -0.9618110     0.6780590    -1.2570810
  H       -1.4754410    -0.8694270    -1.9482280
  H       -3.0167220     0.1138590     1.9027270
  H       -1.8007770     1.1928100     1.1867420
  H       -0.3855780    -0.5294870     2.1482020
  H       -1.5277920    -1.8013410     1.6997400
  H       -3.8772320     0.6843320    -1.9011880
  H       -4.5228040     1.0497910    -0.2936460
  H       -3.0892320     1.9062640    -0.8879070
  H        1.9842510    -2.1936970    -0.7089060
  H        4.2276210    -1.0857940    -0.7310670
  H        2.2780980     2.5111560     0.6184940
  H        4.3773590     1.3311980    -0.0481150
units angstrom
no_reorient  #important for SAPT in psi4, default
symmetry c1  #important for SAPT in psi4, default
}

set PROPERTIES_ORIGIN ["COM"]
properties('MP2/aug-cc-pvtz', properties = ['dipole'])
--------------------------------------------------------------------------

    Molecular point group: c1
  Charge       = 0
  Multiplicity = 1
  Basis Set: AUG-CC-PVTZ
    Blend: AUG-CC-PVTZ
  Basis Set: (AUG-CC-PVTZ AUX)
    Blend: AUG-CC-PVTZ-JKFIT

    Orbital Energies [Eh]
    ---------------------

    Doubly Occupied:

       1A    -15.558387     2A    -11.275945     3A    -11.274677
       4A    -11.258304     5A    -11.236275     6A    -11.235609
       7A    -11.227748     8A    -11.220344     9A    -11.213080
      10A    -11.210831    11A    -11.204901    12A    -11.204771
      13A     -1.252271    14A     -1.129860    15A     -1.082308
      16A     -1.050616    17A     -0.999686    18A     -0.956042
      19A     -0.898457    20A     -0.855651    21A     -0.838370
      22A     -0.766437    23A     -0.742067    24A     -0.697806
      25A     -0.668794    26A     -0.643296    27A     -0.639606
      28A     -0.612350    29A     -0.586895    30A     -0.577650
      31A     -0.575618    32A     -0.557714    33A     -0.539148
      34A     -0.527184    35A     -0.510585    36A     -0.482616
      37A     -0.473586    38A     -0.469659    39A     -0.453268
      40A     -0.442754    41A     -0.416702    42A     -0.408852
      43A     -0.376975    44A     -0.332696

  @DF-RHF Final Energy:  -479.88364792137071

   => Energetics <=

    Nuclear Repulsion Energy =            686.3586110249782450
    One-Electron Energy =               -2011.1117332075612012
    Two-Electron Energy =                 844.8694742612121900
    Total Energy =                       -479.8836479213707662
  Basis Set: (AUG-CC-PVTZ AUX)
    Blend: AUG-CC-PVTZ-RI
    Molecular point group: c1

    Geometry (in Angstrom), charge = 0, multiplicity = 1:

       Center              X                  Y                   Z               Mass
    ------------   -----------------  -----------------  -----------------  -----------------
         N            0.972086502145     0.874530055594     0.322453449574    14.003074004430
         C           -2.750702497855    -0.026959944406    -0.278307350426    12.000000000000
         C           -0.488023497855    -1.023555944406    -0.011702550426    12.000000000000
         C           -1.439257497855    -0.319530944406    -1.015048550426    12.000000000000
         C           -2.287629497855     0.169392055594     1.152196449574    12.000000000000
         C           -1.170555497855    -0.852288944406     1.377440449574    12.000000000000
         C           -3.671183497855     0.928549055594    -0.876251550426    12.000000000000
         C            0.891072502145    -0.423669944406    -0.043594550426    12.000000000000
         C            2.018375502145    -1.158559944406    -0.427390550426    12.000000000000
         C            3.268657502145    -0.541220944406    -0.438490550426    12.000000000000
         C            2.182359502145     1.456382055594     0.311031449574    12.000000000000
         C            3.355315502145     0.797242055594    -0.060593550426    12.000000000000
         H           -3.299444497855    -1.094414944406    -0.253783550426     1.007825032230
         H           -0.404258497855    -2.089545944406    -0.257848550426     1.007825032230
         H           -1.032766497855     0.669077055594    -1.260837550426     1.007825032230
         H           -1.546396497855    -0.878408944406    -1.951984550426     1.007825032230
         H           -3.087677497855     0.104877055594     1.898970449574     1.007825032230
         H           -1.871732497855     1.183828055594     1.182985449574     1.007825032230
         H           -0.456533497855    -0.538468944406     2.144445449574     1.007825032230
         H           -1.598747497855    -1.810322944406     1.695983449574     1.007825032230
         H           -3.948187497855     0.675350055594    -1.904944550426     1.007825032230
         H           -4.593759497855     1.040809055594    -0.297402550426     1.007825032230
         H           -3.160187497855     1.897282055594    -0.891663550426     1.007825032230
         H            1.913295502145    -2.202678944406    -0.712662550426     1.007825032230
         H            4.156665502145    -1.094775944406    -0.734823550426     1.007825032230
         H            2.207142502145     2.502174055594     0.614737449574     1.007825032230
         H            4.306403502145     1.322216055594    -0.051871550426     1.007825032230

  Basis Set: AUG-CC-PVTZ
    Blend: AUG-CC-PVTZ
  Basis Set: (AUG-CC-PVTZ AUX)
    Blend: AUG-CC-PVTZ-JKFIT
	 Reference Energy          =    -479.8836479213707094 [Eh]
	 Singles Energy            =      -0.0000000000000000 [Eh]
	 Same-Spin Energy          =      -0.5335451820496532 [Eh]
	 Opposite-Spin Energy      =      -1.7467910932105521 [Eh]
	 Correlation Energy        =      -2.2803362752602054 [Eh]
	 Total Energy              =    -482.1639841966309064 [Eh]

	 ================> DF-SCS-MP2 Energies <==================
	-----------------------------------------------------------
	 SCS Same-Spin Scale       =       0.3333333333333333 [-]
	 SCS Opposite-Spin Scale   =       1.2000000000000000 [-]
	 SCS Same-Spin Energy      =      -0.1778483940165511 [Eh]
	 SCS Opposite-Spin Energy  =      -2.0961493118526624 [Eh]
	 SCS Correlation Energy    =      -2.2739977058692133 [Eh]
	 SCS Total Energy          =    -482.1576456272399014 [Eh]
	-----------------------------------------------------------

  Dipole Moment: [D]
     X:     1.3764      Y:    -0.9788      Z:    -0.5051     Total:     1.7628

*** Psi4 exiting successfully. Buy a developer a beer!
