                               Psi4 1.4a3.dev225

  ==> Input File <==

--------------------------------------------------------------------------
#psi4
#
memory 32 gb

molecule  {
0 1
  N        1.0430420     0.8835120     0.3262100
  C       -2.6935940    -0.1236090    -0.2650160
  C       -0.4170680    -1.0145740    -0.0079460
  C       -1.3683020    -0.3105490    -1.0112920
  C       -2.2166740     0.1783740     1.1559530
  C       -1.0996000    -0.8433070     1.3811970
  C       -3.6002280     0.9375310    -0.8724950
  C        0.8841504    -0.5365074    -0.0632746
  C        2.0893310    -1.1495780    -0.4236340
  C        3.3396130    -0.5322390    -0.4347340
  C        2.2533150     1.4653640     0.3147880
  C        3.4262710     0.8062240    -0.0568370
  H       -3.2284890    -1.0854330    -0.2500270
  H       -0.3333030    -2.0805640    -0.2540920
  H       -0.9618110     0.6780590    -1.2570810
  H       -1.4754410    -0.8694270    -1.9482280
  H       -3.0167220     0.1138590     1.9027270
  H       -1.8007770     1.1928100     1.1867420
  H       -0.3855780    -0.5294870     2.1482020
  H       -1.5277920    -1.8013410     1.6997400
  H       -3.8772320     0.6843320    -1.9011880
  H       -4.5228040     1.0497910    -0.2936460
  H       -3.0892320     1.9062640    -0.8879070
  H        1.9842510    -2.1936970    -0.7089060
  H        4.2276210    -1.0857940    -0.7310670
  H        2.2780980     2.5111560     0.6184940
  H        4.3773590     1.3311980    -0.0481150
units angstrom
no_reorient  #important for SAPT in psi4, default
symmetry c1  #important for SAPT in psi4, default
}

set PROPERTIES_ORIGIN ["COM"]
properties('MP2/aug-cc-pvtz', properties = ['dipole'])
--------------------------------------------------------------------------

    Molecular point group: c1
  Charge       = 0
  Multiplicity = 1
  Basis Set: AUG-CC-PVTZ
    Blend: AUG-CC-PVTZ
  Basis Set: (AUG-CC-PVTZ AUX)
    Blend: AUG-CC-PVTZ-JKFIT

    Orbital Energies [Eh]
    ---------------------

    Doubly Occupied:

       1A    -15.560034     2A    -11.282161     3A    -11.271301
       4A    -11.257316     5A    -11.236043     6A    -11.234934
       7A    -11.224553     8A    -11.217605     9A    -11.216597
      10A    -11.214903    11A    -11.207340    12A    -11.206426
      13A     -1.222768    14A     -1.136555    15A     -1.071935
      16A     -1.058556    17A     -0.992006    18A     -0.960616
      19A     -0.902990    20A     -0.851001    21A     -0.830659
      22A     -0.771052    23A     -0.759511    24A     -0.691703
      25A     -0.673350    26A     -0.646304    27A     -0.631867
      28A     -0.609788    29A     -0.584059    30A     -0.578925
      31A     -0.573123    32A     -0.554173    33A     -0.529950
      34A     -0.522122    35A     -0.513435    36A     -0.484024
      37A     -0.474771    38A     -0.465094    39A     -0.458936
      40A     -0.450801    41A     -0.442749    42A     -0.396261
      43A     -0.368855    44A     -0.324000

  @DF-RHF Final Energy:  -479.86486182167596

   => Energetics <=

    Nuclear Repulsion Energy =            685.2817234306266982
    One-Electron Energy =               -2008.9708682411703649
    Two-Electron Energy =                 843.8242829888677079
    Total Energy =                       -479.8648618216759587
  Basis Set: (AUG-CC-PVTZ AUX)
    Blend: AUG-CC-PVTZ-RI
    Molecular point group: c1

    Geometry (in Angstrom), charge = 0, multiplicity = 1:

       Center              X                  Y                   Z               Mass
    ------------   -----------------  -----------------  -----------------  -----------------
         N            0.978918007417     0.891470206944     0.323488833974    14.003074004430
         C           -2.757717992583    -0.115650793056    -0.267737166026    12.000000000000
         C           -0.481191992583    -1.006615793056    -0.010667166026    12.000000000000
         C           -1.432425992583    -0.302590793056    -1.014013166026    12.000000000000
         C           -2.280797992583     0.186332206944     1.153231833974    12.000000000000
         C           -1.163723992583    -0.835348793056     1.378475833974    12.000000000000
         C           -3.664351992583     0.945489206944    -0.875216166026    12.000000000000
         C            0.820026407417    -0.528549193056    -0.065995766026    12.000000000000
         C            2.025207007417    -1.141619793056    -0.426355166026    12.000000000000
         C            3.275489007417    -0.524280793056    -0.437455166026    12.000000000000
         C            2.189191007417     1.473322206944     0.312066833974    12.000000000000
         C            3.362147007417     0.814182206944    -0.059558166026    12.000000000000
         H           -3.292612992583    -1.077474793056    -0.252748166026     1.007825032230
         H           -0.397426992583    -2.072605793056    -0.256813166026     1.007825032230
         H           -1.025934992583     0.686017206944    -1.259802166026     1.007825032230
         H           -1.539564992583    -0.861468793056    -1.950949166026     1.007825032230
         H           -3.080845992583     0.121817206944     1.900005833974     1.007825032230
         H           -1.864900992583     1.200768206944     1.184020833974     1.007825032230
         H           -0.449701992583    -0.521528793056     2.145480833974     1.007825032230
         H           -1.591915992583    -1.793382793056     1.697018833974     1.007825032230
         H           -3.941355992583     0.692290206944    -1.903909166026     1.007825032230
         H           -4.586927992583     1.057749206944    -0.296367166026     1.007825032230
         H           -3.153355992583     1.914222206944    -0.890628166026     1.007825032230
         H            1.920127007417    -2.185738793056    -0.711627166026     1.007825032230
         H            4.163497007417    -1.077835793056    -0.733788166026     1.007825032230
         H            2.213974007417     2.519114206944     0.615772833974     1.007825032230
         H            4.313235007417     1.339156206944    -0.050836166026     1.007825032230

  Basis Set: AUG-CC-PVTZ
    Blend: AUG-CC-PVTZ
  Basis Set: (AUG-CC-PVTZ AUX)
    Blend: AUG-CC-PVTZ-JKFIT
	 Reference Energy          =    -479.8648618216759587 [Eh]
	 Singles Energy            =      -0.0000000000000000 [Eh]
	 Same-Spin Energy          =      -0.5356898067661222 [Eh]
	 Opposite-Spin Energy      =      -1.7515028198210343 [Eh]
	 Correlation Energy        =      -2.2871926265871565 [Eh]
	 Total Energy              =    -482.1520544482631294 [Eh]

	 ================> DF-SCS-MP2 Energies <==================
	-----------------------------------------------------------
	 SCS Same-Spin Scale       =       0.3333333333333333 [-]
	 SCS Opposite-Spin Scale   =       1.2000000000000000 [-]
	 SCS Same-Spin Energy      =      -0.1785632689220407 [Eh]
	 SCS Opposite-Spin Energy  =      -2.1018033837852412 [Eh]
	 SCS Correlation Energy    =      -2.2803666527072819 [Eh]
	 SCS Total Energy          =    -482.1452284743832593 [Eh]
	-----------------------------------------------------------

  Dipole Moment: [D]
     X:     0.9233      Y:    -1.1329      Z:    -0.4733     Total:     1.5362

*** Psi4 exiting successfully. Buy a developer a beer!
