                               Psi4 1.4a3.dev225

  ==> Input File <==

--------------------------------------------------------------------------
#psi4
#
memory 32 gb

molecule  {
0 1
  N        1.0430420     0.8835120     0.3262100
  C       -2.6935940    -0.1236090    -0.2650160
  C       -0.4170680    -1.0145740    -0.0079460
  C       -1.3683020    -0.3105490    -1.0112920
  C       -2.2166740     0.1783740     1.1559530
  C       -1.0996000    -0.8433070     1.3811970
  C       -3.6002280     0.9375310    -0.8724950
  C        0.9620280    -0.4146880    -0.0398380
  C        2.0893310    -1.1495780    -0.4236340
  C        3.3396130    -0.5322390    -0.4347340
  C        2.2533150     1.4653640     0.3147880
  C        3.4262710     0.8062240    -0.0568370
  H       -3.2284890    -1.0854330    -0.2500270
  H       -0.3333030    -2.0805640    -0.2540920
  H       -0.9618110     0.6780590    -1.2570810
  H       -1.4754410    -0.8694270    -1.9482280
  H       -3.0167220     0.1138590     1.9027270
  H       -1.8007770     1.1928100     1.1867420
  H       -0.3855780    -0.5294870     2.1482020
  H       -1.5277920    -1.8013410     1.6997400
  H       -3.8772320     0.6843320    -1.9011880
  H       -4.5228040     1.0497910    -0.2936460
  H       -3.0892320     1.9062640    -0.8879070
  H        1.9649255    -2.3857229    -0.7613709
  H        4.2276210    -1.0857940    -0.7310670
  H        2.2780980     2.5111560     0.6184940
  H        4.3773590     1.3311980    -0.0481150
units angstrom
no_reorient  #important for SAPT in psi4, default
symmetry c1  #important for SAPT in psi4, default
}

set PROPERTIES_ORIGIN ["COM"]
properties('MP2/aug-cc-pvtz', properties = ['dipole'])
--------------------------------------------------------------------------

    Molecular point group: c1
  Charge       = 0
  Multiplicity = 1
  Basis Set: AUG-CC-PVTZ
    Blend: AUG-CC-PVTZ
  Basis Set: (AUG-CC-PVTZ AUX)
    Blend: AUG-CC-PVTZ-JKFIT

    Orbital Energies [Eh]
    ---------------------

    Doubly Occupied:

       1A    -15.560201     2A    -11.277830     3A    -11.275728
       4A    -11.260567     5A    -11.256565     6A    -11.237753
       7A    -11.225883     8A    -11.214594     9A    -11.211348
      10A    -11.209652    11A    -11.205265    12A    -11.203745
      13A     -1.253636    14A     -1.127637    15A     -1.081764
      16A     -1.045240    17A     -0.990589    18A     -0.954449
      19A     -0.893834    20A     -0.850979    21A     -0.835409
      22A     -0.764773    23A     -0.755600    24A     -0.692168
      25A     -0.668454    26A     -0.640665    27A     -0.627584
      28A     -0.601187    29A     -0.584463    30A     -0.576597
      31A     -0.569615    32A     -0.551416    33A     -0.536873
      34A     -0.521545    35A     -0.508753    36A     -0.472012
      37A     -0.468041    38A     -0.460659    39A     -0.452747
      40A     -0.446977    41A     -0.439275    42A     -0.410591
      43A     -0.378772    44A     -0.333634

  @DF-RHF Final Energy:  -479.87427189949688

   => Energetics <=

    Nuclear Repulsion Energy =            684.9235164393284094
    One-Electron Energy =               -2008.3254352529631888
    Two-Electron Energy =                 843.5276469141380176
    Total Energy =                       -479.8742718994968754
  Basis Set: (AUG-CC-PVTZ AUX)
    Blend: AUG-CC-PVTZ-RI
    Molecular point group: c1

    Geometry (in Angstrom), charge = 0, multiplicity = 1:

       Center              X                  Y                   Z               Mass
    ------------   -----------------  -----------------  -----------------  -----------------
         N            0.973238688123     0.883598429680     0.322071485889    14.003074004430
         C           -2.763397311877    -0.123522570320    -0.269154514111    12.000000000000
         C           -0.486871311877    -1.014487570320    -0.012084514111    12.000000000000
         C           -1.438105311877    -0.310462570320    -1.015430514111    12.000000000000
         C           -2.286477311877     0.178460429680     1.151814485889    12.000000000000
         C           -1.169403311877    -0.843220570320     1.377058485889    12.000000000000
         C           -3.670031311877     0.937617429680    -0.876633514111    12.000000000000
         C            0.892224688123    -0.414601570320    -0.043976514111    12.000000000000
         C            2.019527688123    -1.149491570320    -0.427772514111    12.000000000000
         C            3.269809688123    -0.532152570320    -0.438872514111    12.000000000000
         C            2.183511688123     1.465450429680     0.310649485889    12.000000000000
         C            3.356467688123     0.806310429680    -0.060975514111    12.000000000000
         H           -3.298292311877    -1.085346570320    -0.254165514111     1.007825032230
         H           -0.403106311877    -2.080477570320    -0.258230514111     1.007825032230
         H           -1.031614311877     0.678145429680    -1.261219514111     1.007825032230
         H           -1.545244311877    -0.869340570320    -1.952366514111     1.007825032230
         H           -3.086525311877     0.113945429680     1.898588485889     1.007825032230
         H           -1.870580311877     1.192896429680     1.182603485889     1.007825032230
         H           -0.455381311877    -0.529400570320     2.144063485889     1.007825032230
         H           -1.597595311877    -1.801254570320     1.695601485889     1.007825032230
         H           -3.947035311877     0.684418429680    -1.905326514111     1.007825032230
         H           -4.592607311877     1.049877429680    -0.297784514111     1.007825032230
         H           -3.159035311877     1.906350429680    -0.892045514111     1.007825032230
         H            1.895122188123    -2.385636470320    -0.765509414111     1.007825032230
         H            4.157817688123    -1.085707570320    -0.735205514111     1.007825032230
         H            2.208294688123     2.511242429680     0.614355485889     1.007825032230
         H            4.307555688123     1.331284429680    -0.052253514111     1.007825032230

  Basis Set: AUG-CC-PVTZ
    Blend: AUG-CC-PVTZ
  Basis Set: (AUG-CC-PVTZ AUX)
    Blend: AUG-CC-PVTZ-JKFIT
	 Reference Energy          =    -479.8742718994968754 [Eh]
	 Singles Energy            =      -0.0000000000000000 [Eh]
	 Same-Spin Energy          =      -0.5333815770108956 [Eh]
	 Opposite-Spin Energy      =      -1.7478633220801194 [Eh]
	 Correlation Energy        =      -2.2812448990910150 [Eh]
	 Total Energy              =    -482.1555167985878825 [Eh]

	 ================> DF-SCS-MP2 Energies <==================
	-----------------------------------------------------------
	 SCS Same-Spin Scale       =       0.3333333333333333 [-]
	 SCS Opposite-Spin Scale   =       1.2000000000000000 [-]
	 SCS Same-Spin Energy      =      -0.1777938590036319 [Eh]
	 SCS Opposite-Spin Energy  =      -2.0974359864961434 [Eh]
	 SCS Correlation Energy    =      -2.2752298454997750 [Eh]
	 SCS Total Energy          =    -482.1495017449966554 [Eh]
	-----------------------------------------------------------

  Dipole Moment: [D]
     X:     1.3452      Y:    -0.9811      Z:    -0.4714     Total:     1.7304

*** Psi4 exiting successfully. Buy a developer a beer!
