                               Psi4 1.4a3.dev225

  ==> Input File <==

--------------------------------------------------------------------------
#psi4
#
memory 32 gb

molecule  {
0 1
  N        1.0430420     0.8835120     0.3262100
  C       -2.7913605    -0.1387262    -0.2249823
  C       -0.4170680    -1.0145740    -0.0079460
  C       -1.3683020    -0.3105490    -1.0112920
  C       -2.2166740     0.1783740     1.1559530
  C       -1.0996000    -0.8433070     1.3811970
  C       -3.6002280     0.9375310    -0.8724950
  C        0.9620280    -0.4146880    -0.0398380
  C        2.0893310    -1.1495780    -0.4236340
  C        3.3396130    -0.5322390    -0.4347340
  C        2.2533150     1.4653640     0.3147880
  C        3.4262710     0.8062240    -0.0568370
  H       -3.2284890    -1.0854330    -0.2500270
  H       -0.3333030    -2.0805640    -0.2540920
  H       -0.9618110     0.6780590    -1.2570810
  H       -1.4754410    -0.8694270    -1.9482280
  H       -3.0167220     0.1138590     1.9027270
  H       -1.8007770     1.1928100     1.1867420
  H       -0.3855780    -0.5294870     2.1482020
  H       -1.5277920    -1.8013410     1.6997400
  H       -3.8772320     0.6843320    -1.9011880
  H       -4.5228040     1.0497910    -0.2936460
  H       -3.0892320     1.9062640    -0.8879070
  H        1.9842510    -2.1936970    -0.7089060
  H        4.2276210    -1.0857940    -0.7310670
  H        2.2780980     2.5111560     0.6184940
  H        4.3773590     1.3311980    -0.0481150
units angstrom
no_reorient  #important for SAPT in psi4, default
symmetry c1  #important for SAPT in psi4, default
}

set PROPERTIES_ORIGIN ["COM"]
properties('MP2/aug-cc-pvtz', properties = ['dipole'])
--------------------------------------------------------------------------

    Molecular point group: c1
  Charge       = 0
  Multiplicity = 1
  Basis Set: AUG-CC-PVTZ
    Blend: AUG-CC-PVTZ
  Basis Set: (AUG-CC-PVTZ AUX)
    Blend: AUG-CC-PVTZ-JKFIT

    Orbital Energies [Eh]
    ---------------------

    Doubly Occupied:

       1A    -15.557595     2A    -11.274864     3A    -11.274003
       4A    -11.257572     5A    -11.235468     6A    -11.234644
       7A    -11.225162     8A    -11.214174     9A    -11.211852
      10A    -11.211477    11A    -11.204990    12A    -11.204775
      13A     -1.251388    14A     -1.120817    15A     -1.081407
      16A     -1.047060    17A     -0.994250    18A     -0.950841
      19A     -0.889144    20A     -0.854948    21A     -0.837141
      22A     -0.766309    23A     -0.761091    24A     -0.695918
      25A     -0.666326    26A     -0.639710    27A     -0.635932
      28A     -0.606716    29A     -0.588255    30A     -0.576682
      31A     -0.574238    32A     -0.552460    33A     -0.539528
      34A     -0.526242    35A     -0.515887    36A     -0.475831
      37A     -0.470248    38A     -0.467737    39A     -0.454056
      40A     -0.450481    41A     -0.416926    42A     -0.406370
      43A     -0.376583    44A     -0.331130

  @DF-RHF Final Energy:  -479.88657869884071

   => Energetics <=

    Nuclear Repulsion Energy =            684.5089269093729172
    One-Electron Energy =               -2007.5345522197994796
    Two-Electron Energy =                 843.1390466115859681
    Total Energy =                       -479.8865786988407081
  Basis Set: (AUG-CC-PVTZ AUX)
    Blend: AUG-CC-PVTZ-RI
    Molecular point group: c1

    Geometry (in Angstrom), charge = 0, multiplicity = 1:

       Center              X                  Y                   Z               Mass
    ------------   -----------------  -----------------  -----------------  -----------------
         N            0.980399301695     0.883523193365     0.318761664937    14.003074004430
         C           -2.854003198305    -0.138715006635    -0.232430635063    12.000000000000
         C           -0.479710698305    -1.014562806635    -0.015394335063    12.000000000000
         C           -1.430944698305    -0.310537806635    -1.018740335063    12.000000000000
         C           -2.279316698305     0.178385193365     1.148504664937    12.000000000000
         C           -1.162242698305    -0.843295806635     1.373748664937    12.000000000000
         C           -3.662870698305     0.937542193365    -0.879943335063    12.000000000000
         C            0.899385301695    -0.414676806635    -0.047286335063    12.000000000000
         C            2.026688301695    -1.149566806635    -0.431082335063    12.000000000000
         C            3.276970301695    -0.532227806635    -0.442182335063    12.000000000000
         C            2.190672301695     1.465375193365     0.307339664937    12.000000000000
         C            3.363628301695     0.806235193365    -0.064285335063    12.000000000000
         H           -3.291131698305    -1.085421806635    -0.257475335063     1.007825032230
         H           -0.395945698305    -2.080552806635    -0.261540335063     1.007825032230
         H           -1.024453698305     0.678070193365    -1.264529335063     1.007825032230
         H           -1.538083698305    -0.869415806635    -1.955676335063     1.007825032230
         H           -3.079364698305     0.113870193365     1.895278664937     1.007825032230
         H           -1.863419698305     1.192821193365     1.179293664937     1.007825032230
         H           -0.448220698305    -0.529475806635     2.140753664937     1.007825032230
         H           -1.590434698305    -1.801329806635     1.692291664937     1.007825032230
         H           -3.939874698305     0.684343193365    -1.908636335063     1.007825032230
         H           -4.585446698305     1.049802193365    -0.301094335063     1.007825032230
         H           -3.151874698305     1.906275193365    -0.895355335063     1.007825032230
         H            1.921608301695    -2.193685806635    -0.716354335063     1.007825032230
         H            4.164978301695    -1.085782806635    -0.738515335063     1.007825032230
         H            2.215455301695     2.511167193365     0.611045664937     1.007825032230
         H            4.314716301695     1.331209193365    -0.055563335063     1.007825032230

  Basis Set: AUG-CC-PVTZ
    Blend: AUG-CC-PVTZ
  Basis Set: (AUG-CC-PVTZ AUX)
    Blend: AUG-CC-PVTZ-JKFIT
	 Reference Energy          =    -479.8865786988407081 [Eh]
	 Singles Energy            =      -0.0000000000000000 [Eh]
	 Same-Spin Energy          =      -0.5328765713266477 [Eh]
	 Opposite-Spin Energy      =      -1.7461062574752608 [Eh]
	 Correlation Energy        =      -2.2789828288019085 [Eh]
	 Total Energy              =    -482.1655615276426374 [Eh]

	 ================> DF-SCS-MP2 Energies <==================
	-----------------------------------------------------------
	 SCS Same-Spin Scale       =       0.3333333333333333 [-]
	 SCS Opposite-Spin Scale   =       1.2000000000000000 [-]
	 SCS Same-Spin Energy      =      -0.1776255237755492 [Eh]
	 SCS Opposite-Spin Energy  =      -2.0953275089703127 [Eh]
	 SCS Correlation Energy    =      -2.2729530327458618 [Eh]
	 SCS Total Energy          =    -482.1595317315865827 [Eh]
	-----------------------------------------------------------

  Dipole Moment: [D]
     X:     1.2658      Y:    -1.0783      Z:    -0.4993     Total:     1.7362

*** Psi4 exiting successfully. Buy a developer a beer!
