                               Psi4 1.4a3.dev225

  ==> Input File <==

--------------------------------------------------------------------------
#psi4
#
memory 32 gb

molecule  {
0 1
  N        1.0430420     0.8835120     0.3262100
  C       -2.6935940    -0.1236090    -0.2650160
  C       -0.4170680    -1.0145740    -0.0079460
  C       -1.3683020    -0.3105490    -1.0112920
  C       -2.2166740     0.1783740     1.1559530
  C       -1.0996000    -0.8433070     1.3811970
  C       -3.6002280     0.9375310    -0.8724950
  C        0.9620280    -0.4146880    -0.0398380
  C        2.0893310    -1.1495780    -0.4236340
  C        3.3396130    -0.5322390    -0.4347340
  C        2.2533150     1.4653640     0.3147880
  C        3.4262710     0.8062240    -0.0568370
  H       -3.2284890    -1.0854330    -0.2500270
  H       -0.3333030    -2.0805640    -0.2540920
  H       -0.9618110     0.6780590    -1.2570810
  H       -1.4754410    -0.8694270    -1.9482280
  H       -3.0167220     0.1138590     1.9027270
  H       -1.8007770     1.1928100     1.1867420
  H       -0.3855780    -0.5294870     2.1482020
  H       -1.5277920    -1.8013410     1.6997400
  H       -3.8772320     0.6843320    -1.9011880
  H       -4.5228040     1.0497910    -0.2936460
  H       -3.0892320     1.9062640    -0.8879070
  H        1.9861835    -2.1744944    -0.7036595
  H        4.2276210    -1.0857940    -0.7310670
  H        2.2780980     2.5111560     0.6184940
  H        4.3773590     1.3311980    -0.0481150
units angstrom
no_reorient  #important for SAPT in psi4, default
symmetry c1  #important for SAPT in psi4, default
}

set PROPERTIES_ORIGIN ["COM"]
properties('MP2/aug-cc-pvtz', properties = ['dipole'])
--------------------------------------------------------------------------

    Molecular point group: c1
  Charge       = 0
  Multiplicity = 1
  Basis Set: AUG-CC-PVTZ
    Blend: AUG-CC-PVTZ
  Basis Set: (AUG-CC-PVTZ AUX)
    Blend: AUG-CC-PVTZ-JKFIT

    Orbital Energies [Eh]
    ---------------------

    Doubly Occupied:

       1A    -15.557831     2A    -11.275141     3A    -11.274263
       4A    -11.257750     5A    -11.235734     6A    -11.232761
       7A    -11.226169     8A    -11.214605     9A    -11.211406
      10A    -11.209720    11A    -11.205245    12A    -11.203711
      13A     -1.251744    14A     -1.127545    15A     -1.082034
      16A     -1.046710    17A     -0.991345    18A     -0.954861
      19A     -0.893799    20A     -0.856019    21A     -0.836886
      22A     -0.764380    23A     -0.755624    24A     -0.697703
      25A     -0.668179    26A     -0.642603    27A     -0.640064
      28A     -0.608516    29A     -0.585082    30A     -0.577764
      31A     -0.574120    32A     -0.551810    33A     -0.538237
      34A     -0.527372    35A     -0.511956    36A     -0.473275
      37A     -0.469002    38A     -0.461062    39A     -0.452710
      40A     -0.447030    41A     -0.439572    42A     -0.409946
      43A     -0.376860    44A     -0.332019

  @DF-RHF Final Energy:  -479.89676072381843

   => Energetics <=

    Nuclear Repulsion Energy =            685.9690980347967297
    One-Electron Energy =               -2010.4313862674623579
    Two-Electron Energy =                 844.5655275088472536
    Total Energy =                       -479.8967607238184883
  Basis Set: (AUG-CC-PVTZ AUX)
    Blend: AUG-CC-PVTZ-RI
    Molecular point group: c1

    Geometry (in Angstrom), charge = 0, multiplicity = 1:

       Center              X                  Y                   Z               Mass
    ------------   -----------------  -----------------  -----------------  -----------------
         N            0.973105717141     0.882277173623     0.321710495129    14.003074004430
         C           -2.763530282859    -0.124843826377    -0.269515504871    12.000000000000
         C           -0.487004282859    -1.015808826377    -0.012445504871    12.000000000000
         C           -1.438238282859    -0.311783826377    -1.015791504871    12.000000000000
         C           -2.286610282859     0.177139173623     1.151453495129    12.000000000000
         C           -1.169536282859    -0.844541826377     1.376697495129    12.000000000000
         C           -3.670164282859     0.936296173623    -0.876994504871    12.000000000000
         C            0.892091717141    -0.415922826377    -0.044337504871    12.000000000000
         C            2.019394717141    -1.150812826377    -0.428133504871    12.000000000000
         C            3.269676717141    -0.533473826377    -0.439233504871    12.000000000000
         C            2.183378717141     1.464129173623     0.310288495129    12.000000000000
         C            3.356334717141     0.804989173623    -0.061336504871    12.000000000000
         H           -3.298425282859    -1.086667826377    -0.254526504871     1.007825032230
         H           -0.403239282859    -2.081798826377    -0.258591504871     1.007825032230
         H           -1.031747282859     0.676824173623    -1.261580504871     1.007825032230
         H           -1.545377282859    -0.870661826377    -1.952727504871     1.007825032230
         H           -3.086658282859     0.112624173623     1.898227495129     1.007825032230
         H           -1.870713282859     1.191575173623     1.182242495129     1.007825032230
         H           -0.455514282859    -0.530721826377     2.143702495129     1.007825032230
         H           -1.597728282859    -1.802575826377     1.695240495129     1.007825032230
         H           -3.947168282859     0.683097173623    -1.905687504871     1.007825032230
         H           -4.592740282859     1.048556173623    -0.298145504871     1.007825032230
         H           -3.159168282859     1.905029173623    -0.892406504871     1.007825032230
         H            1.916247217141    -2.175729226377    -0.708159004871     1.007825032230
         H            4.157684717141    -1.087028826377    -0.735566504871     1.007825032230
         H            2.208161717141     2.509921173623     0.613994495129     1.007825032230
         H            4.307422717141     1.329963173623    -0.052614504871     1.007825032230

  Basis Set: AUG-CC-PVTZ
    Blend: AUG-CC-PVTZ
  Basis Set: (AUG-CC-PVTZ AUX)
    Blend: AUG-CC-PVTZ-JKFIT
	 Reference Energy          =    -479.8967607238184314 [Eh]
	 Singles Energy            =      -0.0000000000000000 [Eh]
	 Same-Spin Energy          =      -0.5327406580763454 [Eh]
	 Opposite-Spin Energy      =      -1.7453927444940689 [Eh]
	 Correlation Energy        =      -2.2781334025704143 [Eh]
	 Total Energy              =    -482.1748941263888355 [Eh]

	 ================> DF-SCS-MP2 Energies <==================
	-----------------------------------------------------------
	 SCS Same-Spin Scale       =       0.3333333333333333 [-]
	 SCS Opposite-Spin Scale   =       1.2000000000000000 [-]
	 SCS Same-Spin Energy      =      -0.1775802193587818 [Eh]
	 SCS Opposite-Spin Energy  =      -2.0944712933928824 [Eh]
	 SCS Correlation Energy    =      -2.2720515127516641 [Eh]
	 SCS Total Energy          =    -482.1688122365700906 [Eh]
	-----------------------------------------------------------

  Dipole Moment: [D]
     X:     1.3293      Y:    -1.0763      Z:    -0.4964     Total:     1.7810

*** Psi4 exiting successfully. Buy a developer a beer!
