                               Psi4 1.4a3.dev225

  ==> Input File <==

--------------------------------------------------------------------------
#psi4
#
memory 32 gb

molecule  {
0 1
  N        1.0430420     0.8835120     0.3262100
  C       -2.6935940    -0.1236090    -0.2650160
  C       -0.4170680    -1.0145740    -0.0079460
  C       -1.3400130    -0.1735335    -0.9288282
  C       -2.2166740     0.1783740     1.1559530
  C       -1.0996000    -0.8433070     1.3811970
  C       -3.6002280     0.9375310    -0.8724950
  C        0.9620280    -0.4146880    -0.0398380
  C        2.0893310    -1.1495780    -0.4236340
  C        3.3396130    -0.5322390    -0.4347340
  C        2.2533150     1.4653640     0.3147880
  C        3.4262710     0.8062240    -0.0568370
  H       -3.2284890    -1.0854330    -0.2500270
  H       -0.3333030    -2.0805640    -0.2540920
  H       -0.9618110     0.6780590    -1.2570810
  H       -1.4754410    -0.8694270    -1.9482280
  H       -3.0167220     0.1138590     1.9027270
  H       -1.8007770     1.1928100     1.1867420
  H       -0.3855780    -0.5294870     2.1482020
  H       -1.5277920    -1.8013410     1.6997400
  H       -3.8772320     0.6843320    -1.9011880
  H       -4.5228040     1.0497910    -0.2936460
  H       -3.0892320     1.9062640    -0.8879070
  H        1.9842510    -2.1936970    -0.7089060
  H        4.2276210    -1.0857940    -0.7310670
  H        2.2780980     2.5111560     0.6184940
  H        4.3773590     1.3311980    -0.0481150
units angstrom
no_reorient  #important for SAPT in psi4, default
symmetry c1  #important for SAPT in psi4, default
}

set PROPERTIES_ORIGIN ["COM"]
properties('MP2/aug-cc-pvtz', properties = ['dipole'])
--------------------------------------------------------------------------

    Molecular point group: c1
  Charge       = 0
  Multiplicity = 1
  Basis Set: AUG-CC-PVTZ
    Blend: AUG-CC-PVTZ
  Basis Set: (AUG-CC-PVTZ AUX)
    Blend: AUG-CC-PVTZ-JKFIT

    Orbital Energies [Eh]
    ---------------------

    Doubly Occupied:

       1A    -15.558413     2A    -11.275616     3A    -11.275028
       4A    -11.258387     5A    -11.236077     6A    -11.235239
       7A    -11.227927     8A    -11.215329     9A    -11.213863
      10A    -11.211268    11A    -11.205892    12A    -11.203832
      13A     -1.252841    14A     -1.134062    15A     -1.082314
      16A     -1.048484    17A     -0.992996    18A     -0.953561
      19A     -0.896516    20A     -0.856016    21A     -0.836583
      22A     -0.768121    23A     -0.763303    24A     -0.696906
      25A     -0.666055    26A     -0.642758    27A     -0.637767
      28A     -0.611465    29A     -0.589990    30A     -0.582507
      31A     -0.574481    32A     -0.549706    33A     -0.537975
      34A     -0.530550    35A     -0.515799    36A     -0.478550
      37A     -0.469435    38A     -0.461995    39A     -0.455198
      40A     -0.447509    41A     -0.420320    42A     -0.409881
      43A     -0.377313    44A     -0.331585

  @DF-RHF Final Energy:  -479.86783337599422

   => Energetics <=

    Nuclear Repulsion Energy =            687.3502540780913250
    One-Electron Energy =               -2013.0573478701173826
    Two-Electron Energy =                 845.8392604160319479
    Total Energy =                       -479.8678333759942234
  Basis Set: (AUG-CC-PVTZ AUX)
    Blend: AUG-CC-PVTZ-RI
    Molecular point group: c1

    Geometry (in Angstrom), charge = 0, multiplicity = 1:

       Center              X                  Y                   Z               Mass
    ------------   -----------------  -----------------  -----------------  -----------------
         N            0.971010884491     0.872192586941     0.315601537209    14.003074004430
         C           -2.765625115509    -0.134928413059    -0.275624462791    12.000000000000
         C           -0.489099115509    -1.025893413059    -0.018554462791    12.000000000000
         C           -1.412044115509    -0.184852913059    -0.939436662791    12.000000000000
         C           -2.288705115509     0.167054586941     1.145344537209    12.000000000000
         C           -1.171631115509    -0.854626413059     1.370588537209    12.000000000000
         C           -3.672259115509     0.926211586941    -0.883103462791    12.000000000000
         C            0.889996884491    -0.426007413059    -0.050446462791    12.000000000000
         C            2.017299884491    -1.160897413059    -0.434242462791    12.000000000000
         C            3.267581884491    -0.543558413059    -0.445342462791    12.000000000000
         C            2.181283884491     1.454044586941     0.304179537209    12.000000000000
         C            3.354239884491     0.794904586941    -0.067445462791    12.000000000000
         H           -3.300520115509    -1.096752413059    -0.260635462791     1.007825032230
         H           -0.405334115509    -2.091883413059    -0.264700462791     1.007825032230
         H           -1.033842115509     0.666739586941    -1.267689462791     1.007825032230
         H           -1.547472115509    -0.880746413059    -1.958836462791     1.007825032230
         H           -3.088753115509     0.102539586941     1.892118537209     1.007825032230
         H           -1.872808115509     1.181490586941     1.176133537209     1.007825032230
         H           -0.457609115509    -0.540806413059     2.137593537209     1.007825032230
         H           -1.599823115509    -1.812660413059     1.689131537209     1.007825032230
         H           -3.949263115509     0.673012586941    -1.911796462791     1.007825032230
         H           -4.594835115509     1.038471586941    -0.304254462791     1.007825032230
         H           -3.161263115509     1.894944586941    -0.898515462791     1.007825032230
         H            1.912219884491    -2.205016413059    -0.719514462791     1.007825032230
         H            4.155589884491    -1.097113413059    -0.741675462791     1.007825032230
         H            2.206066884491     2.499836586941     0.607885537209     1.007825032230
         H            4.305327884491     1.319878586941    -0.058723462791     1.007825032230

  Basis Set: AUG-CC-PVTZ
    Blend: AUG-CC-PVTZ
  Basis Set: (AUG-CC-PVTZ AUX)
    Blend: AUG-CC-PVTZ-JKFIT
	 Reference Energy          =    -479.8678333759942234 [Eh]
	 Singles Energy            =      -0.0000000000000000 [Eh]
	 Same-Spin Energy          =      -0.5335444105210390 [Eh]
	 Opposite-Spin Energy      =      -1.7471138752022588 [Eh]
	 Correlation Energy        =      -2.2806582857232978 [Eh]
	 Total Energy              =    -482.1484916617175145 [Eh]

	 ================> DF-SCS-MP2 Energies <==================
	-----------------------------------------------------------
	 SCS Same-Spin Scale       =       0.3333333333333333 [-]
	 SCS Opposite-Spin Scale   =       1.2000000000000000 [-]
	 SCS Same-Spin Energy      =      -0.1778481368403463 [Eh]
	 SCS Opposite-Spin Energy  =      -2.0965366502427103 [Eh]
	 SCS Correlation Energy    =      -2.2743847870830565 [Eh]
	 SCS Total Energy          =    -482.1422181630773025 [Eh]
	-----------------------------------------------------------

  Dipole Moment: [D]
     X:     1.3297      Y:    -0.9974      Z:    -0.3916     Total:     1.7077

*** Psi4 exiting successfully. Buy a developer a beer!
