                               Psi4 1.4a3.dev225

  ==> Input File <==

--------------------------------------------------------------------------
#psi4
#
memory 32 gb

molecule  {
0 1
  N        1.0430420     0.8835120     0.3262100
  C       -2.7061482    -0.1370736    -0.2844171
  C       -0.4170680    -1.0145740    -0.0079460
  C       -1.3683020    -0.3105490    -1.0112920
  C       -2.2166740     0.1783740     1.1559530
  C       -1.0996000    -0.8433070     1.3811970
  C       -3.6002280     0.9375310    -0.8724950
  C        0.9620280    -0.4146880    -0.0398380
  C        2.0893310    -1.1495780    -0.4236340
  C        3.3396130    -0.5322390    -0.4347340
  C        2.2533150     1.4653640     0.3147880
  C        3.4262710     0.8062240    -0.0568370
  H       -3.2284890    -1.0854330    -0.2500270
  H       -0.3333030    -2.0805640    -0.2540920
  H       -0.9618110     0.6780590    -1.2570810
  H       -1.4754410    -0.8694270    -1.9482280
  H       -3.0167220     0.1138590     1.9027270
  H       -1.8007770     1.1928100     1.1867420
  H       -0.3855780    -0.5294870     2.1482020
  H       -1.5277920    -1.8013410     1.6997400
  H       -3.8772320     0.6843320    -1.9011880
  H       -4.5228040     1.0497910    -0.2936460
  H       -3.0892320     1.9062640    -0.8879070
  H        1.9842510    -2.1936970    -0.7089060
  H        4.2276210    -1.0857940    -0.7310670
  H        2.2780980     2.5111560     0.6184940
  H        4.3773590     1.3311980    -0.0481150
units angstrom
no_reorient  #important for SAPT in psi4, default
symmetry c1  #important for SAPT in psi4, default
}

set PROPERTIES_ORIGIN ["COM"]
properties('MP2/aug-cc-pvtz', properties = ['dipole'])
--------------------------------------------------------------------------

    Molecular point group: c1
  Charge       = 0
  Multiplicity = 1
  Basis Set: AUG-CC-PVTZ
    Blend: AUG-CC-PVTZ
  Basis Set: (AUG-CC-PVTZ AUX)
    Blend: AUG-CC-PVTZ-JKFIT

    Orbital Energies [Eh]
    ---------------------

    Doubly Occupied:

       1A    -15.558048     2A    -11.275353     3A    -11.274361
       4A    -11.257952     5A    -11.235922     6A    -11.235148
       7A    -11.226149     8A    -11.213989     9A    -11.211087
      10A    -11.209777    11A    -11.205043    12A    -11.204286
      13A     -1.251879    14A     -1.125698    15A     -1.081855
      16A     -1.046107    17A     -0.991956    18A     -0.953602
      19A     -0.893455    20A     -0.855135    21A     -0.835763
      22A     -0.764222    23A     -0.757854    24A     -0.696802
      25A     -0.667720    26A     -0.640588    27A     -0.639281
      28A     -0.607367    29A     -0.585383    30A     -0.577553
      31A     -0.573749    32A     -0.551862    33A     -0.538278
      34A     -0.527343    35A     -0.512404    36A     -0.472125
      37A     -0.468756    38A     -0.463711    39A     -0.452771
      40A     -0.450463    41A     -0.432528    42A     -0.410009
      43A     -0.377022    44A     -0.332219

  @DF-RHF Final Energy:  -479.89608745020871

   => Energetics <=

    Nuclear Repulsion Energy =            685.5647092583431004
    One-Electron Energy =               -2009.6364398392261137
    Two-Electron Energy =                 844.1756431306743025
    Total Energy =                       -479.8960874502087108
  Basis Set: (AUG-CC-PVTZ AUX)
    Blend: AUG-CC-PVTZ-RI
    Molecular point group: c1

    Geometry (in Angstrom), charge = 0, multiplicity = 1:

       Center              X                  Y                   Z               Mass
    ------------   -----------------  -----------------  -----------------  -----------------
         N            0.974052822380     0.883400110292     0.323188276223    14.003074004430
         C           -2.775137377620    -0.137185489708    -0.287438823777    12.000000000000
         C           -0.486057177620    -1.014685889708    -0.010967723777    12.000000000000
         C           -1.437291177620    -0.310660889708    -1.014313723777    12.000000000000
         C           -2.285663177620     0.178262110292     1.152931276223    12.000000000000
         C           -1.168589177620    -0.843418889708     1.378175276223    12.000000000000
         C           -3.669217177620     0.937419110292    -0.875516723777    12.000000000000
         C            0.893038822380    -0.414799889708    -0.042859723777    12.000000000000
         C            2.020341822380    -1.149689889708    -0.426655723777    12.000000000000
         C            3.270623822380    -0.532350889708    -0.437755723777    12.000000000000
         C            2.184325822380     1.465252110292     0.311766276223    12.000000000000
         C            3.357281822380     0.806112110292    -0.059858723777    12.000000000000
         H           -3.297478177620    -1.085544889708    -0.253048723777     1.007825032230
         H           -0.402292177620    -2.080675889708    -0.257113723777     1.007825032230
         H           -1.030800177620     0.677947110292    -1.260102723777     1.007825032230
         H           -1.544430177620    -0.869538889708    -1.951249723777     1.007825032230
         H           -3.085711177620     0.113747110292     1.899705276223     1.007825032230
         H           -1.869766177620     1.192698110292     1.183720276223     1.007825032230
         H           -0.454567177620    -0.529598889708     2.145180276223     1.007825032230
         H           -1.596781177620    -1.801452889708     1.696718276223     1.007825032230
         H           -3.946221177620     0.684220110292    -1.904209723777     1.007825032230
         H           -4.591793177620     1.049679110292    -0.296667723777     1.007825032230
         H           -3.158221177620     1.906152110292    -0.890928723777     1.007825032230
         H            1.915261822380    -2.193808889708    -0.711927723777     1.007825032230
         H            4.158631822380    -1.085905889708    -0.734088723777     1.007825032230
         H            2.209108822380     2.511044110292     0.615472276223     1.007825032230
         H            4.308369822380     1.331086110292    -0.051136723777     1.007825032230

  Basis Set: AUG-CC-PVTZ
    Blend: AUG-CC-PVTZ
  Basis Set: (AUG-CC-PVTZ AUX)
    Blend: AUG-CC-PVTZ-JKFIT
	 Reference Energy          =    -479.8960874502087108 [Eh]
	 Singles Energy            =      -0.0000000000000000 [Eh]
	 Same-Spin Energy          =      -0.5327069867871993 [Eh]
	 Opposite-Spin Energy      =      -1.7455107605333420 [Eh]
	 Correlation Energy        =      -2.2782177473205412 [Eh]
	 Total Energy              =    -482.1743051975292360 [Eh]

	 ================> DF-SCS-MP2 Energies <==================
	-----------------------------------------------------------
	 SCS Same-Spin Scale       =       0.3333333333333333 [-]
	 SCS Opposite-Spin Scale   =       1.2000000000000000 [-]
	 SCS Same-Spin Energy      =      -0.1775689955957331 [Eh]
	 SCS Opposite-Spin Energy  =      -2.0946129126400104 [Eh]
	 SCS Correlation Energy    =      -2.2721819082357433 [Eh]
	 SCS Total Energy          =    -482.1682693584444337 [Eh]
	-----------------------------------------------------------

  Dipole Moment: [D]
     X:     1.3260      Y:    -1.0743      Z:    -0.4997     Total:     1.7783

*** Psi4 exiting successfully. Buy a developer a beer!
