                               Psi4 1.4a3.dev225

  ==> Input File <==

--------------------------------------------------------------------------
#psi4
#
memory 32 gb

molecule  {
0 1
  N        1.0430420     0.8835120     0.3262100
  C       -2.6935940    -0.1236090    -0.2650160
  C       -0.4170680    -1.0145740    -0.0079460
  C       -1.3683020    -0.3105490    -1.0112920
  C       -2.2166740     0.1783740     1.1559530
  C       -1.0996000    -0.8433070     1.3811970
  C       -3.6002280     0.9375310    -0.8724950
  C        0.9620280    -0.4146880    -0.0398380
  C        2.0893310    -1.1495780    -0.4236340
  C        3.4292756    -0.4879672    -0.4355300
  C        2.2533150     1.4653640     0.3147880
  C        3.4262710     0.8062240    -0.0568370
  H       -3.2284890    -1.0854330    -0.2500270
  H       -0.3333030    -2.0805640    -0.2540920
  H       -0.9618110     0.6780590    -1.2570810
  H       -1.4754410    -0.8694270    -1.9482280
  H       -3.0167220     0.1138590     1.9027270
  H       -1.8007770     1.1928100     1.1867420
  H       -0.3855780    -0.5294870     2.1482020
  H       -1.5277920    -1.8013410     1.6997400
  H       -3.8772320     0.6843320    -1.9011880
  H       -4.5228040     1.0497910    -0.2936460
  H       -3.0892320     1.9062640    -0.8879070
  H        1.9842510    -2.1936970    -0.7089060
  H        4.2276210    -1.0857940    -0.7310670
  H        2.2780980     2.5111560     0.6184940
  H        4.3773590     1.3311980    -0.0481150
units angstrom
no_reorient  #important for SAPT in psi4, default
symmetry c1  #important for SAPT in psi4, default
}

set PROPERTIES_ORIGIN ["COM"]
properties('MP2/aug-cc-pvtz', properties = ['dipole'])
--------------------------------------------------------------------------

    Molecular point group: c1
  Charge       = 0
  Multiplicity = 1
  Basis Set: AUG-CC-PVTZ
    Blend: AUG-CC-PVTZ
  Basis Set: (AUG-CC-PVTZ AUX)
    Blend: AUG-CC-PVTZ-JKFIT

    Orbital Energies [Eh]
    ---------------------

    Doubly Occupied:

       1A    -15.560459     2A    -11.278455     3A    -11.271787
       4A    -11.259708     5A    -11.242166     6A    -11.234702
       7A    -11.224717     8A    -11.213792     9A    -11.210258
      10A    -11.208521    11A    -11.204670    12A    -11.203002
      13A     -1.251163    14A     -1.126894    15A     -1.081090
      16A     -1.043413    17A     -0.989158    18A     -0.952387
      19A     -0.891351    20A     -0.864370    21A     -0.832499
      22A     -0.765882    23A     -0.754928    24A     -0.699291
      25A     -0.665702    26A     -0.643827    27A     -0.637868
      28A     -0.609188    29A     -0.594391    30A     -0.578278
      31A     -0.569004    32A     -0.552428    33A     -0.535476
      34A     -0.523408    35A     -0.507956    36A     -0.471143
      37A     -0.468288    38A     -0.460544    39A     -0.451613
      40A     -0.445800    41A     -0.438921    42A     -0.411390
      43A     -0.374821    44A     -0.330886

  @DF-RHF Final Energy:  -479.88447521272701

   => Energetics <=

    Nuclear Repulsion Energy =            684.6234351734733536
    One-Electron Energy =               -2007.7446314184282983
    Two-Electron Energy =                 843.2367210322279334
    Total Energy =                       -479.8844752127270112
  Basis Set: (AUG-CC-PVTZ AUX)
    Blend: AUG-CC-PVTZ-RI
    Molecular point group: c1

    Geometry (in Angstrom), charge = 0, multiplicity = 1:

       Center              X                  Y                   Z               Mass
    ------------   -----------------  -----------------  -----------------  -----------------
         N            0.966439874403     0.879099993192     0.321802597367    14.003074004430
         C           -2.770196125597    -0.128021006808    -0.269423402633    12.000000000000
         C           -0.493670125597    -1.018986006808    -0.012353402633    12.000000000000
         C           -1.444904125597    -0.314961006808    -1.015699402633    12.000000000000
         C           -2.293276125597     0.173961993192     1.151545597367    12.000000000000
         C           -1.176202125597    -0.847719006808     1.376789597367    12.000000000000
         C           -3.676830125597     0.933118993192    -0.876902402633    12.000000000000
         C            0.885425874403    -0.419100006808    -0.044245402633    12.000000000000
         C            2.012728874403    -1.153990006808    -0.428041402633    12.000000000000
         C            3.352673474403    -0.492379206808    -0.439937402633    12.000000000000
         C            2.176712874403     1.460951993192     0.310380597367    12.000000000000
         C            3.349668874403     0.801811993192    -0.061244402633    12.000000000000
         H           -3.305091125597    -1.089845006808    -0.254434402633     1.007825032230
         H           -0.409905125597    -2.084976006808    -0.258499402633     1.007825032230
         H           -1.038413125597     0.673646993192    -1.261488402633     1.007825032230
         H           -1.552043125597    -0.873839006808    -1.952635402633     1.007825032230
         H           -3.093324125597     0.109446993192     1.898319597367     1.007825032230
         H           -1.877379125597     1.188397993192     1.182334597367     1.007825032230
         H           -0.462180125597    -0.533899006808     2.143794597367     1.007825032230
         H           -1.604394125597    -1.805753006808     1.695332597367     1.007825032230
         H           -3.953834125597     0.679919993192    -1.905595402633     1.007825032230
         H           -4.599406125597     1.045378993192    -0.298053402633     1.007825032230
         H           -3.165834125597     1.901851993192    -0.892314402633     1.007825032230
         H            1.907648874403    -2.198109006808    -0.713313402633     1.007825032230
         H            4.151018874403    -1.090206006808    -0.735474402633     1.007825032230
         H            2.201495874403     2.506743993192     0.614086597367     1.007825032230
         H            4.300756874403     1.326785993192    -0.052522402633     1.007825032230

  Basis Set: AUG-CC-PVTZ
    Blend: AUG-CC-PVTZ
  Basis Set: (AUG-CC-PVTZ AUX)
    Blend: AUG-CC-PVTZ-JKFIT
	 Reference Energy          =    -479.8844752127270112 [Eh]
	 Singles Energy            =      -0.0000000000000000 [Eh]
	 Same-Spin Energy          =      -0.5327587488543507 [Eh]
	 Opposite-Spin Energy      =      -1.7466024393553901 [Eh]
	 Correlation Energy        =      -2.2793611882097409 [Eh]
	 Total Energy              =    -482.1638364009367592 [Eh]

	 ================> DF-SCS-MP2 Energies <==================
	-----------------------------------------------------------
	 SCS Same-Spin Scale       =       0.3333333333333333 [-]
	 SCS Opposite-Spin Scale   =       1.2000000000000000 [-]
	 SCS Same-Spin Energy      =      -0.1775862496181169 [Eh]
	 SCS Opposite-Spin Energy  =      -2.0959229272264679 [Eh]
	 SCS Correlation Energy    =      -2.2735091768445850 [Eh]
	 SCS Total Energy          =    -482.1579843895715953 [Eh]
	-----------------------------------------------------------

  Dipole Moment: [D]
     X:     1.3877      Y:    -1.0569      Z:    -0.4975     Total:     1.8139

*** Psi4 exiting successfully. Buy a developer a beer!
