                               Psi4 1.4a3.dev225

  ==> Input File <==

--------------------------------------------------------------------------
#psi4
#
memory 32 gb

molecule  {
0 1
  N        1.0430420     0.8835120     0.3262100
  C       -2.6935940    -0.1236090    -0.2650160
  C       -0.4170680    -1.0145740    -0.0079460
  C       -1.3683020    -0.3105490    -1.0112920
  C       -2.2166740     0.1783740     1.1559530
  C       -1.0996000    -0.8433070     1.3811970
  C       -3.6002280     0.9375310    -0.8724950
  C        0.8690942    -0.4097823    -0.0245172
  C        2.0893310    -1.1495780    -0.4236340
  C        3.3396130    -0.5322390    -0.4347340
  C        2.2533150     1.4653640     0.3147880
  C        3.4262710     0.8062240    -0.0568370
  H       -3.2284890    -1.0854330    -0.2500270
  H       -0.3333030    -2.0805640    -0.2540920
  H       -0.9618110     0.6780590    -1.2570810
  H       -1.4754410    -0.8694270    -1.9482280
  H       -3.0167220     0.1138590     1.9027270
  H       -1.8007770     1.1928100     1.1867420
  H       -0.3855780    -0.5294870     2.1482020
  H       -1.5277920    -1.8013410     1.6997400
  H       -3.8772320     0.6843320    -1.9011880
  H       -4.5228040     1.0497910    -0.2936460
  H       -3.0892320     1.9062640    -0.8879070
  H        1.9842510    -2.1936970    -0.7089060
  H        4.2276210    -1.0857940    -0.7310670
  H        2.2780980     2.5111560     0.6184940
  H        4.3773590     1.3311980    -0.0481150
units angstrom
no_reorient  #important for SAPT in psi4, default
symmetry c1  #important for SAPT in psi4, default
}

set PROPERTIES_ORIGIN ["COM"]
properties('MP2/aug-cc-pvtz', properties = ['dipole'])
--------------------------------------------------------------------------

    Molecular point group: c1
  Charge       = 0
  Multiplicity = 1
  Basis Set: AUG-CC-PVTZ
    Blend: AUG-CC-PVTZ
  Basis Set: (AUG-CC-PVTZ AUX)
    Blend: AUG-CC-PVTZ-JKFIT

    Orbital Energies [Eh]
    ---------------------

    Doubly Occupied:

       1A    -15.554748     2A    -11.283580     3A    -11.271982
       4A    -11.254244     5A    -11.240829     6A    -11.233467
       7A    -11.225182     8A    -11.217340     9A    -11.215452
      10A    -11.213998    11A    -11.207208    12A    -11.206407
      13A     -1.246606    14A     -1.135237    15A     -1.076621
      16A     -1.049319    17A     -0.990382    18A     -0.959051
      19A     -0.900250    20A     -0.848117    21A     -0.837905
      22A     -0.767558    23A     -0.759158    24A     -0.696098
      25A     -0.668652    26A     -0.645237    27A     -0.638947
      28A     -0.602899    29A     -0.589677    30A     -0.581828
      31A     -0.572224    32A     -0.553059    33A     -0.535090
      34A     -0.527062    35A     -0.517938    36A     -0.480120
      37A     -0.473177    38A     -0.464445    39A     -0.460601
      40A     -0.449879    41A     -0.442437    42A     -0.396564
      43A     -0.375491    44A     -0.320024

  @DF-RHF Final Energy:  -479.88296160634837

   => Energetics <=

    Nuclear Repulsion Energy =            686.1742583551521193
    One-Electron Energy =               -2010.7422590965534255
    Two-Electron Energy =                 844.6850391350528753
    Total Energy =                       -479.8829616063483172
  Basis Set: (AUG-CC-PVTZ AUX)
    Blend: AUG-CC-PVTZ-RI
    Molecular point group: c1

    Geometry (in Angstrom), charge = 0, multiplicity = 1:

       Center              X                  Y                   Z               Mass
    ------------   -----------------  -----------------  -----------------  -----------------
         N            0.980039369730     0.882031918975     0.320602243219    14.003074004430
         C           -2.756596630270    -0.125089081025    -0.270623756781    12.000000000000
         C           -0.480070630270    -1.016054081025    -0.013553756781    12.000000000000
         C           -1.431304630270    -0.312029081025    -1.016899756781    12.000000000000
         C           -2.279676630270     0.176893918975     1.150345243219    12.000000000000
         C           -1.162602630270    -0.844787081025     1.375589243219    12.000000000000
         C           -3.663230630270     0.936050918975    -0.878102756781    12.000000000000
         C            0.806091569730    -0.411262381025    -0.030124956781    12.000000000000
         C            2.026328369730    -1.151058081025    -0.429241756781    12.000000000000
         C            3.276610369730    -0.533719081025    -0.440341756781    12.000000000000
         C            2.190312369730     1.463883918975     0.309180243219    12.000000000000
         C            3.363268369730     0.804743918975    -0.062444756781    12.000000000000
         H           -3.291491630270    -1.086913081025    -0.255634756781     1.007825032230
         H           -0.396305630270    -2.082044081025    -0.259699756781     1.007825032230
         H           -1.024813630270     0.676578918975    -1.262688756781     1.007825032230
         H           -1.538443630270    -0.870907081025    -1.953835756781     1.007825032230
         H           -3.079724630270     0.112378918975     1.897119243219     1.007825032230
         H           -1.863779630270     1.191329918975     1.181134243219     1.007825032230
         H           -0.448580630270    -0.530967081025     2.142594243219     1.007825032230
         H           -1.590794630270    -1.802821081025     1.694132243219     1.007825032230
         H           -3.940234630270     0.682851918975    -1.906795756781     1.007825032230
         H           -4.585806630270     1.048310918975    -0.299253756781     1.007825032230
         H           -3.152234630270     1.904783918975    -0.893514756781     1.007825032230
         H            1.921248369730    -2.195177081025    -0.714513756781     1.007825032230
         H            4.164618369730    -1.087274081025    -0.736674756781     1.007825032230
         H            2.215095369730     2.509675918975     0.612886243219     1.007825032230
         H            4.314356369730     1.329717918975    -0.053722756781     1.007825032230

  Basis Set: AUG-CC-PVTZ
    Blend: AUG-CC-PVTZ
  Basis Set: (AUG-CC-PVTZ AUX)
    Blend: AUG-CC-PVTZ-JKFIT
	 Reference Energy          =    -479.8829616063483741 [Eh]
	 Singles Energy            =      -0.0000000000000000 [Eh]
	 Same-Spin Energy          =      -0.5341467978631855 [Eh]
	 Opposite-Spin Energy      =      -1.7474341804225566 [Eh]
	 Correlation Energy        =      -2.2815809782857421 [Eh]
	 Total Energy              =    -482.1645425846340913 [Eh]

	 ================> DF-SCS-MP2 Energies <==================
	-----------------------------------------------------------
	 SCS Same-Spin Scale       =       0.3333333333333333 [-]
	 SCS Opposite-Spin Scale   =       1.2000000000000000 [-]
	 SCS Same-Spin Energy      =      -0.1780489326210618 [Eh]
	 SCS Opposite-Spin Energy  =      -2.0969210165070677 [Eh]
	 SCS Correlation Energy    =      -2.2749699491281294 [Eh]
	 SCS Total Energy          =    -482.1579315554765230 [Eh]
	-----------------------------------------------------------

  Dipole Moment: [D]
     X:     0.9375      Y:    -1.1568      Z:    -0.4765     Total:     1.5634

*** Psi4 exiting successfully. Buy a developer a beer!
