                               Psi4 1.4a3.dev225

  ==> Input File <==

--------------------------------------------------------------------------
#psi4
#
memory 32 gb

molecule  {
0 1
  N        1.0430420     0.8835120     0.3262100
  C       -2.6935940    -0.1236090    -0.2650160
  C       -0.4170680    -1.0145740    -0.0079460
  C       -1.3683020    -0.3105490    -1.0112920
  C       -2.2166740     0.1783740     1.1559530
  C       -1.0996000    -0.8433070     1.3811970
  C       -3.6121403     0.9514734    -0.8804767
  C        0.9620280    -0.4146880    -0.0398380
  C        2.0893310    -1.1495780    -0.4236340
  C        3.3396130    -0.5322390    -0.4347340
  C        2.2533150     1.4653640     0.3147880
  C        3.4262710     0.8062240    -0.0568370
  H       -3.2284890    -1.0854330    -0.2500270
  H       -0.3333030    -2.0805640    -0.2540920
  H       -0.9618110     0.6780590    -1.2570810
  H       -1.4754410    -0.8694270    -1.9482280
  H       -3.0167220     0.1138590     1.9027270
  H       -1.8007770     1.1928100     1.1867420
  H       -0.3855780    -0.5294870     2.1482020
  H       -1.5277920    -1.8013410     1.6997400
  H       -3.8772320     0.6843320    -1.9011880
  H       -4.5228040     1.0497910    -0.2936460
  H       -3.0892320     1.9062640    -0.8879070
  H        1.9842510    -2.1936970    -0.7089060
  H        4.2276210    -1.0857940    -0.7310670
  H        2.2780980     2.5111560     0.6184940
  H        4.3773590     1.3311980    -0.0481150
units angstrom
no_reorient  #important for SAPT in psi4, default
symmetry c1  #important for SAPT in psi4, default
}

set PROPERTIES_ORIGIN ["COM"]
properties('MP2/aug-cc-pvtz', properties = ['dipole'])
--------------------------------------------------------------------------

    Molecular point group: c1
  Charge       = 0
  Multiplicity = 1
  Basis Set: AUG-CC-PVTZ
    Blend: AUG-CC-PVTZ
  Basis Set: (AUG-CC-PVTZ AUX)
    Blend: AUG-CC-PVTZ-JKFIT

    Orbital Energies [Eh]
    ---------------------

    Doubly Occupied:

       1A    -15.557988     2A    -11.275308     3A    -11.274339
       4A    -11.257926     5A    -11.235864     6A    -11.235088
       7A    -11.226107     8A    -11.215464     9A    -11.211366
      10A    -11.209640    11A    -11.204350    12A    -11.203642
      13A     -1.251849    14A     -1.126761    15A     -1.081818
      16A     -1.045666    17A     -0.989796    18A     -0.954646
      19A     -0.894690    20A     -0.855213    21A     -0.836816
      22A     -0.764226    23A     -0.755195    24A     -0.696694
      25A     -0.668035    26A     -0.640474    27A     -0.639700
      28A     -0.607020    29A     -0.584932    30A     -0.577580
      31A     -0.573945    32A     -0.553636    33A     -0.537815
      34A     -0.527617    35A     -0.513661    36A     -0.473080
      37A     -0.468857    38A     -0.456821    39A     -0.452647
      40A     -0.447767    41A     -0.440769    42A     -0.409937
      43A     -0.376969    44A     -0.332079

  @DF-RHF Final Energy:  -479.89643530412991

   => Energetics <=

    Nuclear Repulsion Energy =            685.5145651587920383
    One-Electron Energy =               -2009.5344168574329160
    Two-Electron Energy =                 844.1234163945109685
    Total Energy =                       -479.8964353041299091
  Basis Set: (AUG-CC-PVTZ AUX)
    Blend: AUG-CC-PVTZ-RI
    Molecular point group: c1

    Geometry (in Angstrom), charge = 0, multiplicity = 1:

       Center              X                  Y                   Z               Mass
    ------------   -----------------  -----------------  -----------------  -----------------
         N            0.974005014668     0.881358879641     0.322337777106    14.003074004430
         C           -2.762630985332    -0.125762120359    -0.268888222894    12.000000000000
         C           -0.486104985332    -1.016727120359    -0.011818222894    12.000000000000
         C           -1.437338985332    -0.312702120359    -1.015164222894    12.000000000000
         C           -2.285710985332     0.176220879641     1.152080777106    12.000000000000
         C           -1.168636985332    -0.845460120359     1.377324777106    12.000000000000
         C           -3.681177285332     0.949320279641    -0.884348922894    12.000000000000
         C            0.892991014668    -0.416841120359    -0.043710222894    12.000000000000
         C            2.020294014668    -1.151731120359    -0.427506222894    12.000000000000
         C            3.270576014668    -0.534392120359    -0.438606222894    12.000000000000
         C            2.184278014668     1.463210879641     0.310915777106    12.000000000000
         C            3.357234014668     0.804070879641    -0.060709222894    12.000000000000
         H           -3.297525985332    -1.087586120359    -0.253899222894     1.007825032230
         H           -0.402339985332    -2.082717120359    -0.257964222894     1.007825032230
         H           -1.030847985332     0.675905879641    -1.260953222894     1.007825032230
         H           -1.544477985332    -0.871580120359    -1.952100222894     1.007825032230
         H           -3.085758985332     0.111705879641     1.898854777106     1.007825032230
         H           -1.869813985332     1.190656879641     1.182869777106     1.007825032230
         H           -0.454614985332    -0.531640120359     2.144329777106     1.007825032230
         H           -1.596828985332    -1.803494120359     1.695867777106     1.007825032230
         H           -3.946268985332     0.682178879641    -1.905060222894     1.007825032230
         H           -4.591840985332     1.047637879641    -0.297518222894     1.007825032230
         H           -3.158268985332     1.904110879641    -0.891779222894     1.007825032230
         H            1.915214014668    -2.195850120359    -0.712778222894     1.007825032230
         H            4.158584014668    -1.087947120359    -0.734939222894     1.007825032230
         H            2.209061014668     2.509002879641     0.614621777106     1.007825032230
         H            4.308322014668     1.329044879641    -0.051987222894     1.007825032230

  Basis Set: AUG-CC-PVTZ
    Blend: AUG-CC-PVTZ
  Basis Set: (AUG-CC-PVTZ AUX)
    Blend: AUG-CC-PVTZ-JKFIT
	 Reference Energy          =    -479.8964353041299091 [Eh]
	 Singles Energy            =      -0.0000000000000000 [Eh]
	 Same-Spin Energy          =      -0.5326779609213053 [Eh]
	 Opposite-Spin Energy      =      -1.7454681145697797 [Eh]
	 Correlation Energy        =      -2.2781460754910849 [Eh]
	 Total Energy              =    -482.1745813796209745 [Eh]

	 ================> DF-SCS-MP2 Energies <==================
	-----------------------------------------------------------
	 SCS Same-Spin Scale       =       0.3333333333333333 [-]
	 SCS Opposite-Spin Scale   =       1.2000000000000000 [-]
	 SCS Same-Spin Energy      =      -0.1775593203071018 [Eh]
	 SCS Opposite-Spin Energy  =      -2.0945617374837355 [Eh]
	 SCS Correlation Energy    =      -2.2721210577908373 [Eh]
	 SCS Total Energy          =    -482.1685563619207642 [Eh]
	-----------------------------------------------------------

  Dipole Moment: [D]
     X:     1.3307      Y:    -1.0713      Z:    -0.4945     Total:     1.7785

*** Psi4 exiting successfully. Buy a developer a beer!
