                               Psi4 1.4a3.dev225

  ==> Input File <==

--------------------------------------------------------------------------
#psi4
#
memory 32 gb

molecule  {
0 1
  N        1.0430420     0.8835120     0.3262100
  C       -2.6935940    -0.1236090    -0.2650160
  C       -0.4170680    -1.0145740    -0.0079460
  C       -1.3683020    -0.3105490    -1.0112920
  C       -2.1464196     0.2675479     1.2689857
  C       -1.0996000    -0.8433070     1.3811970
  C       -3.6002280     0.9375310    -0.8724950
  C        0.9620280    -0.4146880    -0.0398380
  C        2.0893310    -1.1495780    -0.4236340
  C        3.3396130    -0.5322390    -0.4347340
  C        2.2533150     1.4653640     0.3147880
  C        3.4262710     0.8062240    -0.0568370
  H       -3.2284890    -1.0854330    -0.2500270
  H       -0.3333030    -2.0805640    -0.2540920
  H       -0.9618110     0.6780590    -1.2570810
  H       -1.4754410    -0.8694270    -1.9482280
  H       -3.0167220     0.1138590     1.9027270
  H       -1.8007770     1.1928100     1.1867420
  H       -0.3855780    -0.5294870     2.1482020
  H       -1.5277920    -1.8013410     1.6997400
  H       -3.8772320     0.6843320    -1.9011880
  H       -4.5228040     1.0497910    -0.2936460
  H       -3.0892320     1.9062640    -0.8879070
  H        1.9842510    -2.1936970    -0.7089060
  H        4.2276210    -1.0857940    -0.7310670
  H        2.2780980     2.5111560     0.6184940
  H        4.3773590     1.3311980    -0.0481150
units angstrom
no_reorient  #important for SAPT in psi4, default
symmetry c1  #important for SAPT in psi4, default
}

set PROPERTIES_ORIGIN ["COM"]
properties('MP2/aug-cc-pvtz', properties = ['dipole'])
--------------------------------------------------------------------------

    Molecular point group: c1
  Charge       = 0
  Multiplicity = 1
  Basis Set: AUG-CC-PVTZ
    Blend: AUG-CC-PVTZ
  Basis Set: (AUG-CC-PVTZ AUX)
    Blend: AUG-CC-PVTZ-JKFIT

    Orbital Energies [Eh]
    ---------------------

    Doubly Occupied:

       1A    -15.558359     2A    -11.275515     3A    -11.274614
       4A    -11.258107     5A    -11.236014     6A    -11.235226
       7A    -11.226548     8A    -11.219591     9A    -11.212673
      10A    -11.209150    11A    -11.203935    12A    -11.202105
      13A     -1.252067    14A     -1.118106    15A     -1.081817
      16A     -1.042123    17A     -0.990337    18A     -0.956821
      19A     -0.890734    20A     -0.855070    21A     -0.836618
      22A     -0.771989    23A     -0.751991    24A     -0.697089
      25A     -0.667150    26A     -0.639986    27A     -0.637384
      28A     -0.606473    29A     -0.585116    30A     -0.584570
      31A     -0.573009    32A     -0.550855    33A     -0.541446
      34A     -0.528334    35A     -0.517938    36A     -0.476844
      37A     -0.473015    38A     -0.469272    39A     -0.456119
      40A     -0.448273    41A     -0.411081    42A     -0.397285
      43A     -0.377037    44A     -0.332338

  @DF-RHF Final Energy:  -479.87425730666268

   => Energetics <=

    Nuclear Repulsion Energy =            684.3380063678766874
    One-Electron Energy =               -2007.1642730775934069
    Two-Electron Energy =                 842.9520094030540349
    Total Energy =                       -479.8742573066626846
  Basis Set: (AUG-CC-PVTZ AUX)
    Blend: AUG-CC-PVTZ-RI
    Molecular point group: c1

    Geometry (in Angstrom), charge = 0, multiplicity = 1:

       Center              X                  Y                   Z               Mass
    ------------   -----------------  -----------------  -----------------  -----------------
         N            0.967885366894     0.875755754756     0.313324813173    14.003074004430
         C           -2.768750633106    -0.131365245244    -0.277901186827    12.000000000000
         C           -0.492224633106    -1.022330245244    -0.020831186827    12.000000000000
         C           -1.443458633106    -0.318305245244    -1.024177186827    12.000000000000
         C           -2.221576233106     0.259791654756     1.256100513173    12.000000000000
         C           -1.174756633106    -0.851063245244     1.368311813173    12.000000000000
         C           -3.675384633106     0.929774754756    -0.885380186827    12.000000000000
         C            0.886871366894    -0.422444245244    -0.052723186827    12.000000000000
         C            2.014174366894    -1.157334245244    -0.436519186827    12.000000000000
         C            3.264456366894    -0.539995245244    -0.447619186827    12.000000000000
         C            2.178158366894     1.457607754756     0.301902813173    12.000000000000
         C            3.351114366894     0.798467754756    -0.069722186827    12.000000000000
         H           -3.303645633106    -1.093189245244    -0.262912186827     1.007825032230
         H           -0.408459633106    -2.088320245244    -0.266977186827     1.007825032230
         H           -1.036967633106     0.670302754756    -1.269966186827     1.007825032230
         H           -1.550597633106    -0.877183245244    -1.961113186827     1.007825032230
         H           -3.091878633106     0.106102754756     1.889841813173     1.007825032230
         H           -1.875933633106     1.185053754756     1.173856813173     1.007825032230
         H           -0.460734633106    -0.537243245244     2.135316813173     1.007825032230
         H           -1.602948633106    -1.809097245244     1.686854813173     1.007825032230
         H           -3.952388633106     0.676575754756    -1.914073186827     1.007825032230
         H           -4.597960633106     1.042034754756    -0.306531186827     1.007825032230
         H           -3.164388633106     1.898507754756    -0.900792186827     1.007825032230
         H            1.909094366894    -2.201453245244    -0.721791186827     1.007825032230
         H            4.152464366894    -1.093550245244    -0.743952186827     1.007825032230
         H            2.202941366894     2.503399754756     0.605608813173     1.007825032230
         H            4.302202366894     1.323441754756    -0.061000186827     1.007825032230

  Basis Set: AUG-CC-PVTZ
    Blend: AUG-CC-PVTZ
  Basis Set: (AUG-CC-PVTZ AUX)
    Blend: AUG-CC-PVTZ-JKFIT
	 Reference Energy          =    -479.8742573066626846 [Eh]
	 Singles Energy            =      -0.0000000000000000 [Eh]
	 Same-Spin Energy          =      -0.5328124159246781 [Eh]
	 Opposite-Spin Energy      =      -1.7466901869564442 [Eh]
	 Correlation Energy        =      -2.2795026028811223 [Eh]
	 Total Energy              =    -482.1537599095437940 [Eh]

	 ================> DF-SCS-MP2 Energies <==================
	-----------------------------------------------------------
	 SCS Same-Spin Scale       =       0.3333333333333333 [-]
	 SCS Opposite-Spin Scale   =       1.2000000000000000 [-]
	 SCS Same-Spin Energy      =      -0.1776041386415594 [Eh]
	 SCS Opposite-Spin Energy  =      -2.0960282243477328 [Eh]
	 SCS Correlation Energy    =      -2.2736323629892921 [Eh]
	 SCS Total Energy          =    -482.1478896696519882 [Eh]
	-----------------------------------------------------------

  Dipole Moment: [D]
     X:     1.3350      Y:    -1.0740      Z:    -0.5178     Total:     1.7899

*** Psi4 exiting successfully. Buy a developer a beer!
