                               Psi4 1.4a3.dev225

  ==> Input File <==

--------------------------------------------------------------------------
#psi4
#
memory 32 gb

molecule  {
0 1
  N        1.0430420     0.8835120     0.3262100
  C       -2.6935940    -0.1236090    -0.2650160
  C       -0.4410324    -1.0217496    -0.0185699
  C       -1.3683020    -0.3105490    -1.0112920
  C       -2.2166740     0.1783740     1.1559530
  C       -1.0996000    -0.8433070     1.3811970
  C       -3.6002280     0.9375310    -0.8724950
  C        0.9620280    -0.4146880    -0.0398380
  C        2.0893310    -1.1495780    -0.4236340
  C        3.3396130    -0.5322390    -0.4347340
  C        2.2533150     1.4653640     0.3147880
  C        3.4262710     0.8062240    -0.0568370
  H       -3.2284890    -1.0854330    -0.2500270
  H       -0.3333030    -2.0805640    -0.2540920
  H       -0.9618110     0.6780590    -1.2570810
  H       -1.4754410    -0.8694270    -1.9482280
  H       -3.0167220     0.1138590     1.9027270
  H       -1.8007770     1.1928100     1.1867420
  H       -0.3855780    -0.5294870     2.1482020
  H       -1.5277920    -1.8013410     1.6997400
  H       -3.8772320     0.6843320    -1.9011880
  H       -4.5228040     1.0497910    -0.2936460
  H       -3.0892320     1.9062640    -0.8879070
  H        1.9842510    -2.1936970    -0.7089060
  H        4.2276210    -1.0857940    -0.7310670
  H        2.2780980     2.5111560     0.6184940
  H        4.3773590     1.3311980    -0.0481150
units angstrom
no_reorient  #important for SAPT in psi4, default
symmetry c1  #important for SAPT in psi4, default
}

set PROPERTIES_ORIGIN ["COM"]
properties('MP2/aug-cc-pvtz', properties = ['dipole'])
--------------------------------------------------------------------------

    Molecular point group: c1
  Charge       = 0
  Multiplicity = 1
  Basis Set: AUG-CC-PVTZ
    Blend: AUG-CC-PVTZ
  Basis Set: (AUG-CC-PVTZ AUX)
    Blend: AUG-CC-PVTZ-JKFIT

    Orbital Energies [Eh]
    ---------------------

    Doubly Occupied:

       1A    -15.557986     2A    -11.276096     3A    -11.274271
       4A    -11.257858     5A    -11.235748     6A    -11.235008
       7A    -11.226462     8A    -11.214520     9A    -11.211113
      10A    -11.208711    11A    -11.205100    12A    -11.203573
      13A     -1.251122    14A     -1.128712    15A     -1.081682
      16A     -1.044460    17A     -0.991324    18A     -0.956411
      19A     -0.892859    20A     -0.854695    21A     -0.835838
      22A     -0.763956    23A     -0.756055    24A     -0.696905
      25A     -0.667871    26A     -0.640670    27A     -0.639815
      28A     -0.608507    29A     -0.585159    30A     -0.577445
      31A     -0.573985    32A     -0.551619    33A     -0.537575
      34A     -0.527134    35A     -0.511407    36A     -0.475007
      37A     -0.468479    38A     -0.461736    39A     -0.452732
      40A     -0.445975    41A     -0.439645    42A     -0.408926
      43A     -0.376877    44A     -0.332625

  @DF-RHF Final Energy:  -479.89605487171798

   => Energetics <=

    Nuclear Repulsion Energy =            685.7294207930601715
    One-Electron Energy =               -2009.9636381607244857
    Two-Electron Energy =                 844.3381624959463352
    Total Energy =                       -479.8960548717179790
  Basis Set: (AUG-CC-PVTZ AUX)
    Blend: AUG-CC-PVTZ-RI
    Molecular point group: c1

    Geometry (in Angstrom), charge = 0, multiplicity = 1:

       Center              X                  Y                   Z               Mass
    ------------   -----------------  -----------------  -----------------  -----------------
         N            0.974902636295     0.882931715373     0.322534564044    14.003074004430
         C           -2.761733363705    -0.124189284627    -0.268691435956    12.000000000000
         C           -0.509171763705    -1.022329884627    -0.022245335956    12.000000000000
         C           -1.436441363705    -0.311129284627    -1.014967435956    12.000000000000
         C           -2.284813363705     0.177793715373     1.152277564044    12.000000000000
         C           -1.167739363705    -0.843887284627     1.377521564044    12.000000000000
         C           -3.668367363705     0.936950715373    -0.876170435956    12.000000000000
         C            0.893888636295    -0.415268284627    -0.043513435956    12.000000000000
         C            2.021191636295    -1.150158284627    -0.427309435956    12.000000000000
         C            3.271473636295    -0.532819284627    -0.438409435956    12.000000000000
         C            2.185175636295     1.464783715373     0.311112564044    12.000000000000
         C            3.358131636295     0.805643715373    -0.060512435956    12.000000000000
         H           -3.296628363705    -1.086013284627    -0.253702435956     1.007825032230
         H           -0.401442363705    -2.081144284627    -0.257767435956     1.007825032230
         H           -1.029950363705     0.677478715373    -1.260756435956     1.007825032230
         H           -1.543580363705    -0.870007284627    -1.951903435956     1.007825032230
         H           -3.084861363705     0.113278715373     1.899051564044     1.007825032230
         H           -1.868916363705     1.192229715373     1.183066564044     1.007825032230
         H           -0.453717363705    -0.530067284627     2.144526564044     1.007825032230
         H           -1.595931363705    -1.801921284627     1.696064564044     1.007825032230
         H           -3.945371363705     0.683751715373    -1.904863435956     1.007825032230
         H           -4.590943363705     1.049210715373    -0.297321435956     1.007825032230
         H           -3.157371363705     1.905683715373    -0.891582435956     1.007825032230
         H            1.916111636295    -2.194277284627    -0.712581435956     1.007825032230
         H            4.159481636295    -1.086374284627    -0.734742435956     1.007825032230
         H            2.209958636295     2.510575715373     0.614818564044     1.007825032230
         H            4.309219636295     1.330617715373    -0.051790435956     1.007825032230

  Basis Set: AUG-CC-PVTZ
    Blend: AUG-CC-PVTZ
  Basis Set: (AUG-CC-PVTZ AUX)
    Blend: AUG-CC-PVTZ-JKFIT
	 Reference Energy          =    -479.8960548717179790 [Eh]
	 Singles Energy            =      -0.0000000000000000 [Eh]
	 Same-Spin Energy          =      -0.5327147210534786 [Eh]
	 Opposite-Spin Energy      =      -1.7454368970811820 [Eh]
	 Correlation Energy        =      -2.2781516181346606 [Eh]
	 Total Energy              =    -482.1742064898526223 [Eh]

	 ================> DF-SCS-MP2 Energies <==================
	-----------------------------------------------------------
	 SCS Same-Spin Scale       =       0.3333333333333333 [-]
	 SCS Opposite-Spin Scale   =       1.2000000000000000 [-]
	 SCS Same-Spin Energy      =      -0.1775715736844929 [Eh]
	 SCS Opposite-Spin Energy  =      -2.0945242764974181 [Eh]
	 SCS Correlation Energy    =      -2.2720958501819108 [Eh]
	 SCS Total Energy          =    -482.1681507218999059 [Eh]
	-----------------------------------------------------------

  Dipole Moment: [D]
     X:     1.3403      Y:    -1.0745      Z:    -0.4979     Total:     1.7885

*** Psi4 exiting successfully. Buy a developer a beer!
