                               Psi4 1.4a3.dev225

  ==> Input File <==

--------------------------------------------------------------------------
#psi4
#
memory 32 gb

molecule  {
0 1
  N        1.0430420     0.8835120     0.3262100
  C       -2.6935940    -0.1236090    -0.2650160
  C       -0.4170680    -1.0145740    -0.0079460
  C       -1.3683020    -0.3105490    -1.0112920
  C       -2.2166740     0.1783740     1.1559530
  C       -1.0996000    -0.8433070     1.3811970
  C       -3.6002280     0.9375310    -0.8724950
  C        0.9620280    -0.4146880    -0.0398380
  C        2.0893310    -1.1495780    -0.4236340
  C        3.3396130    -0.5322390    -0.4347340
  C        2.2533150     1.4653640     0.3147880
  C        3.4262710     0.8062240    -0.0568370
  H       -3.2284890    -1.0854330    -0.2500270
  H       -0.3333030    -2.0805640    -0.2540920
  H       -0.9618110     0.6780590    -1.2570810
  H       -1.4754410    -0.8694270    -1.9482280
  H       -3.0167220     0.1138590     1.9027270
  H       -1.8007770     1.1928100     1.1867420
  H       -0.3855780    -0.5294870     2.1482020
  H       -1.5277920    -1.8013410     1.6997400
  H       -3.8772320     0.6843320    -1.9011880
  H       -4.5228040     1.0497910    -0.2936460
  H       -3.0892320     1.9062640    -0.8879070
  H        1.9842510    -2.1936970    -0.7089060
  H        4.2276210    -1.0857940    -0.7310670
  H        2.2780980     2.5111560     0.6184940
  H        4.3335861     1.3070366    -0.0485164
units angstrom
no_reorient  #important for SAPT in psi4, default
symmetry c1  #important for SAPT in psi4, default
}

set PROPERTIES_ORIGIN ["COM"]
properties('MP2/aug-cc-pvtz', properties = ['dipole'])
--------------------------------------------------------------------------

    Molecular point group: c1
  Charge       = 0
  Multiplicity = 1
  Basis Set: AUG-CC-PVTZ
    Blend: AUG-CC-PVTZ
  Basis Set: (AUG-CC-PVTZ AUX)
    Blend: AUG-CC-PVTZ-JKFIT

    Orbital Energies [Eh]
    ---------------------

    Doubly Occupied:

       1A    -15.557652     2A    -11.275154     3A    -11.273951
       4A    -11.257513     5A    -11.234786     6A    -11.229993
       7A    -11.226014     8A    -11.214522     9A    -11.211299
      10A    -11.209613    11A    -11.205183    12A    -11.203626
      13A     -1.251597    14A     -1.127489    15A     -1.082363
      16A     -1.046872    17A     -0.991684    18A     -0.955110
      19A     -0.894226    20A     -0.855060    21A     -0.838577
      22A     -0.764331    23A     -0.755528    24A     -0.700017
      25A     -0.670142    26A     -0.643504    27A     -0.639912
      28A     -0.608146    29A     -0.584823    30A     -0.578143
      31A     -0.575105    32A     -0.551829    33A     -0.538562
      34A     -0.528087    35A     -0.512196    36A     -0.473100
      37A     -0.468819    38A     -0.460944    39A     -0.452613
      40A     -0.446939    41A     -0.439463    42A     -0.409915
      43A     -0.376700    44A     -0.331931

  @DF-RHF Final Energy:  -479.89581908552117

   => Energetics <=

    Nuclear Repulsion Energy =            686.1353082216938901
    One-Electron Energy =               -2010.7561814576263259
    Two-Electron Energy =                 844.7250541504110970
    Total Energy =                       -479.8958190855212251
  Basis Set: (AUG-CC-PVTZ AUX)
    Blend: AUG-CC-PVTZ-RI
    Molecular point group: c1

    Geometry (in Angstrom), charge = 0, multiplicity = 1:

       Center              X                  Y                   Z               Mass
    ------------   -----------------  -----------------  -----------------  -----------------
         N            0.973391609132     0.882548419916     0.321745823326    14.003074004430
         C           -2.763244390868    -0.124572580084    -0.269480176674    12.000000000000
         C           -0.486718390868    -1.015537580084    -0.012410176674    12.000000000000
         C           -1.437952390868    -0.311512580084    -1.015756176674    12.000000000000
         C           -2.286324390868     0.177410419916     1.151488823326    12.000000000000
         C           -1.169250390868    -0.844270580084     1.376732823326    12.000000000000
         C           -3.669878390868     0.936567419916    -0.876959176674    12.000000000000
         C            0.892377609132    -0.415651580084    -0.044302176674    12.000000000000
         C            2.019680609132    -1.150541580084    -0.428098176674    12.000000000000
         C            3.269962609132    -0.533202580084    -0.439198176674    12.000000000000
         C            2.183664609132     1.464400419916     0.310323823326    12.000000000000
         C            3.356620609132     0.805260419916    -0.061301176674    12.000000000000
         H           -3.298139390868    -1.086396580084    -0.254491176674     1.007825032230
         H           -0.402953390868    -2.081527580084    -0.258556176674     1.007825032230
         H           -1.031461390868     0.677095419916    -1.261545176674     1.007825032230
         H           -1.545091390868    -0.870390580084    -1.952692176674     1.007825032230
         H           -3.086372390868     0.112895419916     1.898262823326     1.007825032230
         H           -1.870427390868     1.191846419916     1.182277823326     1.007825032230
         H           -0.455228390868    -0.530450580084     2.143737823326     1.007825032230
         H           -1.597442390868    -1.802304580084     1.695275823326     1.007825032230
         H           -3.946882390868     0.683368419916    -1.905652176674     1.007825032230
         H           -4.592454390868     1.048827419916    -0.298110176674     1.007825032230
         H           -3.158882390868     1.905300419916    -0.892371176674     1.007825032230
         H            1.914600609132    -2.194660580084    -0.713370176674     1.007825032230
         H            4.157970609132    -1.086757580084    -0.735531176674     1.007825032230
         H            2.208447609132     2.510192419916     0.614029823326     1.007825032230
         H            4.263935709132     1.306073019916    -0.052980576674     1.007825032230

  Basis Set: AUG-CC-PVTZ
    Blend: AUG-CC-PVTZ
  Basis Set: (AUG-CC-PVTZ AUX)
    Blend: AUG-CC-PVTZ-JKFIT
	 Reference Energy          =    -479.8958190855211683 [Eh]
	 Singles Energy            =      -0.0000000000000000 [Eh]
	 Same-Spin Energy          =      -0.5327054478323144 [Eh]
	 Opposite-Spin Energy      =      -1.7452292956994837 [Eh]
	 Correlation Energy        =      -2.2779347435317980 [Eh]
	 Total Energy              =    -482.1737538290529415 [Eh]

	 ================> DF-SCS-MP2 Energies <==================
	-----------------------------------------------------------
	 SCS Same-Spin Scale       =       0.3333333333333333 [-]
	 SCS Opposite-Spin Scale   =       1.2000000000000000 [-]
	 SCS Same-Spin Energy      =      -0.1775684826107715 [Eh]
	 SCS Opposite-Spin Energy  =      -2.0942751548393805 [Eh]
	 SCS Correlation Energy    =      -2.2718436374501518 [Eh]
	 SCS Total Energy          =    -482.1676627229713290 [Eh]
	-----------------------------------------------------------

  Dipole Moment: [D]
     X:     1.3452      Y:    -1.0624      Z:    -0.4945     Total:     1.7840

*** Psi4 exiting successfully. Buy a developer a beer!
