                               Psi4 1.4a3.dev225

  ==> Input File <==

--------------------------------------------------------------------------
#psi4
#
memory 32 gb

molecule  {
0 1
  N        1.0430420     0.8835120     0.3262100
  C       -2.6935940    -0.1236090    -0.2650160
  C       -0.4170680    -1.0145740    -0.0079460
  C       -1.2855130    -0.2464565    -1.0389645
  C       -2.2166740     0.1783740     1.1559530
  C       -1.0996000    -0.8433070     1.3811970
  C       -3.6002280     0.9375310    -0.8724950
  C        0.9620280    -0.4146880    -0.0398380
  C        2.0893310    -1.1495780    -0.4236340
  C        3.3396130    -0.5322390    -0.4347340
  C        2.2533150     1.4653640     0.3147880
  C        3.4262710     0.8062240    -0.0568370
  H       -3.2284890    -1.0854330    -0.2500270
  H       -0.3333030    -2.0805640    -0.2540920
  H       -0.9618110     0.6780590    -1.2570810
  H       -1.4754410    -0.8694270    -1.9482280
  H       -3.0167220     0.1138590     1.9027270
  H       -1.8007770     1.1928100     1.1867420
  H       -0.3855780    -0.5294870     2.1482020
  H       -1.5277920    -1.8013410     1.6997400
  H       -3.8772320     0.6843320    -1.9011880
  H       -4.5228040     1.0497910    -0.2936460
  H       -3.0892320     1.9062640    -0.8879070
  H        1.9842510    -2.1936970    -0.7089060
  H        4.2276210    -1.0857940    -0.7310670
  H        2.2780980     2.5111560     0.6184940
  H        4.3773590     1.3311980    -0.0481150
units angstrom
no_reorient  #important for SAPT in psi4, default
symmetry c1  #important for SAPT in psi4, default
}

set PROPERTIES_ORIGIN ["COM"]
properties('MP2/aug-cc-pvtz', properties = ['dipole'])
--------------------------------------------------------------------------

    Molecular point group: c1
  Charge       = 0
  Multiplicity = 1
  Basis Set: AUG-CC-PVTZ
    Blend: AUG-CC-PVTZ
  Basis Set: (AUG-CC-PVTZ AUX)
    Blend: AUG-CC-PVTZ-JKFIT

    Orbital Energies [Eh]
    ---------------------

    Doubly Occupied:

       1A    -15.557341     2A    -11.274625     3A    -11.274286
       4A    -11.257628     5A    -11.235084     6A    -11.234104
       7A    -11.227177     8A    -11.218294     9A    -11.211654
      10A    -11.208230    11A    -11.204605    12A    -11.203438
      13A     -1.251786    14A     -1.122643    15A     -1.081271
      16A     -1.044902    17A     -0.989576    18A     -0.956793
      19A     -0.891917    20A     -0.854956    21A     -0.836139
      22A     -0.767002    23A     -0.758238    24A     -0.696327
      25A     -0.666496    26A     -0.640069    27A     -0.635921
      28A     -0.606229    29A     -0.586089    30A     -0.584478
      31A     -0.573425    32A     -0.550169    33A     -0.537960
      34A     -0.533861    35A     -0.514211    36A     -0.475520
      37A     -0.469720    38A     -0.465507    39A     -0.453574
      40A     -0.446638    41A     -0.425092    42A     -0.407308
      43A     -0.376842    44A     -0.330774

  @DF-RHF Final Energy:  -479.88462717148502

   => Energetics <=

    Nuclear Repulsion Energy =            685.6714646461047096
    One-Electron Energy =               -2009.8363846814108911
    Two-Electron Energy =                 844.2802928638212734
    Total Energy =                       -479.8846271714850218
  Basis Set: (AUG-CC-PVTZ AUX)
    Blend: AUG-CC-PVTZ-RI
    Molecular point group: c1

    Geometry (in Angstrom), charge = 0, multiplicity = 1:

       Center              X                  Y                   Z               Mass
    ------------   -----------------  -----------------  -----------------  -----------------
         N            0.966951809419     0.877623778343     0.323804317205    14.003074004430
         C           -2.769684190581    -0.129497221657    -0.267421682795    12.000000000000
         C           -0.493158190581    -1.020462221657    -0.010351682795    12.000000000000
         C           -1.361603190581    -0.252344721657    -1.041370182795    12.000000000000
         C           -2.292764190581     0.172485778343     1.153547317205    12.000000000000
         C           -1.175690190581    -0.849195221657     1.378791317205    12.000000000000
         C           -3.676318190581     0.931642778343    -0.874900682795    12.000000000000
         C            0.885937809419    -0.420576221657    -0.042243682795    12.000000000000
         C            2.013240809419    -1.155466221657    -0.426039682795    12.000000000000
         C            3.263522809419    -0.538127221657    -0.437139682795    12.000000000000
         C            2.177224809419     1.459475778343     0.312382317205    12.000000000000
         C            3.350180809419     0.800335778343    -0.059242682795    12.000000000000
         H           -3.304579190581    -1.091321221657    -0.252432682795     1.007825032230
         H           -0.409393190581    -2.086452221657    -0.256497682795     1.007825032230
         H           -1.037901190581     0.672170778343    -1.259486682795     1.007825032230
         H           -1.551531190581    -0.875315221657    -1.950633682795     1.007825032230
         H           -3.092812190581     0.107970778343     1.900321317205     1.007825032230
         H           -1.876867190581     1.186921778343     1.184336317205     1.007825032230
         H           -0.461668190581    -0.535375221657     2.145796317205     1.007825032230
         H           -1.603882190581    -1.807229221657     1.697334317205     1.007825032230
         H           -3.953322190581     0.678443778343    -1.903593682795     1.007825032230
         H           -4.598894190581     1.043902778343    -0.296051682795     1.007825032230
         H           -3.165322190581     1.900375778343    -0.890312682795     1.007825032230
         H            1.908160809419    -2.199585221657    -0.711311682795     1.007825032230
         H            4.151530809419    -1.091682221657    -0.733472682795     1.007825032230
         H            2.202007809419     2.505267778343     0.616088317205     1.007825032230
         H            4.301268809419     1.325309778343    -0.050520682795     1.007825032230

  Basis Set: AUG-CC-PVTZ
    Blend: AUG-CC-PVTZ
  Basis Set: (AUG-CC-PVTZ AUX)
    Blend: AUG-CC-PVTZ-JKFIT
	 Reference Energy          =    -479.8846271714850218 [Eh]
	 Singles Energy            =      -0.0000000000000000 [Eh]
	 Same-Spin Energy          =      -0.5326178612037848 [Eh]
	 Opposite-Spin Energy      =      -1.7459125359600798 [Eh]
	 Correlation Energy        =      -2.2785303971638644 [Eh]
	 Total Energy              =    -482.1631575686488986 [Eh]

	 ================> DF-SCS-MP2 Energies <==================
	-----------------------------------------------------------
	 SCS Same-Spin Scale       =       0.3333333333333333 [-]
	 SCS Opposite-Spin Scale   =       1.2000000000000000 [-]
	 SCS Same-Spin Energy      =      -0.1775392870679283 [Eh]
	 SCS Opposite-Spin Energy  =      -2.0950950431520958 [Eh]
	 SCS Correlation Energy    =      -2.2726343302200243 [Eh]
	 SCS Total Energy          =    -482.1572615017050225 [Eh]
	-----------------------------------------------------------

  Dipole Moment: [D]
     X:     1.2804      Y:    -1.0738      Z:    -0.4848     Total:     1.7400

*** Psi4 exiting successfully. Buy a developer a beer!
