                               Psi4 1.4a3.dev225

  ==> Input File <==

--------------------------------------------------------------------------
#psi4
#
memory 32 gb

molecule  {
0 1
  N        1.0430420     0.8835120     0.3262100
  C       -2.6935940    -0.1236090    -0.2650160
  C       -0.4170680    -1.0145740    -0.0079460
  C       -1.3683020    -0.3105490    -1.0112920
  C       -2.2166740     0.1783740     1.1559530
  C       -1.0996000    -0.8433070     1.3811970
  C       -3.6002280     0.9375310    -0.8724950
  C        0.9620280    -0.4146880    -0.0398380
  C        2.0893310    -1.1495780    -0.4236340
  C        3.3396130    -0.5322390    -0.4347340
  C        2.2533150     1.4653640     0.3147880
  C        3.4262710     0.8062240    -0.0568370
  H       -3.2284890    -1.0854330    -0.2500270
  H       -0.3333030    -2.0805640    -0.2540920
  H       -0.9618110     0.6780590    -1.2570810
  H       -1.4754410    -0.8694270    -1.9482280
  H       -3.0167220     0.1138590     1.9027270
  H       -1.8007770     1.1928100     1.1867420
  H       -0.4182147    -0.5438312     2.1131436
  H       -1.5277920    -1.8013410     1.6997400
  H       -3.8772320     0.6843320    -1.9011880
  H       -4.5228040     1.0497910    -0.2936460
  H       -3.0892320     1.9062640    -0.8879070
  H        1.9842510    -2.1936970    -0.7089060
  H        4.2276210    -1.0857940    -0.7310670
  H        2.2780980     2.5111560     0.6184940
  H        4.3773590     1.3311980    -0.0481150
units angstrom
no_reorient  #important for SAPT in psi4, default
symmetry c1  #important for SAPT in psi4, default
}

set PROPERTIES_ORIGIN ["COM"]
properties('MP2/aug-cc-pvtz', properties = ['dipole'])
--------------------------------------------------------------------------

    Molecular point group: c1
  Charge       = 0
  Multiplicity = 1
  Basis Set: AUG-CC-PVTZ
    Blend: AUG-CC-PVTZ
  Basis Set: (AUG-CC-PVTZ AUX)
    Blend: AUG-CC-PVTZ-JKFIT

    Orbital Energies [Eh]
    ---------------------

    Doubly Occupied:

       1A    -15.558120     2A    -11.275325     3A    -11.274437
       4A    -11.258016     5A    -11.235967     6A    -11.235169
       7A    -11.225660     8A    -11.214224     9A    -11.209373
      10A    -11.205326    11A    -11.204952    12A    -11.203227
      13A     -1.251967    14A     -1.127665    15A     -1.081932
      16A     -1.046417    17A     -0.992334    18A     -0.955368
      19A     -0.894299    20A     -0.855368    21A     -0.837719
      22A     -0.766743    23A     -0.755465    24A     -0.697496
      25A     -0.668101    26A     -0.641854    27A     -0.639984
      28A     -0.609912    29A     -0.585072    30A     -0.577337
      31A     -0.574038    32A     -0.552532    33A     -0.538642
      34A     -0.527193    35A     -0.512472    36A     -0.474768
      37A     -0.468896    38A     -0.460952    39A     -0.452889
      40A     -0.447000    41A     -0.440051    42A     -0.410030
      43A     -0.377137    44A     -0.332159

  @DF-RHF Final Energy:  -479.89582106456783

   => Energetics <=

    Nuclear Repulsion Energy =            686.1040280589232907
    One-Electron Energy =               -2010.6925237646719324
    Two-Electron Energy =                 844.6926746411809290
    Total Energy =                       -479.8958210645678264
  Basis Set: (AUG-CC-PVTZ AUX)
    Blend: AUG-CC-PVTZ-RI
    Molecular point group: c1

    Geometry (in Angstrom), charge = 0, multiplicity = 1:

       Center              X                  Y                   Z               Mass
    ------------   -----------------  -----------------  -----------------  -----------------
         N            0.973321951053     0.882487012317     0.321962606436    14.003074004430
         C           -2.763314048947    -0.124633987683    -0.269263393564    12.000000000000
         C           -0.486788048947    -1.015598987683    -0.012193393564    12.000000000000
         C           -1.438022048947    -0.311573987683    -1.015539393564    12.000000000000
         C           -2.286394048947     0.177349012317     1.151705606436    12.000000000000
         C           -1.169320048947    -0.844331987683     1.376949606436    12.000000000000
         C           -3.669948048947     0.936506012317    -0.876742393564    12.000000000000
         C            0.892307951053    -0.415712987683    -0.044085393564    12.000000000000
         C            2.019610951053    -1.150602987683    -0.427881393564    12.000000000000
         C            3.269892951053    -0.533263987683    -0.438981393564    12.000000000000
         C            2.183594951053     1.464339012317     0.310540606436    12.000000000000
         C            3.356550951053     0.805199012317    -0.061084393564    12.000000000000
         H           -3.298209048947    -1.086457987683    -0.254274393564     1.007825032230
         H           -0.403023048947    -2.081588987683    -0.258339393564     1.007825032230
         H           -1.031531048947     0.677034012317    -1.261328393564     1.007825032230
         H           -1.545161048947    -0.870451987683    -1.952475393564     1.007825032230
         H           -3.086442048947     0.112834012317     1.898479606436     1.007825032230
         H           -1.870497048947     1.191785012317     1.182494606436     1.007825032230
         H           -0.487934748947    -0.544856187683     2.108896206436     1.007825032230
         H           -1.597512048947    -1.802365987683     1.695492606436     1.007825032230
         H           -3.946952048947     0.683307012317    -1.905435393564     1.007825032230
         H           -4.592524048947     1.048766012317    -0.297893393564     1.007825032230
         H           -3.158952048947     1.905239012317    -0.892154393564     1.007825032230
         H            1.914530951053    -2.194721987683    -0.713153393564     1.007825032230
         H            4.157900951053    -1.086818987683    -0.735314393564     1.007825032230
         H            2.208377951053     2.510131012317     0.614246606436     1.007825032230
         H            4.307638951053     1.330173012317    -0.052362393564     1.007825032230

  Basis Set: AUG-CC-PVTZ
    Blend: AUG-CC-PVTZ
  Basis Set: (AUG-CC-PVTZ AUX)
    Blend: AUG-CC-PVTZ-JKFIT
	 Reference Energy          =    -479.8958210645678264 [Eh]
	 Singles Energy            =      -0.0000000000000000 [Eh]
	 Same-Spin Energy          =      -0.5327190326365290 [Eh]
	 Opposite-Spin Energy      =      -1.7451645663850948 [Eh]
	 Correlation Energy        =      -2.2778835990216235 [Eh]
	 Total Energy              =    -482.1737046635894330 [Eh]

	 ================> DF-SCS-MP2 Energies <==================
	-----------------------------------------------------------
	 SCS Same-Spin Scale       =       0.3333333333333333 [-]
	 SCS Opposite-Spin Scale   =       1.2000000000000000 [-]
	 SCS Same-Spin Energy      =      -0.1775730108788430 [Eh]
	 SCS Opposite-Spin Energy  =      -2.0941974796621134 [Eh]
	 SCS Correlation Energy    =      -2.2717704905409564 [Eh]
	 SCS Total Energy          =    -482.1675915551087996 [Eh]
	-----------------------------------------------------------

  Dipole Moment: [D]
     X:     1.3519      Y:    -1.0747      Z:    -0.4697     Total:     1.7897

*** Psi4 exiting successfully. Buy a developer a beer!
