                               Psi4 1.4a3.dev225

  ==> Input File <==

--------------------------------------------------------------------------
#psi4
#
memory 32 gb

molecule  {
0 1
  N        1.0430420     0.8835120     0.3262100
  C       -2.6935940    -0.1236090    -0.2650160
  C       -0.5140996    -1.0429416    -0.0478712
  C       -1.3683020    -0.3105490    -1.0112920
  C       -2.2166740     0.1783740     1.1559530
  C       -1.0996000    -0.8433070     1.3811970
  C       -3.6002280     0.9375310    -0.8724950
  C        0.9620280    -0.4146880    -0.0398380
  C        2.0893310    -1.1495780    -0.4236340
  C        3.3396130    -0.5322390    -0.4347340
  C        2.2533150     1.4653640     0.3147880
  C        3.4262710     0.8062240    -0.0568370
  H       -3.2284890    -1.0854330    -0.2500270
  H       -0.3333030    -2.0805640    -0.2540920
  H       -0.9618110     0.6780590    -1.2570810
  H       -1.4754410    -0.8694270    -1.9482280
  H       -3.0167220     0.1138590     1.9027270
  H       -1.8007770     1.1928100     1.1867420
  H       -0.3855780    -0.5294870     2.1482020
  H       -1.5277920    -1.8013410     1.6997400
  H       -3.8772320     0.6843320    -1.9011880
  H       -4.5228040     1.0497910    -0.2936460
  H       -3.0892320     1.9062640    -0.8879070
  H        1.9842510    -2.1936970    -0.7089060
  H        4.2276210    -1.0857940    -0.7310670
  H        2.2780980     2.5111560     0.6184940
  H        4.3773590     1.3311980    -0.0481150
units angstrom
no_reorient  #important for SAPT in psi4, default
symmetry c1  #important for SAPT in psi4, default
}

set PROPERTIES_ORIGIN ["COM"]
properties('MP2/aug-cc-pvtz', properties = ['dipole'])
--------------------------------------------------------------------------

    Molecular point group: c1
  Charge       = 0
  Multiplicity = 1
  Basis Set: AUG-CC-PVTZ
    Blend: AUG-CC-PVTZ
  Basis Set: (AUG-CC-PVTZ AUX)
    Blend: AUG-CC-PVTZ-JKFIT

    Orbital Energies [Eh]
    ---------------------

    Doubly Occupied:

       1A    -15.557686     2A    -11.277506     3A    -11.273852
       4A    -11.257411     5A    -11.235124     6A    -11.234495
       7A    -11.228302     8A    -11.214592     9A    -11.210763
      10A    -11.206191    11A    -11.204848    12A    -11.203363
      13A     -1.248953    14A     -1.133236    15A     -1.080966
      16A     -1.038993    17A     -0.991786    18A     -0.961931
      19A     -0.890318    20A     -0.853093    21A     -0.833330
      22A     -0.762867    23A     -0.757663    24A     -0.696787
      25A     -0.667591    26A     -0.642226    27A     -0.637691
      28A     -0.611110    29A     -0.585375    30A     -0.577406
      31A     -0.573581    32A     -0.551538    33A     -0.536184
      34A     -0.527396    35A     -0.511569    36A     -0.483733
      37A     -0.467586    38A     -0.462651    39A     -0.452274
      40A     -0.442609    41A     -0.436456    42A     -0.403047
      43A     -0.376359    44A     -0.333282

  @DF-RHF Final Energy:  -479.88624102673793

   => Energetics <=

    Nuclear Repulsion Energy =            685.3628043705595019
    One-Electron Energy =               -2009.2306505267597458
    Two-Electron Energy =                 843.9816051294624231
    Total Energy =                       -479.8862410267379346
  Basis Set: (AUG-CC-PVTZ AUX)
    Blend: AUG-CC-PVTZ-RI
    Molecular point group: c1

    Geometry (in Angstrom), charge = 0, multiplicity = 1:

       Center              X                  Y                   Z               Mass
    ------------   -----------------  -----------------  -----------------  -----------------
         N            0.980344567489     0.884510062509     0.324716879207    14.003074004430
         C           -2.756291432511    -0.122610937491    -0.266509120793    12.000000000000
         C           -0.576797032511    -1.041943537491    -0.049364320793    12.000000000000
         C           -1.430999432511    -0.309550937491    -1.012785120793    12.000000000000
         C           -2.279371432511     0.179372062509     1.154459879207    12.000000000000
         C           -1.162297432511    -0.842308937491     1.379703879207    12.000000000000
         C           -3.662925432511     0.938529062509    -0.873988120793    12.000000000000
         C            0.899330567489    -0.413689937491    -0.041331120793    12.000000000000
         C            2.026633567489    -1.148579937491    -0.425127120793    12.000000000000
         C            3.276915567489    -0.531240937491    -0.436227120793    12.000000000000
         C            2.190617567489     1.466362062509     0.313294879207    12.000000000000
         C            3.363573567489     0.807222062509    -0.058330120793    12.000000000000
         H           -3.291186432511    -1.084434937491    -0.251520120793     1.007825032230
         H           -0.396000432511    -2.079565937491    -0.255585120793     1.007825032230
         H           -1.024508432511     0.679057062509    -1.258574120793     1.007825032230
         H           -1.538138432511    -0.868428937491    -1.949721120793     1.007825032230
         H           -3.079419432511     0.114857062509     1.901233879207     1.007825032230
         H           -1.863474432511     1.193808062509     1.185248879207     1.007825032230
         H           -0.448275432511    -0.528488937491     2.146708879207     1.007825032230
         H           -1.590489432511    -1.800342937491     1.698246879207     1.007825032230
         H           -3.939929432511     0.685330062509    -1.902681120793     1.007825032230
         H           -4.585501432511     1.050789062509    -0.295139120793     1.007825032230
         H           -3.151929432511     1.907262062509    -0.889400120793     1.007825032230
         H            1.921553567489    -2.192698937491    -0.710399120793     1.007825032230
         H            4.164923567489    -1.084795937491    -0.732560120793     1.007825032230
         H            2.215400567489     2.512154062509     0.617000879207     1.007825032230
         H            4.314661567489     1.332196062509    -0.049608120793     1.007825032230

  Basis Set: AUG-CC-PVTZ
    Blend: AUG-CC-PVTZ
  Basis Set: (AUG-CC-PVTZ AUX)
    Blend: AUG-CC-PVTZ-JKFIT
	 Reference Energy          =    -479.8862410267379346 [Eh]
	 Singles Energy            =      -0.0000000000000000 [Eh]
	 Same-Spin Energy          =      -0.5329717302512527 [Eh]
	 Opposite-Spin Energy      =      -1.7459163741725845 [Eh]
	 Correlation Energy        =      -2.2788881044238369 [Eh]
	 Total Energy              =    -482.1651291311617911 [Eh]

	 ================> DF-SCS-MP2 Energies <==================
	-----------------------------------------------------------
	 SCS Same-Spin Scale       =       0.3333333333333333 [-]
	 SCS Opposite-Spin Scale   =       1.2000000000000000 [-]
	 SCS Same-Spin Energy      =      -0.1776572434170842 [Eh]
	 SCS Opposite-Spin Energy  =      -2.0950996490071012 [Eh]
	 SCS Correlation Energy    =      -2.2727568924241854 [Eh]
	 SCS Total Energy          =    -482.1589979191621183 [Eh]
	-----------------------------------------------------------

  Dipole Moment: [D]
     X:     1.3510      Y:    -1.0827      Z:    -0.5093     Total:     1.8047

*** Psi4 exiting successfully. Buy a developer a beer!
