                               Psi4 1.4a3.dev225

  ==> Input File <==

--------------------------------------------------------------------------
#psi4
#
memory 32 gb

molecule  {
0 1
  N        1.0430420     0.8835120     0.3262100
  C       -2.6935940    -0.1236090    -0.2650160
  C       -0.4170680    -1.0145740    -0.0079460
  C       -1.3683020    -0.3105490    -1.0112920
  C       -2.2166740     0.1783740     1.1559530
  C       -1.0996000    -0.8433070     1.3811970
  C       -3.5704472     0.9026751    -0.8525408
  C        0.9620280    -0.4146880    -0.0398380
  C        2.0893310    -1.1495780    -0.4236340
  C        3.3396130    -0.5322390    -0.4347340
  C        2.2533150     1.4653640     0.3147880
  C        3.4262710     0.8062240    -0.0568370
  H       -3.2284890    -1.0854330    -0.2500270
  H       -0.3333030    -2.0805640    -0.2540920
  H       -0.9618110     0.6780590    -1.2570810
  H       -1.4754410    -0.8694270    -1.9482280
  H       -3.0167220     0.1138590     1.9027270
  H       -1.8007770     1.1928100     1.1867420
  H       -0.3855780    -0.5294870     2.1482020
  H       -1.5277920    -1.8013410     1.6997400
  H       -3.8772320     0.6843320    -1.9011880
  H       -4.5228040     1.0497910    -0.2936460
  H       -3.0892320     1.9062640    -0.8879070
  H        1.9842510    -2.1936970    -0.7089060
  H        4.2276210    -1.0857940    -0.7310670
  H        2.2780980     2.5111560     0.6184940
  H        4.3773590     1.3311980    -0.0481150
units angstrom
no_reorient  #important for SAPT in psi4, default
symmetry c1  #important for SAPT in psi4, default
}

set PROPERTIES_ORIGIN ["COM"]
properties('MP2/aug-cc-pvtz', properties = ['dipole'])
--------------------------------------------------------------------------

    Molecular point group: c1
  Charge       = 0
  Multiplicity = 1
  Basis Set: AUG-CC-PVTZ
    Blend: AUG-CC-PVTZ
  Basis Set: (AUG-CC-PVTZ AUX)
    Blend: AUG-CC-PVTZ-JKFIT

    Orbital Energies [Eh]
    ---------------------

    Doubly Occupied:

       1A    -15.558089     2A    -11.275414     3A    -11.274420
       4A    -11.258011     5A    -11.235952     6A    -11.235188
       7A    -11.226258     8A    -11.212334     9A    -11.211510
      10A    -11.209961    11A    -11.207937    12A    -11.203973
      13A     -1.251956    14A     -1.129928    15A     -1.081994
      16A     -1.048890    17A     -0.994979    18A     -0.955218
      19A     -0.891568    20A     -0.855189    21A     -0.836502
      22A     -0.764905    23A     -0.756683    24A     -0.697065
      25A     -0.668329    26A     -0.641403    27A     -0.641154
      28A     -0.610734    29A     -0.585484    30A     -0.577589
      31A     -0.574507    32A     -0.547568    33A     -0.538831
      34A     -0.525978    35A     -0.507168    36A     -0.473721
      37A     -0.471260    38A     -0.468613    39A     -0.452920
      40A     -0.444346    41A     -0.435578    42A     -0.410076
      43A     -0.377063    44A     -0.332237

  @DF-RHF Final Energy:  -479.89361735428258

   => Energetics <=

    Nuclear Repulsion Energy =            686.7574539724380429
    One-Electron Energy =               -2011.9851728769683632
    Two-Electron Energy =                 845.3341015502477376
    Total Energy =                       -479.8936173542825827
  Basis Set: (AUG-CC-PVTZ AUX)
    Blend: AUG-CC-PVTZ-RI
    Molecular point group: c1

    Geometry (in Angstrom), charge = 0, multiplicity = 1:

       Center              X                  Y                   Z               Mass
    ------------   -----------------  -----------------  -----------------  -----------------
         N            0.970899777551     0.884993300982     0.320257154807    14.003074004430
         C           -2.765736222449    -0.122127699018    -0.270968845193    12.000000000000
         C           -0.489210222449    -1.013092699018    -0.013898845193    12.000000000000
         C           -1.440444222449    -0.309067699018    -1.017244845193    12.000000000000
         C           -2.288816222449     0.179855300982     1.150000154807    12.000000000000
         C           -1.171742222449    -0.841825699018     1.375244154807    12.000000000000
         C           -3.642589422449     0.904156400982    -0.858493645193    12.000000000000
         C            0.889885777551    -0.413206699018    -0.045790845193    12.000000000000
         C            2.017188777551    -1.148096699018    -0.429586845193    12.000000000000
         C            3.267470777551    -0.530757699018    -0.440686845193    12.000000000000
         C            2.181172777551     1.466845300982     0.308835154807    12.000000000000
         C            3.354128777551     0.807705300982    -0.062789845193    12.000000000000
         H           -3.300631222449    -1.083951699018    -0.255979845193     1.007825032230
         H           -0.405445222449    -2.079082699018    -0.260044845193     1.007825032230
         H           -1.033953222449     0.679540300982    -1.263033845193     1.007825032230
         H           -1.547583222449    -0.867945699018    -1.954180845193     1.007825032230
         H           -3.088864222449     0.115340300982     1.896774154807     1.007825032230
         H           -1.872919222449     1.194291300982     1.180789154807     1.007825032230
         H           -0.457720222449    -0.528005699018     2.142249154807     1.007825032230
         H           -1.599934222449    -1.799859699018     1.693787154807     1.007825032230
         H           -3.949374222449     0.685813300982    -1.907140845193     1.007825032230
         H           -4.594946222449     1.051272300982    -0.299598845193     1.007825032230
         H           -3.161374222449     1.907745300982    -0.893859845193     1.007825032230
         H            1.912108777551    -2.192215699018    -0.714858845193     1.007825032230
         H            4.155478777551    -1.084312699018    -0.737019845193     1.007825032230
         H            2.205955777551     2.512637300982     0.612541154807     1.007825032230
         H            4.305216777551     1.332679300982    -0.054067845193     1.007825032230

  Basis Set: AUG-CC-PVTZ
    Blend: AUG-CC-PVTZ
  Basis Set: (AUG-CC-PVTZ AUX)
    Blend: AUG-CC-PVTZ-JKFIT
	 Reference Energy          =    -479.8936173542825827 [Eh]
	 Singles Energy            =      -0.0000000000000000 [Eh]
	 Same-Spin Energy          =      -0.5332015546438206 [Eh]
	 Opposite-Spin Energy      =      -1.7459793346375394 [Eh]
	 Correlation Energy        =      -2.2791808892813599 [Eh]
	 Total Energy              =    -482.1727982435639319 [Eh]

	 ================> DF-SCS-MP2 Energies <==================
	-----------------------------------------------------------
	 SCS Same-Spin Scale       =       0.3333333333333333 [-]
	 SCS Opposite-Spin Scale   =       1.2000000000000000 [-]
	 SCS Same-Spin Energy      =      -0.1777338515479402 [Eh]
	 SCS Opposite-Spin Energy  =      -2.0951752015650471 [Eh]
	 SCS Correlation Energy    =      -2.2729090531129872 [Eh]
	 SCS Total Energy          =    -482.1665264073955655 [Eh]
	-----------------------------------------------------------

  Dipole Moment: [D]
     X:     1.3377      Y:    -1.0739      Z:    -0.4924     Total:     1.7847

*** Psi4 exiting successfully. Buy a developer a beer!
