                               Psi4 1.4a3.dev225

  ==> Input File <==

--------------------------------------------------------------------------
#psi4
#
memory 32 gb

molecule  {
0 1
  N        1.0430420     0.8835120     0.3262100
  C       -2.6935940    -0.1236090    -0.2650160
  C       -0.4170680    -1.0145740    -0.0079460
  C       -1.3683020    -0.3105490    -1.0112920
  C       -2.2567530     0.1126405     1.0818934
  C       -1.0996000    -0.8433070     1.3811970
  C       -3.6002280     0.9375310    -0.8724950
  C        0.9620280    -0.4146880    -0.0398380
  C        2.0893310    -1.1495780    -0.4236340
  C        3.3396130    -0.5322390    -0.4347340
  C        2.2533150     1.4653640     0.3147880
  C        3.4262710     0.8062240    -0.0568370
  H       -3.2284890    -1.0854330    -0.2500270
  H       -0.3333030    -2.0805640    -0.2540920
  H       -0.9618110     0.6780590    -1.2570810
  H       -1.4754410    -0.8694270    -1.9482280
  H       -3.0167220     0.1138590     1.9027270
  H       -1.8007770     1.1928100     1.1867420
  H       -0.3855780    -0.5294870     2.1482020
  H       -1.5277920    -1.8013410     1.6997400
  H       -3.8772320     0.6843320    -1.9011880
  H       -4.5228040     1.0497910    -0.2936460
  H       -3.0892320     1.9062640    -0.8879070
  H        1.9842510    -2.1936970    -0.7089060
  H        4.2276210    -1.0857940    -0.7310670
  H        2.2780980     2.5111560     0.6184940
  H        4.3773590     1.3311980    -0.0481150
units angstrom
no_reorient  #important for SAPT in psi4, default
symmetry c1  #important for SAPT in psi4, default
}

set PROPERTIES_ORIGIN ["COM"]
properties('MP2/aug-cc-pvtz', properties = ['dipole'])
--------------------------------------------------------------------------

    Molecular point group: c1
  Charge       = 0
  Multiplicity = 1
  Basis Set: AUG-CC-PVTZ
    Blend: AUG-CC-PVTZ
  Basis Set: (AUG-CC-PVTZ AUX)
    Blend: AUG-CC-PVTZ-JKFIT

    Orbital Energies [Eh]
    ---------------------

    Doubly Occupied:

       1A    -15.557807     2A    -11.275328     3A    -11.274217
       4A    -11.257897     5A    -11.235864     6A    -11.235130
       7A    -11.226198     8A    -11.212204     9A    -11.211147
      10A    -11.210519    11A    -11.208432    12A    -11.206753
      13A     -1.251827    14A     -1.137506    15A     -1.081980
      16A     -1.050232    17A     -0.992878    18A     -0.954141
      19A     -0.897362    20A     -0.855571    21A     -0.838880
      22A     -0.765738    23A     -0.751977    24A     -0.696733
      25A     -0.669184    26A     -0.643307    27A     -0.641265
      28A     -0.610896    29A     -0.585778    30A     -0.575632
      31A     -0.574172    32A     -0.553132    33A     -0.537305
      34A     -0.526064    35A     -0.509858    36A     -0.476702
      37A     -0.472470    38A     -0.462850    39A     -0.454824
      40A     -0.448889    41A     -0.427527    42A     -0.408632
      43A     -0.376853    44A     -0.332020

  @DF-RHF Final Energy:  -479.88376143167608

   => Energetics <=

    Nuclear Repulsion Energy =            686.9679324378602132
    One-Electron Energy =               -2012.3560286389238172
    Two-Electron Energy =                 845.5043347693874694
    Total Energy =                       -479.8837614316760209
  Basis Set: (AUG-CC-PVTZ AUX)
    Blend: AUG-CC-PVTZ-RI
    Molecular point group: c1

    Geometry (in Angstrom), charge = 0, multiplicity = 1:

       Center              X                  Y                   Z               Mass
    ------------   -----------------  -----------------  -----------------  -----------------
         N            0.976102826591     0.887293016512     0.327259156127    14.003074004430
         C           -2.760533173409    -0.119827983488    -0.263966843873    12.000000000000
         C           -0.484007173409    -1.010792983488    -0.006896843873    12.000000000000
         C           -1.435241173409    -0.306767983488    -1.010242843873    12.000000000000
         C           -2.323692173409     0.116421516512     1.082942556127    12.000000000000
         C           -1.166539173409    -0.839525983488     1.382246156127    12.000000000000
         C           -3.667167173409     0.941312016512    -0.871445843873    12.000000000000
         C            0.895088826591    -0.410906983488    -0.038788843873    12.000000000000
         C            2.022391826591    -1.145796983488    -0.422584843873    12.000000000000
         C            3.272673826591    -0.528457983488    -0.433684843873    12.000000000000
         C            2.186375826591     1.469145016512     0.315837156127    12.000000000000
         C            3.359331826591     0.810005016512    -0.055787843873    12.000000000000
         H           -3.295428173409    -1.081651983488    -0.248977843873     1.007825032230
         H           -0.400242173409    -2.076782983488    -0.253042843873     1.007825032230
         H           -1.028750173409     0.681840016512    -1.256031843873     1.007825032230
         H           -1.542380173409    -0.865645983488    -1.947178843873     1.007825032230
         H           -3.083661173409     0.117640016512     1.903776156127     1.007825032230
         H           -1.867716173409     1.196591016512     1.187791156127     1.007825032230
         H           -0.452517173409    -0.525705983488     2.149251156127     1.007825032230
         H           -1.594731173409    -1.797559983488     1.700789156127     1.007825032230
         H           -3.944171173409     0.688113016512    -1.900138843873     1.007825032230
         H           -4.589743173409     1.053572016512    -0.292596843873     1.007825032230
         H           -3.156171173409     1.910045016512    -0.886857843873     1.007825032230
         H            1.917311826591    -2.189915983488    -0.707856843873     1.007825032230
         H            4.160681826591    -1.082012983488    -0.730017843873     1.007825032230
         H            2.211158826591     2.514937016512     0.619543156127     1.007825032230
         H            4.310419826591     1.334979016512    -0.047065843873     1.007825032230

  Basis Set: AUG-CC-PVTZ
    Blend: AUG-CC-PVTZ
  Basis Set: (AUG-CC-PVTZ AUX)
    Blend: AUG-CC-PVTZ-JKFIT
	 Reference Energy          =    -479.8837614316760778 [Eh]
	 Singles Energy            =      -0.0000000000000000 [Eh]
	 Same-Spin Energy          =      -0.5338051378783025 [Eh]
	 Opposite-Spin Energy      =      -1.7467828099725875 [Eh]
	 Correlation Energy        =      -2.2805879478508899 [Eh]
	 Total Energy              =    -482.1643493795269819 [Eh]

	 ================> DF-SCS-MP2 Energies <==================
	-----------------------------------------------------------
	 SCS Same-Spin Scale       =       0.3333333333333333 [-]
	 SCS Opposite-Spin Scale   =       1.2000000000000000 [-]
	 SCS Same-Spin Energy      =      -0.1779350459594342 [Eh]
	 SCS Opposite-Spin Energy  =      -2.0961393719671051 [Eh]
	 SCS Correlation Energy    =      -2.2740744179265393 [Eh]
	 SCS Total Energy          =    -482.1578358496026340 [Eh]
	-----------------------------------------------------------

  Dipole Moment: [D]
     X:     1.3313      Y:    -1.0943      Z:    -0.5162     Total:     1.7990

*** Psi4 exiting successfully. Buy a developer a beer!
