                               Psi4 1.4a3.dev225

  ==> Input File <==

--------------------------------------------------------------------------
#psi4
#
memory 32 gb

molecule  {
0 1
  N        1.0430420     0.8835120     0.3262100
  C       -2.6935940    -0.1236090    -0.2650160
  C       -0.4170680    -1.0145740    -0.0079460
  C       -1.3683020    -0.3105490    -1.0112920
  C       -2.2166740     0.1783740     1.1559530
  C       -1.0996000    -0.8433070     1.3811970
  C       -3.6002280     0.9375310    -0.8724950
  C        0.9620280    -0.4146880    -0.0398380
  C        2.0893310    -1.1495780    -0.4236340
  C        3.1602879    -0.6207825    -0.4331420
  C        2.2533150     1.4653640     0.3147880
  C        3.4262710     0.8062240    -0.0568370
  H       -3.2284890    -1.0854330    -0.2500270
  H       -0.3333030    -2.0805640    -0.2540920
  H       -0.9618110     0.6780590    -1.2570810
  H       -1.4754410    -0.8694270    -1.9482280
  H       -3.0167220     0.1138590     1.9027270
  H       -1.8007770     1.1928100     1.1867420
  H       -0.3855780    -0.5294870     2.1482020
  H       -1.5277920    -1.8013410     1.6997400
  H       -3.8772320     0.6843320    -1.9011880
  H       -4.5228040     1.0497910    -0.2936460
  H       -3.0892320     1.9062640    -0.8879070
  H        1.9842510    -2.1936970    -0.7089060
  H        4.2276210    -1.0857940    -0.7310670
  H        2.2780980     2.5111560     0.6184940
  H        4.3773590     1.3311980    -0.0481150
units angstrom
no_reorient  #important for SAPT in psi4, default
symmetry c1  #important for SAPT in psi4, default
}

set PROPERTIES_ORIGIN ["COM"]
properties('MP2/aug-cc-pvtz', properties = ['dipole'])
--------------------------------------------------------------------------

    Molecular point group: c1
  Charge       = 0
  Multiplicity = 1
  Basis Set: AUG-CC-PVTZ
    Blend: AUG-CC-PVTZ
  Basis Set: (AUG-CC-PVTZ AUX)
    Blend: AUG-CC-PVTZ-JKFIT

    Orbital Energies [Eh]
    ---------------------

    Doubly Occupied:

       1A    -15.554511     2A    -11.283731     3A    -11.266567
       4A    -11.249200     5A    -11.238867     6A    -11.229609
       7A    -11.216647     8A    -11.214211     9A    -11.213510
      10A    -11.212640    11A    -11.206725    12A    -11.205560
      13A     -1.256434    14A     -1.129657    15A     -1.112149
      16A     -1.043415    17A     -0.992386    18A     -0.959010
      19A     -0.900024    20A     -0.847805    21A     -0.833442
      22A     -0.763275    23A     -0.756465    24A     -0.698292
      25A     -0.675399    26A     -0.644544    27A     -0.638696
      28A     -0.607265    29A     -0.592348    30A     -0.583089
      31A     -0.568170    32A     -0.551963    33A     -0.540135
      34A     -0.516802    35A     -0.496988    36A     -0.476192
      37A     -0.471412    38A     -0.462594    39A     -0.455405
      40A     -0.449444    41A     -0.441278    42A     -0.403609
      43A     -0.401370    44A     -0.325369

  @DF-RHF Final Energy:  -479.83406954204156

   => Energetics <=

    Nuclear Repulsion Energy =            688.8066164461555445
    One-Electron Energy =               -2015.9089674582410225
    Two-Electron Energy =                 847.2682814700438030
    Total Energy =                       -479.8340695420415614
  Basis Set: (AUG-CC-PVTZ AUX)
    Blend: AUG-CC-PVTZ-RI
    Molecular point group: c1

    Geometry (in Angstrom), charge = 0, multiplicity = 1:

       Center              X                  Y                   Z               Mass
    ------------   -----------------  -----------------  -----------------  -----------------
         N            0.986473659129     0.888991869767     0.321624742849    14.003074004430
         C           -2.750162340871    -0.118129130233    -0.269601257151    12.000000000000
         C           -0.473636340871    -1.009094130233    -0.012531257151    12.000000000000
         C           -1.424870340871    -0.305069130233    -1.015877257151    12.000000000000
         C           -2.273242340871     0.183853869767     1.151367742849    12.000000000000
         C           -1.156168340871    -0.837827130233     1.376611742849    12.000000000000
         C           -3.656796340871     0.943010869767    -0.877080257151    12.000000000000
         C            0.905459659129    -0.409208130233    -0.044423257151    12.000000000000
         C            2.032762659129    -1.144098130233    -0.428219257151    12.000000000000
         C            3.103719559129    -0.615302630233    -0.437727257151    12.000000000000
         C            2.196746659129     1.470843869767     0.310202742849    12.000000000000
         C            3.369702659129     0.811703869767    -0.061422257151    12.000000000000
         H           -3.285057340871    -1.079953130233    -0.254612257151     1.007825032230
         H           -0.389871340871    -2.075084130233    -0.258677257151     1.007825032230
         H           -1.018379340871     0.683538869767    -1.261666257151     1.007825032230
         H           -1.532009340871    -0.863947130233    -1.952813257151     1.007825032230
         H           -3.073290340871     0.119338869767     1.898141742849     1.007825032230
         H           -1.857345340871     1.198289869767     1.182156742849     1.007825032230
         H           -0.442146340871    -0.524007130233     2.143616742849     1.007825032230
         H           -1.584360340871    -1.795861130233     1.695154742849     1.007825032230
         H           -3.933800340871     0.689811869767    -1.905773257151     1.007825032230
         H           -4.579372340871     1.055270869767    -0.298231257151     1.007825032230
         H           -3.145800340871     1.911743869767    -0.892492257151     1.007825032230
         H            1.927682659129    -2.188217130233    -0.713491257151     1.007825032230
         H            4.171052659129    -1.080314130233    -0.735652257151     1.007825032230
         H            2.221529659129     2.516635869767     0.613908742849     1.007825032230
         H            4.320790659129     1.336677869767    -0.052700257151     1.007825032230

  Basis Set: AUG-CC-PVTZ
    Blend: AUG-CC-PVTZ
  Basis Set: (AUG-CC-PVTZ AUX)
    Blend: AUG-CC-PVTZ-JKFIT
	 Reference Energy          =    -479.8340695420415614 [Eh]
	 Singles Energy            =      -0.0000000000000000 [Eh]
	 Same-Spin Energy          =      -0.5324154391354813 [Eh]
	 Opposite-Spin Energy      =      -1.7466269177754974 [Eh]
	 Correlation Energy        =      -2.2790423569109786 [Eh]
	 Total Energy              =    -482.1131118989525248 [Eh]

	 ================> DF-SCS-MP2 Energies <==================
	-----------------------------------------------------------
	 SCS Same-Spin Scale       =       0.3333333333333333 [-]
	 SCS Opposite-Spin Scale   =       1.2000000000000000 [-]
	 SCS Same-Spin Energy      =      -0.1774718130451604 [Eh]
	 SCS Opposite-Spin Energy  =      -2.0959523013305970 [Eh]
	 SCS Correlation Energy    =      -2.2734241143757572 [Eh]
	 SCS Total Energy          =    -482.1074936564173186 [Eh]
	-----------------------------------------------------------

  Dipole Moment: [D]
     X:     1.1326      Y:    -1.0812      Z:    -0.4736     Total:     1.6359

*** Psi4 exiting successfully. Buy a developer a beer!
