                               Psi4 1.4a3.dev225

  ==> Input File <==

--------------------------------------------------------------------------
#psi4
#
memory 32 gb

molecule  {
0 1
  N        1.0430420     0.8835120     0.3262100
  C       -2.6935940    -0.1236090    -0.2650160
  C       -0.4170680    -1.0145740    -0.0079460
  C       -1.3683020    -0.3105490    -1.0112920
  C       -2.2166740     0.1783740     1.1559530
  C       -1.0996000    -0.8433070     1.3811970
  C       -3.6002280     0.9375310    -0.8724950
  C        0.9620280    -0.4146880    -0.0398380
  C        2.0893310    -1.1495780    -0.4236340
  C        3.3396130    -0.5322390    -0.4347340
  C        2.2533150     1.4653640     0.3147880
  C        3.4262710     0.8062240    -0.0568370
  H       -3.2284890    -1.0854330    -0.2500270
  H       -0.3333030    -2.0805640    -0.2540920
  H       -0.9618110     0.6780590    -1.2570810
  H       -1.4754410    -0.8694270    -1.9482280
  H       -3.0167220     0.1138590     1.9027270
  H       -1.8007770     1.1928100     1.1867420
  H       -0.3855780    -0.5294870     2.1482020
  H       -1.5277920    -1.8013410     1.6997400
  H       -3.8614603     0.7171527    -1.9128033
  H       -4.5228040     1.0497910    -0.2936460
  H       -3.0892320     1.9062640    -0.8879070
  H        1.9842510    -2.1936970    -0.7089060
  H        4.2276210    -1.0857940    -0.7310670
  H        2.2780980     2.5111560     0.6184940
  H        4.3773590     1.3311980    -0.0481150
units angstrom
no_reorient  #important for SAPT in psi4, default
symmetry c1  #important for SAPT in psi4, default
}

set PROPERTIES_ORIGIN ["COM"]
properties('MP2/aug-cc-pvtz', properties = ['dipole'])
--------------------------------------------------------------------------

    Molecular point group: c1
  Charge       = 0
  Multiplicity = 1
  Basis Set: AUG-CC-PVTZ
    Blend: AUG-CC-PVTZ
  Basis Set: (AUG-CC-PVTZ AUX)
    Blend: AUG-CC-PVTZ-JKFIT

    Orbital Energies [Eh]
    ---------------------

    Doubly Occupied:

       1A    -15.558023     2A    -11.275346     3A    -11.274368
       4A    -11.257957     5A    -11.235896     6A    -11.235124
       7A    -11.226166     8A    -11.214822     9A    -11.211480
      10A    -11.209744    11A    -11.205177    12A    -11.203874
      13A     -1.251887    14A     -1.127579    15A     -1.081872
      16A     -1.046464    17A     -0.991141    18A     -0.954841
      19A     -0.893861    20A     -0.855226    21A     -0.836803
      22A     -0.764431    23A     -0.755974    24A     -0.696815
      25A     -0.668110    26A     -0.640738    27A     -0.639944
      28A     -0.608165    29A     -0.584150    30A     -0.577708
      31A     -0.574123    32A     -0.553082    33A     -0.537877
      34A     -0.526549    35A     -0.510653    36A     -0.473232
      37A     -0.469013    38A     -0.461415    39A     -0.452752
      40A     -0.446842    41A     -0.440086    42A     -0.410015
      43A     -0.377003    44A     -0.332137

  @DF-RHF Final Energy:  -479.89648428276769

   => Energetics <=

    Nuclear Repulsion Energy =            685.8543622442139167
    One-Electron Energy =               -2010.2047645265115534
    Two-Electron Energy =                 844.4539179995299492
    Total Energy =                       -479.8964842827676875
  Basis Set: (AUG-CC-PVTZ AUX)
    Blend: AUG-CC-PVTZ-RI
    Molecular point group: c1

    Geometry (in Angstrom), charge = 0, multiplicity = 1:

       Center              X                  Y                   Z               Mass
    ------------   -----------------  -----------------  -----------------  -----------------
         N            0.973019151517     0.882191991002     0.321815967428    14.003074004430
         C           -2.763616848483    -0.124929008998    -0.269410032572    12.000000000000
         C           -0.487090848483    -1.015894008998    -0.012340032572    12.000000000000
         C           -1.438324848483    -0.311869008998    -1.015686032572    12.000000000000
         C           -2.286696848483     0.177053991002     1.151558967428    12.000000000000
         C           -1.169622848483    -0.844627008998     1.376802967428    12.000000000000
         C           -3.670250848483     0.936210991002    -0.876889032572    12.000000000000
         C            0.892005151517    -0.416008008998    -0.044232032572    12.000000000000
         C            2.019308151517    -1.150898008998    -0.428028032572    12.000000000000
         C            3.269590151517    -0.533559008998    -0.439128032572    12.000000000000
         C            2.183292151517     1.464043991002     0.310393967428    12.000000000000
         C            3.356248151517     0.804903991002    -0.061231032572    12.000000000000
         H           -3.298511848483    -1.086753008998    -0.254421032572     1.007825032230
         H           -0.403325848483    -2.081884008998    -0.258486032572     1.007825032230
         H           -1.031833848483     0.676738991002    -1.261475032572     1.007825032230
         H           -1.545463848483    -0.870747008998    -1.952622032572     1.007825032230
         H           -3.086744848483     0.112538991002     1.898332967428     1.007825032230
         H           -1.870799848483     1.191489991002     1.182347967428     1.007825032230
         H           -0.455600848483    -0.530807008998     2.143807967428     1.007825032230
         H           -1.597814848483    -1.802661008998     1.695345967428     1.007825032230
         H           -3.931483148483     0.715832691002    -1.917197332572     1.007825032230
         H           -4.592826848483     1.048470991002    -0.298040032572     1.007825032230
         H           -3.159254848483     1.904943991002    -0.892301032572     1.007825032230
         H            1.914228151517    -2.195017008998    -0.713300032572     1.007825032230
         H            4.157598151517    -1.087114008998    -0.735461032572     1.007825032230
         H            2.208075151517     2.509835991002     0.614099967428     1.007825032230
         H            4.307336151517     1.329877991002    -0.052509032572     1.007825032230

  Basis Set: AUG-CC-PVTZ
    Blend: AUG-CC-PVTZ
  Basis Set: (AUG-CC-PVTZ AUX)
    Blend: AUG-CC-PVTZ-JKFIT
	 Reference Energy          =    -479.8964842827676875 [Eh]
	 Singles Energy            =      -0.0000000000000000 [Eh]
	 Same-Spin Energy          =      -0.5327919176878613 [Eh]
	 Opposite-Spin Energy      =      -1.7455371007515228 [Eh]
	 Correlation Energy        =      -2.2783290184393841 [Eh]
	 Total Energy              =    -482.1748133012070525 [Eh]

	 ================> DF-SCS-MP2 Energies <==================
	-----------------------------------------------------------
	 SCS Same-Spin Scale       =       0.3333333333333333 [-]
	 SCS Opposite-Spin Scale   =       1.2000000000000000 [-]
	 SCS Same-Spin Energy      =      -0.1775973058959537 [Eh]
	 SCS Opposite-Spin Energy  =      -2.0946445209018272 [Eh]
	 SCS Correlation Energy    =      -2.2722418267977811 [Eh]
	 SCS Total Energy          =    -482.1687261095654549 [Eh]
	-----------------------------------------------------------

  Dipole Moment: [D]
     X:     1.3391      Y:    -1.0638      Z:    -0.4980     Total:     1.7812

*** Psi4 exiting successfully. Buy a developer a beer!
