                               Psi4 1.4a3.dev225

  ==> Input File <==

--------------------------------------------------------------------------
#psi4
#
memory 32 gb

molecule  {
0 1
  N        1.0430420     0.8835120     0.3262100
  C       -2.6935940    -0.1236090    -0.2650160
  C       -0.4170680    -1.0145740    -0.0079460
  C       -1.4079830    -0.3439017    -0.9956133
  C       -2.2166740     0.1783740     1.1559530
  C       -1.0996000    -0.8433070     1.3811970
  C       -3.6002280     0.9375310    -0.8724950
  C        0.9620280    -0.4146880    -0.0398380
  C        2.0893310    -1.1495780    -0.4236340
  C        3.3396130    -0.5322390    -0.4347340
  C        2.2533150     1.4653640     0.3147880
  C        3.4262710     0.8062240    -0.0568370
  H       -3.2284890    -1.0854330    -0.2500270
  H       -0.3333030    -2.0805640    -0.2540920
  H       -0.9618110     0.6780590    -1.2570810
  H       -1.4754410    -0.8694270    -1.9482280
  H       -3.0167220     0.1138590     1.9027270
  H       -1.8007770     1.1928100     1.1867420
  H       -0.3855780    -0.5294870     2.1482020
  H       -1.5277920    -1.8013410     1.6997400
  H       -3.8772320     0.6843320    -1.9011880
  H       -4.5228040     1.0497910    -0.2936460
  H       -3.0892320     1.9062640    -0.8879070
  H        1.9842510    -2.1936970    -0.7089060
  H        4.2276210    -1.0857940    -0.7310670
  H        2.2780980     2.5111560     0.6184940
  H        4.3773590     1.3311980    -0.0481150
units angstrom
no_reorient  #important for SAPT in psi4, default
symmetry c1  #important for SAPT in psi4, default
}

set PROPERTIES_ORIGIN ["COM"]
properties('MP2/aug-cc-pvtz', properties = ['dipole'])
--------------------------------------------------------------------------

    Molecular point group: c1
  Charge       = 0
  Multiplicity = 1
  Basis Set: AUG-CC-PVTZ
    Blend: AUG-CC-PVTZ
  Basis Set: (AUG-CC-PVTZ AUX)
    Blend: AUG-CC-PVTZ-JKFIT

    Orbital Energies [Eh]
    ---------------------

    Doubly Occupied:

       1A    -15.558329     2A    -11.275810     3A    -11.274395
       4A    -11.258107     5A    -11.236259     6A    -11.235618
       7A    -11.226205     8A    -11.213046     9A    -11.211500
      10A    -11.211411    11A    -11.205730    12A    -11.204036
      13A     -1.251960    14A     -1.130753    15A     -1.082153
      16A     -1.047454    17A     -0.992255    18A     -0.954212
      19A     -0.895436    20A     -0.855345    21A     -0.837110
      22A     -0.766053    23A     -0.752505    24A     -0.697195
      25A     -0.669036    26A     -0.642422    27A     -0.641055
      28A     -0.609164    29A     -0.584825    30A     -0.574708
      31A     -0.574288    32A     -0.552699    33A     -0.538197
      34A     -0.524480    35A     -0.510859    36A     -0.475394
      37A     -0.469250    38A     -0.464400    39A     -0.450130
      40A     -0.445304    41A     -0.437879    42A     -0.410468
      43A     -0.376950    44A     -0.332629

  @DF-RHF Final Energy:  -479.89319880816538

   => Energetics <=

    Nuclear Repulsion Energy =            685.9829944946337719
    One-Electron Energy =               -2010.4383616265788532
    Two-Electron Energy =                 844.5621683237795878
    Total Energy =                       -479.8931988081653799
  Basis Set: (AUG-CC-PVTZ AUX)
    Blend: AUG-CC-PVTZ-RI
    Molecular point group: c1

    Geometry (in Angstrom), charge = 0, multiplicity = 1:

       Center              X                  Y                   Z               Mass
    ------------   -----------------  -----------------  -----------------  -----------------
         N            0.976073184172     0.884881344988     0.320575587384    14.003074004430
         C           -2.760562815828    -0.122239655012    -0.270650412616    12.000000000000
         C           -0.484036815828    -1.013204655012    -0.013580412616    12.000000000000
         C           -1.474951815828    -0.342532355012    -1.001247712616    12.000000000000
         C           -2.283642815828     0.179743344988     1.150318587384    12.000000000000
         C           -1.166568815828    -0.841937655012     1.375562587384    12.000000000000
         C           -3.667196815828     0.938900344988    -0.878129412616    12.000000000000
         C            0.895059184172    -0.413318655012    -0.045472412616    12.000000000000
         C            2.022362184172    -1.148208655012    -0.429268412616    12.000000000000
         C            3.272644184172    -0.530869655012    -0.440368412616    12.000000000000
         C            2.186346184172     1.466733344988     0.309153587384    12.000000000000
         C            3.359302184172     0.807593344988    -0.062471412616    12.000000000000
         H           -3.295457815828    -1.084063655012    -0.255661412616     1.007825032230
         H           -0.400271815828    -2.079194655012    -0.259726412616     1.007825032230
         H           -1.028779815828     0.679428344988    -1.262715412616     1.007825032230
         H           -1.542409815828    -0.868057655012    -1.953862412616     1.007825032230
         H           -3.083690815828     0.115228344988     1.897092587384     1.007825032230
         H           -1.867745815828     1.194179344988     1.181107587384     1.007825032230
         H           -0.452546815828    -0.528117655012     2.142567587384     1.007825032230
         H           -1.594760815828    -1.799971655012     1.694105587384     1.007825032230
         H           -3.944200815828     0.685701344988    -1.906822412616     1.007825032230
         H           -4.589772815828     1.051160344988    -0.299280412616     1.007825032230
         H           -3.156200815828     1.907633344988    -0.893541412616     1.007825032230
         H            1.917282184172    -2.192327655012    -0.714540412616     1.007825032230
         H            4.160652184172    -1.084424655012    -0.736701412616     1.007825032230
         H            2.211129184172     2.512525344988     0.612859587384     1.007825032230
         H            4.310390184172     1.332567344988    -0.053749412616     1.007825032230

  Basis Set: AUG-CC-PVTZ
    Blend: AUG-CC-PVTZ
  Basis Set: (AUG-CC-PVTZ AUX)
    Blend: AUG-CC-PVTZ-JKFIT
	 Reference Energy          =    -479.8931988081653799 [Eh]
	 Singles Energy            =      -0.0000000000000000 [Eh]
	 Same-Spin Energy          =      -0.5331673497312583 [Eh]
	 Opposite-Spin Energy      =      -1.7459844510201363 [Eh]
	 Correlation Energy        =      -2.2791518007513947 [Eh]
	 Total Energy              =    -482.1723506089167586 [Eh]

	 ================> DF-SCS-MP2 Energies <==================
	-----------------------------------------------------------
	 SCS Same-Spin Scale       =       0.3333333333333333 [-]
	 SCS Opposite-Spin Scale   =       1.2000000000000000 [-]
	 SCS Same-Spin Energy      =      -0.1777224499104194 [Eh]
	 SCS Opposite-Spin Energy  =      -2.0951813412241633 [Eh]
	 SCS Correlation Energy    =      -2.2729037911345826 [Eh]
	 SCS Total Energy          =    -482.1661025992999612 [Eh]
	-----------------------------------------------------------

  Dipole Moment: [D]
     X:     1.3467      Y:    -1.0753      Z:    -0.4885     Total:     1.7912

*** Psi4 exiting successfully. Buy a developer a beer!
