                               Psi4 1.4a3.dev225

  ==> Input File <==

--------------------------------------------------------------------------
#psi4
#
memory 32 gb

molecule  {
0 1
  N        1.0430420     0.8835120     0.3262100
  C       -2.6935940    -0.1236090    -0.2650160
  C       -0.4170680    -1.0145740    -0.0079460
  C       -1.3505838    -0.2182537    -0.9574842
  C       -2.2166740     0.1783740     1.1559530
  C       -1.0996000    -0.8433070     1.3811970
  C       -3.6002280     0.9375310    -0.8724950
  C        0.9620280    -0.4146880    -0.0398380
  C        2.0893310    -1.1495780    -0.4236340
  C        3.3396130    -0.5322390    -0.4347340
  C        2.2533150     1.4653640     0.3147880
  C        3.4262710     0.8062240    -0.0568370
  H       -3.2284890    -1.0854330    -0.2500270
  H       -0.3333030    -2.0805640    -0.2540920
  H       -0.9618110     0.6780590    -1.2570810
  H       -1.4754410    -0.8694270    -1.9482280
  H       -3.0167220     0.1138590     1.9027270
  H       -1.8007770     1.1928100     1.1867420
  H       -0.3855780    -0.5294870     2.1482020
  H       -1.5277920    -1.8013410     1.6997400
  H       -3.8772320     0.6843320    -1.9011880
  H       -4.5228040     1.0497910    -0.2936460
  H       -3.0892320     1.9062640    -0.8879070
  H        1.9842510    -2.1936970    -0.7089060
  H        4.2276210    -1.0857940    -0.7310670
  H        2.2780980     2.5111560     0.6184940
  H        4.3773590     1.3311980    -0.0481150
units angstrom
no_reorient  #important for SAPT in psi4, default
symmetry c1  #important for SAPT in psi4, default
}

set PROPERTIES_ORIGIN ["COM"]
properties('MP2/aug-cc-pvtz', properties = ['dipole'])
--------------------------------------------------------------------------

    Molecular point group: c1
  Charge       = 0
  Multiplicity = 1
  Basis Set: AUG-CC-PVTZ
    Blend: AUG-CC-PVTZ
  Basis Set: (AUG-CC-PVTZ AUX)
    Blend: AUG-CC-PVTZ-JKFIT

    Orbital Energies [Eh]
    ---------------------

    Doubly Occupied:

       1A    -15.558224     2A    -11.275452     3A    -11.274767
       4A    -11.258212     5A    -11.235983     6A    -11.235164
       7A    -11.226900     8A    -11.214529     9A    -11.211698
      10A    -11.211127    11A    -11.205604    12A    -11.203582
      13A     -1.252451    14A     -1.131721    15A     -1.082127
      16A     -1.047743    17A     -0.992317    18A     -0.953543
      19A     -0.895333    20A     -0.855690    21A     -0.836518
      22A     -0.764344    23A     -0.762089    24A     -0.696862
      25A     -0.666035    26A     -0.641688    27A     -0.637971
      28A     -0.609829    29A     -0.588134    30A     -0.581405
      31A     -0.574346    32A     -0.550252    33A     -0.537701
      34A     -0.529586    35A     -0.514516    36A     -0.474064
      37A     -0.467199    38A     -0.460453    39A     -0.453666
      40A     -0.452555    41A     -0.429859    42A     -0.410190
      43A     -0.377260    44A     -0.331768

  @DF-RHF Final Energy:  -479.88345401648672

   => Energetics <=

    Nuclear Repulsion Energy =            686.8616653453219669
    One-Electron Energy =               -2012.1493279985545541
    Two-Electron Energy =                 845.4042086367458069
    Total Energy =                       -479.8834540164866667
  Basis Set: (AUG-CC-PVTZ AUX)
    Blend: AUG-CC-PVTZ-RI
    Molecular point group: c1

    Geometry (in Angstrom), charge = 0, multiplicity = 1:

       Center              X                  Y                   Z               Mass
    ------------   -----------------  -----------------  -----------------  -----------------
         N            0.971798181202     0.875523277748     0.317735791434    14.003074004430
         C           -2.764837818798    -0.131597722252    -0.273490208566    12.000000000000
         C           -0.488311818798    -1.022562722252    -0.016420208566    12.000000000000
         C           -1.421827618798    -0.226242422252    -0.965958408566    12.000000000000
         C           -2.287917818798     0.170385277748     1.147478791434    12.000000000000
         C           -1.170843818798    -0.851295722252     1.372722791434    12.000000000000
         C           -3.671471818798     0.929542277748    -0.880969208566    12.000000000000
         C            0.890784181202    -0.422676722252    -0.048312208566    12.000000000000
         C            2.018087181202    -1.157566722252    -0.432108208566    12.000000000000
         C            3.268369181202    -0.540227722252    -0.443208208566    12.000000000000
         C            2.182071181202     1.457375277748     0.306313791434    12.000000000000
         C            3.355027181202     0.798235277748    -0.065311208566    12.000000000000
         H           -3.299732818798    -1.093421722252    -0.258501208566     1.007825032230
         H           -0.404546818798    -2.088552722252    -0.262566208566     1.007825032230
         H           -1.033054818798     0.670070277748    -1.265555208566     1.007825032230
         H           -1.546684818798    -0.877415722252    -1.956702208566     1.007825032230
         H           -3.087965818798     0.105870277748     1.894252791434     1.007825032230
         H           -1.872020818798     1.184821277748     1.178267791434     1.007825032230
         H           -0.456821818798    -0.537475722252     2.139727791434     1.007825032230
         H           -1.599035818798    -1.809329722252     1.691265791434     1.007825032230
         H           -3.948475818798     0.676343277748    -1.909662208566     1.007825032230
         H           -4.594047818798     1.041802277748    -0.302120208566     1.007825032230
         H           -3.160475818798     1.898275277748    -0.896381208566     1.007825032230
         H            1.913007181202    -2.201685722252    -0.717380208566     1.007825032230
         H            4.156377181202    -1.093782722252    -0.739541208566     1.007825032230
         H            2.206854181202     2.503167277748     0.610019791434     1.007825032230
         H            4.306115181202     1.323209277748    -0.056589208566     1.007825032230

  Basis Set: AUG-CC-PVTZ
    Blend: AUG-CC-PVTZ
  Basis Set: (AUG-CC-PVTZ AUX)
    Blend: AUG-CC-PVTZ-JKFIT
	 Reference Energy          =    -479.8834540164867235 [Eh]
	 Singles Energy            =      -0.0000000000000000 [Eh]
	 Same-Spin Energy          =      -0.5331691180202898 [Eh]
	 Opposite-Spin Energy      =      -1.7462491286322490 [Eh]
	 Correlation Energy        =      -2.2794182466525390 [Eh]
	 Total Energy              =    -482.1628722631392634 [Eh]

	 ================> DF-SCS-MP2 Energies <==================
	-----------------------------------------------------------
	 SCS Same-Spin Scale       =       0.3333333333333333 [-]
	 SCS Opposite-Spin Scale   =       1.2000000000000000 [-]
	 SCS Same-Spin Energy      =      -0.1777230393400966 [Eh]
	 SCS Opposite-Spin Energy  =      -2.0954989543586988 [Eh]
	 SCS Correlation Energy    =      -2.2732219936987952 [Eh]
	 SCS Total Energy          =    -482.1566760101854925 [Eh]
	-----------------------------------------------------------

  Dipole Moment: [D]
     X:     1.3314      Y:    -1.0213      Z:    -0.4390     Total:     1.7345

*** Psi4 exiting successfully. Buy a developer a beer!
