                               Psi4 1.4a3.dev225

  ==> Input File <==

--------------------------------------------------------------------------
#psi4
#
memory 32 gb

molecule  {
0 1
  N        1.0430420     0.8835120     0.3262100
  C       -2.6935940    -0.1236090    -0.2650160
  C       -0.4170680    -1.0145740    -0.0079460
  C       -1.3683020    -0.3105490    -1.0112920
  C       -2.2166740     0.1783740     1.1559530
  C       -1.0996000    -0.8433070     1.3811970
  C       -3.6002280     0.9375310    -0.8724950
  C        0.9620280    -0.4146880    -0.0398380
  C        2.0893310    -1.1495780    -0.4236340
  C        3.3396130    -0.5322390    -0.4347340
  C        2.2533150     1.4653640     0.3147880
  C        3.4262710     0.8062240    -0.0568370
  H       -3.2284890    -1.0854330    -0.2500270
  H       -0.3333030    -2.0805640    -0.2540920
  H       -0.9618110     0.6780590    -1.2570810
  H       -1.4754410    -0.8694270    -1.9482280
  H       -3.0167220     0.1138590     1.9027270
  H       -1.8007770     1.1928100     1.1867420
  H       -0.3855780    -0.5294870     2.1482020
  H       -1.5277920    -1.8013410     1.6997400
  H       -3.8289816     0.7835592    -1.9322189
  H       -4.5228040     1.0497910    -0.2936460
  H       -3.0892320     1.9062640    -0.8879070
  H        1.9842510    -2.1936970    -0.7089060
  H        4.2276210    -1.0857940    -0.7310670
  H        2.2780980     2.5111560     0.6184940
  H        4.3773590     1.3311980    -0.0481150
units angstrom
no_reorient  #important for SAPT in psi4, default
symmetry c1  #important for SAPT in psi4, default
}

set PROPERTIES_ORIGIN ["COM"]
properties('MP2/aug-cc-pvtz', properties = ['dipole'])
--------------------------------------------------------------------------

    Molecular point group: c1
  Charge       = 0
  Multiplicity = 1
  Basis Set: AUG-CC-PVTZ
    Blend: AUG-CC-PVTZ
  Basis Set: (AUG-CC-PVTZ AUX)
    Blend: AUG-CC-PVTZ-JKFIT

    Orbital Energies [Eh]
    ---------------------

    Doubly Occupied:

       1A    -15.558050     2A    -11.275377     3A    -11.274393
       4A    -11.257985     5A    -11.235925     6A    -11.235156
       7A    -11.226223     8A    -11.215299     9A    -11.211641
      10A    -11.209829    11A    -11.205063    12A    -11.204173
      13A     -1.251918    14A     -1.127656    15A     -1.081901
      16A     -1.046458    17A     -0.991047    18A     -0.954944
      19A     -0.894116    20A     -0.855276    21A     -0.836951
      22A     -0.764493    23A     -0.756744    24A     -0.696874
      25A     -0.668127    26A     -0.640880    27A     -0.639739
      28A     -0.608577    29A     -0.582920    30A     -0.578023
      31A     -0.574201    32A     -0.555643    33A     -0.537539
      34A     -0.525689    35A     -0.507736    36A     -0.473337
      37A     -0.469123    38A     -0.462189    39A     -0.452839
      40A     -0.446668    41A     -0.440499    42A     -0.410034
      43A     -0.377032    44A     -0.332171

  @DF-RHF Final Energy:  -479.89539218080836

   => Energetics <=

    Nuclear Repulsion Energy =            685.8398035309347733
    One-Electron Energy =               -2010.1694726313346564
    Two-Electron Energy =                 844.4342769195914116
    Total Energy =                       -479.8953921808083578
  Basis Set: (AUG-CC-PVTZ AUX)
    Blend: AUG-CC-PVTZ-RI
    Molecular point group: c1

    Geometry (in Angstrom), charge = 0, multiplicity = 1:

       Center              X                  Y                   Z               Mass
    ------------   -----------------  -----------------  -----------------  -----------------
         N            0.972815993898     0.881776611494     0.321937414008    14.003074004430
         C           -2.763820006102    -0.125344388506    -0.269288585992    12.000000000000
         C           -0.487294006102    -1.016309388506    -0.012218585992    12.000000000000
         C           -1.438528006102    -0.312284388506    -1.015564585992    12.000000000000
         C           -2.286900006102     0.176638611494     1.151680414008    12.000000000000
         C           -1.169826006102    -0.845042388506     1.376924414008    12.000000000000
         C           -3.670454006102     0.935795611494    -0.876767585992    12.000000000000
         C            0.891801993898    -0.416423388506    -0.044110585992    12.000000000000
         C            2.019104993898    -1.151313388506    -0.427906585992    12.000000000000
         C            3.269386993898    -0.533974388506    -0.439006585992    12.000000000000
         C            2.183088993898     1.463628611494     0.310515414008    12.000000000000
         C            3.356044993898     0.804488611494    -0.061109585992    12.000000000000
         H           -3.298715006102    -1.087168388506    -0.254299585992     1.007825032230
         H           -0.403529006102    -2.082299388506    -0.258364585992     1.007825032230
         H           -1.032037006102     0.676323611494    -1.261353585992     1.007825032230
         H           -1.545667006102    -0.871162388506    -1.952500585992     1.007825032230
         H           -3.086948006102     0.112123611494     1.898454414008     1.007825032230
         H           -1.871003006102     1.191074611494     1.182469414008     1.007825032230
         H           -0.455804006102    -0.531222388506     2.143929414008     1.007825032230
         H           -1.598018006102    -1.803076388506     1.695467414008     1.007825032230
         H           -3.899207606102     0.781823811494    -1.936491485992     1.007825032230
         H           -4.593030006102     1.048055611494    -0.297918585992     1.007825032230
         H           -3.159458006102     1.904528611494    -0.892179585992     1.007825032230
         H            1.914024993898    -2.195432388506    -0.713178585992     1.007825032230
         H            4.157394993898    -1.087529388506    -0.735339585992     1.007825032230
         H            2.207871993898     2.509420611494     0.614221414008     1.007825032230
         H            4.307132993898     1.329462611494    -0.052387585992     1.007825032230

  Basis Set: AUG-CC-PVTZ
    Blend: AUG-CC-PVTZ
  Basis Set: (AUG-CC-PVTZ AUX)
    Blend: AUG-CC-PVTZ-JKFIT
	 Reference Energy          =    -479.8953921808083578 [Eh]
	 Singles Energy            =      -0.0000000000000000 [Eh]
	 Same-Spin Energy          =      -0.5328394029452077 [Eh]
	 Opposite-Spin Energy      =      -1.7455780918931283 [Eh]
	 Correlation Energy        =      -2.2784174948383358 [Eh]
	 Total Energy              =    -482.1738096756466803 [Eh]

	 ================> DF-SCS-MP2 Energies <==================
	-----------------------------------------------------------
	 SCS Same-Spin Scale       =       0.3333333333333333 [-]
	 SCS Opposite-Spin Scale   =       1.2000000000000000 [-]
	 SCS Same-Spin Energy      =      -0.1776131343150692 [Eh]
	 SCS Opposite-Spin Energy  =      -2.0946937102717538 [Eh]
	 SCS Correlation Energy    =      -2.2723068445868231 [Eh]
	 SCS Total Energy          =    -482.1676990253951658 [Eh]
	-----------------------------------------------------------

  Dipole Moment: [D]
     X:     1.3570      Y:    -1.0483      Z:    -0.5031     Total:     1.7871

*** Psi4 exiting successfully. Buy a developer a beer!
