                               Psi4 1.4a3.dev225

  ==> Input File <==

--------------------------------------------------------------------------
#psi4
#
memory 32 gb

molecule  {
0 1
  N        1.0430420     0.8835120     0.3262100
  C       -2.6935940    -0.1236090    -0.2650160
  C       -0.4170680    -1.0145740    -0.0079460
  C       -1.3683020    -0.3105490    -1.0112920
  C       -2.2166740     0.1783740     1.1559530
  C       -1.0996000    -0.8433070     1.3811970
  C       -3.6002280     0.9375310    -0.8724950
  C        0.9620280    -0.4146880    -0.0398380
  C        2.0893310    -1.1495780    -0.4236340
  C        3.3396130    -0.5322390    -0.4347340
  C        2.2352905     1.4566985     0.3149581
  C        3.4262710     0.8062240    -0.0568370
  H       -3.2284890    -1.0854330    -0.2500270
  H       -0.3333030    -2.0805640    -0.2540920
  H       -0.9618110     0.6780590    -1.2570810
  H       -1.4754410    -0.8694270    -1.9482280
  H       -3.0167220     0.1138590     1.9027270
  H       -1.8007770     1.1928100     1.1867420
  H       -0.3855780    -0.5294870     2.1482020
  H       -1.5277920    -1.8013410     1.6997400
  H       -3.8772320     0.6843320    -1.9011880
  H       -4.5228040     1.0497910    -0.2936460
  H       -3.0892320     1.9062640    -0.8879070
  H        1.9842510    -2.1936970    -0.7089060
  H        4.2276210    -1.0857940    -0.7310670
  H        2.2780980     2.5111560     0.6184940
  H        4.3773590     1.3311980    -0.0481150
units angstrom
no_reorient  #important for SAPT in psi4, default
symmetry c1  #important for SAPT in psi4, default
}

set PROPERTIES_ORIGIN ["COM"]
properties('MP2/aug-cc-pvtz', properties = ['dipole'])
--------------------------------------------------------------------------

    Molecular point group: c1
  Charge       = 0
  Multiplicity = 1
  Basis Set: AUG-CC-PVTZ
    Blend: AUG-CC-PVTZ
  Basis Set: (AUG-CC-PVTZ AUX)
    Blend: AUG-CC-PVTZ-JKFIT

    Orbital Energies [Eh]
    ---------------------

    Doubly Occupied:

       1A    -15.557137     2A    -11.275495     3A    -11.274763
       4A    -11.257472     5A    -11.236481     6A    -11.234666
       7A    -11.226184     8A    -11.214728     9A    -11.211541
      10A    -11.209849    11A    -11.205350    12A    -11.203873
      13A     -1.257109    14A     -1.127864    15A     -1.082768
      16A     -1.046254    17A     -0.990690    18A     -0.954552
      19A     -0.893797    20A     -0.853794    21A     -0.838216
      22A     -0.764765    23A     -0.755784    24A     -0.696678
      25A     -0.669130    26A     -0.641025    27A     -0.639491
      28A     -0.606786    29A     -0.585154    30A     -0.577727
      31A     -0.573534    32A     -0.552111    33A     -0.539473
      34A     -0.528052    35A     -0.512233    36A     -0.473065
      37A     -0.469050    38A     -0.461136    39A     -0.452855
      40A     -0.447137    41A     -0.439617    42A     -0.409450
      43A     -0.379685    44A     -0.330250

  @DF-RHF Final Energy:  -479.89686105263195

   => Energetics <=

    Nuclear Repulsion Energy =            686.1881129256746590
    One-Electron Energy =               -2010.8564087546981227
    Two-Electron Energy =                 844.7714347763915157
    Total Energy =                       -479.8968610526319480
  Basis Set: (AUG-CC-PVTZ AUX)
    Blend: AUG-CC-PVTZ-RI
    Molecular point group: c1

    Geometry (in Angstrom), charge = 0, multiplicity = 1:

       Center              X                  Y                   Z               Mass
    ------------   -----------------  -----------------  -----------------  -----------------
         N            0.974460241799     0.883042680803     0.321730643745    14.003074004430
         C           -2.762175758201    -0.124078319197    -0.269495356255    12.000000000000
         C           -0.485649758201    -1.015043319197    -0.012425356255    12.000000000000
         C           -1.436883758201    -0.311018319197    -1.015771356255    12.000000000000
         C           -2.285255758201     0.177904680803     1.151473643745    12.000000000000
         C           -1.168181758201    -0.843776319197     1.376717643745    12.000000000000
         C           -3.668809758201     0.937061680803    -0.876974356255    12.000000000000
         C            0.893446241799    -0.415157319197    -0.044317356255    12.000000000000
         C            2.020749241799    -1.150047319197    -0.428113356255    12.000000000000
         C            3.271031241799    -0.532708319197    -0.439213356255    12.000000000000
         C            2.166708741799     1.456229180803     0.310478743745    12.000000000000
         C            3.357689241799     0.805754680803    -0.061316356255    12.000000000000
         H           -3.297070758201    -1.085902319197    -0.254506356255     1.007825032230
         H           -0.401884758201    -2.081033319197    -0.258571356255     1.007825032230
         H           -1.030392758201     0.677589680803    -1.261560356255     1.007825032230
         H           -1.544022758201    -0.869896319197    -1.952707356255     1.007825032230
         H           -3.085303758201     0.113389680803     1.898247643745     1.007825032230
         H           -1.869358758201     1.192340680803     1.182262643745     1.007825032230
         H           -0.454159758201    -0.529956319197     2.143722643745     1.007825032230
         H           -1.596373758201    -1.801810319197     1.695260643745     1.007825032230
         H           -3.945813758201     0.683862680803    -1.905667356255     1.007825032230
         H           -4.591385758201     1.049321680803    -0.298125356255     1.007825032230
         H           -3.157813758201     1.905794680803    -0.892386356255     1.007825032230
         H            1.915669241799    -2.194166319197    -0.713385356255     1.007825032230
         H            4.159039241799    -1.086263319197    -0.735546356255     1.007825032230
         H            2.209516241799     2.510686680803     0.614014643745     1.007825032230
         H            4.308777241799     1.330728680803    -0.052594356255     1.007825032230

  Basis Set: AUG-CC-PVTZ
    Blend: AUG-CC-PVTZ
  Basis Set: (AUG-CC-PVTZ AUX)
    Blend: AUG-CC-PVTZ-JKFIT
	 Reference Energy          =    -479.8968610526319480 [Eh]
	 Singles Energy            =      -0.0000000000000000 [Eh]
	 Same-Spin Energy          =      -0.5326068914477355 [Eh]
	 Opposite-Spin Energy      =      -1.7451339187631543 [Eh]
	 Correlation Energy        =      -2.2777408102108900 [Eh]
	 Total Energy              =    -482.1746018628428487 [Eh]

	 ================> DF-SCS-MP2 Energies <==================
	-----------------------------------------------------------
	 SCS Same-Spin Scale       =       0.3333333333333333 [-]
	 SCS Opposite-Spin Scale   =       1.2000000000000000 [-]
	 SCS Same-Spin Energy      =      -0.1775356304825785 [Eh]
	 SCS Opposite-Spin Energy  =      -2.0941607025157851 [Eh]
	 SCS Correlation Energy    =      -2.2716963329983635 [Eh]
	 SCS Total Energy          =    -482.1685573856303222 [Eh]
	-----------------------------------------------------------

  Dipole Moment: [D]
     X:     1.3156      Y:    -1.0753      Z:    -0.4940     Total:     1.7695

*** Psi4 exiting successfully. Buy a developer a beer!
