                               Psi4 1.4a3.dev225

  ==> Input File <==

--------------------------------------------------------------------------
#psi4
#
memory 32 gb

molecule  {
0 1
  N        1.0430420     0.8835120     0.3262100
  C       -2.6935940    -0.1236090    -0.2650160
  C       -0.4170680    -1.0145740    -0.0079460
  C       -1.3683020    -0.3105490    -1.0112920
  C       -2.2166740     0.1783740     1.1559530
  C       -1.1725877    -0.7765522     1.3664800
  C       -3.6002280     0.9375310    -0.8724950
  C        0.9620280    -0.4146880    -0.0398380
  C        2.0893310    -1.1495780    -0.4236340
  C        3.3396130    -0.5322390    -0.4347340
  C        2.2533150     1.4653640     0.3147880
  C        3.4262710     0.8062240    -0.0568370
  H       -3.2284890    -1.0854330    -0.2500270
  H       -0.3333030    -2.0805640    -0.2540920
  H       -0.9618110     0.6780590    -1.2570810
  H       -1.4754410    -0.8694270    -1.9482280
  H       -3.0167220     0.1138590     1.9027270
  H       -1.8007770     1.1928100     1.1867420
  H       -0.3855780    -0.5294870     2.1482020
  H       -1.5277920    -1.8013410     1.6997400
  H       -3.8772320     0.6843320    -1.9011880
  H       -4.5228040     1.0497910    -0.2936460
  H       -3.0892320     1.9062640    -0.8879070
  H        1.9842510    -2.1936970    -0.7089060
  H        4.2276210    -1.0857940    -0.7310670
  H        2.2780980     2.5111560     0.6184940
  H        4.3773590     1.3311980    -0.0481150
units angstrom
no_reorient  #important for SAPT in psi4, default
symmetry c1  #important for SAPT in psi4, default
}

set PROPERTIES_ORIGIN ["COM"]
properties('MP2/aug-cc-pvtz', properties = ['dipole'])
--------------------------------------------------------------------------

    Molecular point group: c1
  Charge       = 0
  Multiplicity = 1
  Basis Set: AUG-CC-PVTZ
    Blend: AUG-CC-PVTZ
  Basis Set: (AUG-CC-PVTZ AUX)
    Blend: AUG-CC-PVTZ-JKFIT

    Orbital Energies [Eh]
    ---------------------

    Doubly Occupied:

       1A    -15.557994     2A    -11.275325     3A    -11.274286
       4A    -11.257968     5A    -11.235874     6A    -11.235273
       7A    -11.227100     8A    -11.215487     9A    -11.215422
      10A    -11.209533    11A    -11.205491    12A    -11.199346
      13A     -1.251722    14A     -1.134978    15A     -1.081944
      16A     -1.047032    17A     -0.993512    18A     -0.963817
      19A     -0.891143    20A     -0.855102    21A     -0.833737
      22A     -0.760082    23A     -0.758926    24A     -0.695809
      25A     -0.668840    26A     -0.643292    27A     -0.639433
      28A     -0.612064    29A     -0.584036    30A     -0.578656
      31A     -0.576085    32A     -0.551908    33A     -0.538676
      34A     -0.527077    35A     -0.508802    36A     -0.488605
      37A     -0.465567    38A     -0.459583    39A     -0.447930
      40A     -0.445588    41A     -0.434184    42A     -0.410124
      43A     -0.376696    44A     -0.331135

  @DF-RHF Final Energy:  -479.88516866162297

   => Energetics <=

    Nuclear Repulsion Energy =            686.6217877306553419
    One-Electron Energy =               -2011.6835537642461986
    Two-Electron Energy =                 845.1765973719678868
    Total Energy =                       -479.8851686616229699
  Basis Set: (AUG-CC-PVTZ AUX)
    Blend: AUG-CC-PVTZ-RI
    Molecular point group: c1

    Geometry (in Angstrom), charge = 0, multiplicity = 1:

       Center              X                  Y                   Z               Mass
    ------------   -----------------  -----------------  -----------------  -----------------
         N            0.978553815285     0.877425494388     0.322839411754    14.003074004430
         C           -2.758082184715    -0.129695505612    -0.268386588246    12.000000000000
         C           -0.481556184715    -1.020660505612    -0.011316588246    12.000000000000
         C           -1.432790184715    -0.316635505612    -1.014662588246    12.000000000000
         C           -2.281162184715     0.172287494388     1.152582411754    12.000000000000
         C           -1.237075884715    -0.782638705612     1.363109411754    12.000000000000
         C           -3.664716184715     0.931444494388    -0.875865588246    12.000000000000
         C            0.897539815285    -0.420774505612    -0.043208588246    12.000000000000
         C            2.024842815285    -1.155664505612    -0.427004588246    12.000000000000
         C            3.275124815285    -0.538325505612    -0.438104588246    12.000000000000
         C            2.188826815285     1.459277494388     0.311417411754    12.000000000000
         C            3.361782815285     0.800137494388    -0.060207588246    12.000000000000
         H           -3.292977184715    -1.091519505612    -0.253397588246     1.007825032230
         H           -0.397791184715    -2.086650505612    -0.257462588246     1.007825032230
         H           -1.026299184715     0.671972494388    -1.260451588246     1.007825032230
         H           -1.539929184715    -0.875513505612    -1.951598588246     1.007825032230
         H           -3.081210184715     0.107772494388     1.899356411754     1.007825032230
         H           -1.865265184715     1.186723494388     1.183371411754     1.007825032230
         H           -0.450066184715    -0.535573505612     2.144831411754     1.007825032230
         H           -1.592280184715    -1.807427505612     1.696369411754     1.007825032230
         H           -3.941720184715     0.678245494388    -1.904558588246     1.007825032230
         H           -4.587292184715     1.043704494388    -0.297016588246     1.007825032230
         H           -3.153720184715     1.900177494388    -0.891277588246     1.007825032230
         H            1.919762815285    -2.199783505612    -0.712276588246     1.007825032230
         H            4.163132815285    -1.091880505612    -0.734437588246     1.007825032230
         H            2.213609815285     2.505069494388     0.615123411754     1.007825032230
         H            4.312870815285     1.325111494388    -0.051485588246     1.007825032230

  Basis Set: AUG-CC-PVTZ
    Blend: AUG-CC-PVTZ
  Basis Set: (AUG-CC-PVTZ AUX)
    Blend: AUG-CC-PVTZ-JKFIT
	 Reference Energy          =    -479.8851686616229699 [Eh]
	 Singles Energy            =      -0.0000000000000000 [Eh]
	 Same-Spin Energy          =      -0.5337798081651561 [Eh]
	 Opposite-Spin Energy      =      -1.7466088172615344 [Eh]
	 Correlation Energy        =      -2.2803886254266903 [Eh]
	 Total Energy              =    -482.1655572870496371 [Eh]

	 ================> DF-SCS-MP2 Energies <==================
	-----------------------------------------------------------
	 SCS Same-Spin Scale       =       0.3333333333333333 [-]
	 SCS Opposite-Spin Scale   =       1.2000000000000000 [-]
	 SCS Same-Spin Energy      =      -0.1779266027217187 [Eh]
	 SCS Opposite-Spin Energy  =      -2.0959305807138411 [Eh]
	 SCS Correlation Energy    =      -2.2738571834355596 [Eh]
	 SCS Total Energy          =    -482.1590258450585225 [Eh]
	-----------------------------------------------------------

  Dipole Moment: [D]
     X:     1.2969      Y:    -1.0379      Z:    -0.5134     Total:     1.7386

*** Psi4 exiting successfully. Buy a developer a beer!
