                               Psi4 1.4a3.dev225

  ==> Input File <==

--------------------------------------------------------------------------
#psi4
#
memory 32 gb

molecule  {
0 1
  N        1.0430420     0.8835120     0.3262100
  C       -2.7627344    -0.2051066    -0.3846234
  C       -0.4170680    -1.0145740    -0.0079460
  C       -1.3683020    -0.3105490    -1.0112920
  C       -2.2166740     0.1783740     1.1559530
  C       -1.0996000    -0.8433070     1.3811970
  C       -3.6002280     0.9375310    -0.8724950
  C        0.9620280    -0.4146880    -0.0398380
  C        2.0893310    -1.1495780    -0.4236340
  C        3.3396130    -0.5322390    -0.4347340
  C        2.2533150     1.4653640     0.3147880
  C        3.4262710     0.8062240    -0.0568370
  H       -3.2284890    -1.0854330    -0.2500270
  H       -0.3333030    -2.0805640    -0.2540920
  H       -0.9618110     0.6780590    -1.2570810
  H       -1.4754410    -0.8694270    -1.9482280
  H       -3.0167220     0.1138590     1.9027270
  H       -1.8007770     1.1928100     1.1867420
  H       -0.3855780    -0.5294870     2.1482020
  H       -1.5277920    -1.8013410     1.6997400
  H       -3.8772320     0.6843320    -1.9011880
  H       -4.5228040     1.0497910    -0.2936460
  H       -3.0892320     1.9062640    -0.8879070
  H        1.9842510    -2.1936970    -0.7089060
  H        4.2276210    -1.0857940    -0.7310670
  H        2.2780980     2.5111560     0.6184940
  H        4.3773590     1.3311980    -0.0481150
units angstrom
no_reorient  #important for SAPT in psi4, default
symmetry c1  #important for SAPT in psi4, default
}

set PROPERTIES_ORIGIN ["COM"]
properties('MP2/aug-cc-pvtz', properties = ['dipole'])
--------------------------------------------------------------------------

    Molecular point group: c1
  Charge       = 0
  Multiplicity = 1
  Basis Set: AUG-CC-PVTZ
    Blend: AUG-CC-PVTZ
  Basis Set: (AUG-CC-PVTZ AUX)
    Blend: AUG-CC-PVTZ-JKFIT

    Orbital Energies [Eh]
    ---------------------

    Doubly Occupied:

       1A    -15.558347     2A    -11.275585     3A    -11.274473
       4A    -11.258077     5A    -11.236201     6A    -11.235433
       7A    -11.226394     8A    -11.213674     9A    -11.211405
      10A    -11.209783    11A    -11.206257    12A    -11.205556
      13A     -1.252037    14A     -1.118751    15A     -1.081942
      16A     -1.045059    17A     -0.995070    18A     -0.949171
      19A     -0.892447    20A     -0.855059    21A     -0.831803
      22A     -0.774805    23A     -0.759440    24A     -0.696963
      25A     -0.666447    26A     -0.640453    27A     -0.634984
      28A     -0.605150    29A     -0.588422    30A     -0.577565
      31A     -0.571928    32A     -0.552702    33A     -0.540410
      34A     -0.530023    35A     -0.516886    36A     -0.481994
      37A     -0.469644    38A     -0.468384    39A     -0.458076
      40A     -0.449855    41A     -0.410563    42A     -0.392158
      43A     -0.376967    44A     -0.332726

  @DF-RHF Final Energy:  -479.87358501488541

   => Energetics <=

    Nuclear Repulsion Energy =            684.1096362950479488
    One-Electron Energy =               -2006.7083048716101530
    Two-Electron Energy =                 842.7250835616767972
    Total Energy =                       -479.8735850148854070
  Basis Set: (AUG-CC-PVTZ AUX)
    Blend: AUG-CC-PVTZ-RI
    Molecular point group: c1

    Geometry (in Angstrom), charge = 0, multiplicity = 1:

       Center              X                  Y                   Z               Mass
    ------------   -----------------  -----------------  -----------------  -----------------
         N            0.978267274376     0.888467102115     0.330651485293    14.003074004430
         C           -2.827509125624    -0.200151497885    -0.380181914707    12.000000000000
         C           -0.481842725624    -1.009618897885    -0.003504514707    12.000000000000
         C           -1.433076725624    -0.305593897885    -1.006850514707    12.000000000000
         C           -2.281448725624     0.183329102115     1.160394485293    12.000000000000
         C           -1.164374725624    -0.838351897885     1.385638485293    12.000000000000
         C           -3.665002725624     0.942486102115    -0.868053514707    12.000000000000
         C            0.897253274376    -0.409732897885    -0.035396514707    12.000000000000
         C            2.024556274376    -1.144622897885    -0.419192514707    12.000000000000
         C            3.274838274376    -0.527283897885    -0.430292514707    12.000000000000
         C            2.188540274376     1.470319102115     0.319229485293    12.000000000000
         C            3.361496274376     0.811179102115    -0.052395514707    12.000000000000
         H           -3.293263725624    -1.080477897885    -0.245585514707     1.007825032230
         H           -0.398077725624    -2.075608897885    -0.249650514707     1.007825032230
         H           -1.026585725624     0.683014102115    -1.252639514707     1.007825032230
         H           -1.540215725624    -0.864471897885    -1.943786514707     1.007825032230
         H           -3.081496725624     0.118814102115     1.907168485293     1.007825032230
         H           -1.865551725624     1.197765102115     1.191183485293     1.007825032230
         H           -0.450352725624    -0.524531897885     2.152643485293     1.007825032230
         H           -1.592566725624    -1.796385897885     1.704181485293     1.007825032230
         H           -3.942006725624     0.689287102115    -1.896746514707     1.007825032230
         H           -4.587578725624     1.054746102115    -0.289204514707     1.007825032230
         H           -3.154006725624     1.911219102115    -0.883465514707     1.007825032230
         H            1.919476274376    -2.188741897885    -0.704464514707     1.007825032230
         H            4.162846274376    -1.080838897885    -0.726625514707     1.007825032230
         H            2.213323274376     2.516111102115     0.622935485293     1.007825032230
         H            4.312584274376     1.336153102115    -0.043673514707     1.007825032230

  Basis Set: AUG-CC-PVTZ
    Blend: AUG-CC-PVTZ
  Basis Set: (AUG-CC-PVTZ AUX)
    Blend: AUG-CC-PVTZ-JKFIT
	 Reference Energy          =    -479.8735850148854070 [Eh]
	 Singles Energy            =      -0.0000000000000000 [Eh]
	 Same-Spin Energy          =      -0.5330438111409502 [Eh]
	 Opposite-Spin Energy      =      -1.7468637143904653 [Eh]
	 Correlation Energy        =      -2.2799075255314154 [Eh]
	 Total Energy              =    -482.1534925404168348 [Eh]

	 ================> DF-SCS-MP2 Energies <==================
	-----------------------------------------------------------
	 SCS Same-Spin Scale       =       0.3333333333333333 [-]
	 SCS Opposite-Spin Scale   =       1.2000000000000000 [-]
	 SCS Same-Spin Energy      =      -0.1776812703803167 [Eh]
	 SCS Opposite-Spin Energy  =      -2.0962364572685583 [Eh]
	 SCS Correlation Energy    =      -2.2739177276488749 [Eh]
	 SCS Total Energy          =    -482.1475027425343001 [Eh]
	-----------------------------------------------------------

  Dipole Moment: [D]
     X:     1.3244      Y:    -1.0806      Z:    -0.5202     Total:     1.7867

*** Psi4 exiting successfully. Buy a developer a beer!
