                               Psi4 1.4a3.dev225

  ==> Input File <==

--------------------------------------------------------------------------
#psi4
#
memory 32 gb

molecule  {
0 1
  N        1.0430420     0.8835120     0.3262100
  C       -2.6935940    -0.1236090    -0.2650160
  C       -0.3966454    -1.0600958    -0.0243026
  C       -1.3683020    -0.3105490    -1.0112920
  C       -2.2166740     0.1783740     1.1559530
  C       -1.0996000    -0.8433070     1.3811970
  C       -3.6002280     0.9375310    -0.8724950
  C        0.9620280    -0.4146880    -0.0398380
  C        2.0893310    -1.1495780    -0.4236340
  C        3.3396130    -0.5322390    -0.4347340
  C        2.2533150     1.4653640     0.3147880
  C        3.4262710     0.8062240    -0.0568370
  H       -3.2284890    -1.0854330    -0.2500270
  H       -0.3333030    -2.0805640    -0.2540920
  H       -0.9618110     0.6780590    -1.2570810
  H       -1.4754410    -0.8694270    -1.9482280
  H       -3.0167220     0.1138590     1.9027270
  H       -1.8007770     1.1928100     1.1867420
  H       -0.3855780    -0.5294870     2.1482020
  H       -1.5277920    -1.8013410     1.6997400
  H       -3.8772320     0.6843320    -1.9011880
  H       -4.5228040     1.0497910    -0.2936460
  H       -3.0892320     1.9062640    -0.8879070
  H        1.9842510    -2.1936970    -0.7089060
  H        4.2276210    -1.0857940    -0.7310670
  H        2.2780980     2.5111560     0.6184940
  H        4.3773590     1.3311980    -0.0481150
units angstrom
no_reorient  #important for SAPT in psi4, default
symmetry c1  #important for SAPT in psi4, default
}

set PROPERTIES_ORIGIN ["COM"]
properties('MP2/aug-cc-pvtz', properties = ['dipole'])
--------------------------------------------------------------------------

    Molecular point group: c1
  Charge       = 0
  Multiplicity = 1
  Basis Set: AUG-CC-PVTZ
    Blend: AUG-CC-PVTZ
  Basis Set: (AUG-CC-PVTZ AUX)
    Blend: AUG-CC-PVTZ-JKFIT

    Orbital Energies [Eh]
    ---------------------

    Doubly Occupied:

       1A    -15.558187     2A    -11.275702     3A    -11.274573
       4A    -11.257401     5A    -11.235322     6A    -11.233905
       7A    -11.224712     8A    -11.214739     9A    -11.212788
      10A    -11.211143    11A    -11.205387    12A    -11.203906
      13A     -1.251352    14A     -1.123740    15A     -1.081398
      16A     -1.047101    17A     -0.989457    18A     -0.953854
      19A     -0.893640    20A     -0.855124    21A     -0.835836
      22A     -0.767546    23A     -0.755678    24A     -0.698480
      25A     -0.666609    26A     -0.641473    27A     -0.638153
      28A     -0.606651    29A     -0.587294    30A     -0.578238
      31A     -0.574049    32A     -0.551669    33A     -0.538105
      34A     -0.526995    35A     -0.513110    36A     -0.471019
      37A     -0.468388    38A     -0.460181    39A     -0.455510
      40A     -0.446441    41A     -0.439755    42A     -0.408732
      43A     -0.376701    44A     -0.330430

  @DF-RHF Final Energy:  -479.89404284631325

   => Energetics <=

    Nuclear Repulsion Energy =            685.1888851833822400
    One-Electron Energy =               -2008.8849080626621344
    Two-Electron Energy =                 843.8019800329667532
    Total Energy =                       -479.8940428463132548
  Basis Set: (AUG-CC-PVTZ AUX)
    Blend: AUG-CC-PVTZ-RI
    Molecular point group: c1

    Geometry (in Angstrom), charge = 0, multiplicity = 1:

       Center              X                  Y                   Z               Mass
    ------------   -----------------  -----------------  -----------------  -----------------
         N            0.971596761704     0.885787680593     0.322961526607    14.003074004430
         C           -2.765039238296    -0.121333319407    -0.268264473393    12.000000000000
         C           -0.468090638296    -1.057820119407    -0.027551073393    12.000000000000
         C           -1.439747238296    -0.308273319407    -1.014540473393    12.000000000000
         C           -2.288119238296     0.180649680593     1.152704526607    12.000000000000
         C           -1.171045238296    -0.841031319407     1.377948526607    12.000000000000
         C           -3.671673238296     0.939806680593    -0.875743473393    12.000000000000
         C            0.890582761704    -0.412412319407    -0.043086473393    12.000000000000
         C            2.017885761704    -1.147302319407    -0.426882473393    12.000000000000
         C            3.268167761704    -0.529963319407    -0.437982473393    12.000000000000
         C            2.181869761704     1.467639680593     0.311539526607    12.000000000000
         C            3.354825761704     0.808499680593    -0.060085473393    12.000000000000
         H           -3.299934238296    -1.083157319407    -0.253275473393     1.007825032230
         H           -0.404748238296    -2.078288319407    -0.257340473393     1.007825032230
         H           -1.033256238296     0.680334680593    -1.260329473393     1.007825032230
         H           -1.546886238296    -0.867151319407    -1.951476473393     1.007825032230
         H           -3.088167238296     0.116134680593     1.899478526607     1.007825032230
         H           -1.872222238296     1.195085680593     1.183493526607     1.007825032230
         H           -0.457023238296    -0.527211319407     2.144953526607     1.007825032230
         H           -1.599237238296    -1.799065319407     1.696491526607     1.007825032230
         H           -3.948677238296     0.686607680593    -1.904436473393     1.007825032230
         H           -4.594249238296     1.052066680593    -0.296894473393     1.007825032230
         H           -3.160677238296     1.908539680593    -0.891155473393     1.007825032230
         H            1.912805761704    -2.191421319407    -0.712154473393     1.007825032230
         H            4.156175761704    -1.083518319407    -0.734315473393     1.007825032230
         H            2.206652761704     2.513431680593     0.615245526607     1.007825032230
         H            4.305913761704     1.333473680593    -0.051363473393     1.007825032230

  Basis Set: AUG-CC-PVTZ
    Blend: AUG-CC-PVTZ
  Basis Set: (AUG-CC-PVTZ AUX)
    Blend: AUG-CC-PVTZ-JKFIT
	 Reference Energy          =    -479.8940428463132548 [Eh]
	 Singles Energy            =      -0.0000000000000000 [Eh]
	 Same-Spin Energy          =      -0.5325715771652039 [Eh]
	 Opposite-Spin Energy      =      -1.7453264926106333 [Eh]
	 Correlation Energy        =      -2.2778980697758371 [Eh]
	 Total Energy              =    -482.1719409160891132 [Eh]

	 ================> DF-SCS-MP2 Energies <==================
	-----------------------------------------------------------
	 SCS Same-Spin Scale       =       0.3333333333333333 [-]
	 SCS Opposite-Spin Scale   =       1.2000000000000000 [-]
	 SCS Same-Spin Energy      =      -0.1775238590550680 [Eh]
	 SCS Opposite-Spin Energy  =      -2.0943917911327601 [Eh]
	 SCS Correlation Energy    =      -2.2719156501878279 [Eh]
	 SCS Total Energy          =    -482.1659584965011049 [Eh]
	-----------------------------------------------------------

  Dipole Moment: [D]
     X:     1.2934      Y:    -1.1049      Z:    -0.5038     Total:     1.7741

*** Psi4 exiting successfully. Buy a developer a beer!
