                               Psi4 1.4a3.dev225

  ==> Input File <==

--------------------------------------------------------------------------
#psi4
#
memory 32 gb

molecule  {
0 1
  N        1.0430420     0.8835120     0.3262100
  C       -2.6935940    -0.1236090    -0.2650160
  C       -0.3745675    -1.1048313    -0.0406781
  C       -1.3683020    -0.3105490    -1.0112920
  C       -2.2166740     0.1783740     1.1559530
  C       -1.0996000    -0.8433070     1.3811970
  C       -3.6002280     0.9375310    -0.8724950
  C        0.9620280    -0.4146880    -0.0398380
  C        2.0893310    -1.1495780    -0.4236340
  C        3.3396130    -0.5322390    -0.4347340
  C        2.2533150     1.4653640     0.3147880
  C        3.4262710     0.8062240    -0.0568370
  H       -3.2284890    -1.0854330    -0.2500270
  H       -0.3333030    -2.0805640    -0.2540920
  H       -0.9618110     0.6780590    -1.2570810
  H       -1.4754410    -0.8694270    -1.9482280
  H       -3.0167220     0.1138590     1.9027270
  H       -1.8007770     1.1928100     1.1867420
  H       -0.3855780    -0.5294870     2.1482020
  H       -1.5277920    -1.8013410     1.6997400
  H       -3.8772320     0.6843320    -1.9011880
  H       -4.5228040     1.0497910    -0.2936460
  H       -3.0892320     1.9062640    -0.8879070
  H        1.9842510    -2.1936970    -0.7089060
  H        4.2276210    -1.0857940    -0.7310670
  H        2.2780980     2.5111560     0.6184940
  H        4.3773590     1.3311980    -0.0481150
units angstrom
no_reorient  #important for SAPT in psi4, default
symmetry c1  #important for SAPT in psi4, default
}

set PROPERTIES_ORIGIN ["COM"]
properties('MP2/aug-cc-pvtz', properties = ['dipole'])
--------------------------------------------------------------------------

    Molecular point group: c1
  Charge       = 0
  Multiplicity = 1
  Basis Set: AUG-CC-PVTZ
    Blend: AUG-CC-PVTZ
  Basis Set: (AUG-CC-PVTZ AUX)
    Blend: AUG-CC-PVTZ-JKFIT

    Orbital Energies [Eh]
    ---------------------

    Doubly Occupied:

       1A    -15.558401     2A    -11.276390     3A    -11.274812
       4A    -11.256846     5A    -11.234756     6A    -11.232691
       7A    -11.223809     8A    -11.215001     9A    -11.214430
      10A    -11.212878    11A    -11.205604    12A    -11.204242
      13A     -1.250938    14A     -1.120299    15A     -1.080982
      16A     -1.047895    17A     -0.987863    18A     -0.953282
      19A     -0.893744    20A     -0.855049    21A     -0.835083
      22A     -0.772177    23A     -0.755269    24A     -0.700513
      25A     -0.665078    26A     -0.643239    27A     -0.636148
      28A     -0.605353    29A     -0.590658    30A     -0.578570
      31A     -0.573763    32A     -0.551576    33A     -0.538230
      34A     -0.526951    35A     -0.514754    36A     -0.475521
      37A     -0.468583    38A     -0.459246    39A     -0.449602
      40A     -0.445028    41A     -0.439646    42A     -0.407288
      43A     -0.376446    44A     -0.328457

  @DF-RHF Final Energy:  -479.88433772117833

   => Energetics <=

    Nuclear Repulsion Energy =            684.5189830383303615
    One-Electron Energy =               -2007.5324547590730617
    Two-Electron Energy =                 843.1291339995643739
    Total Energy =                       -479.8843377211783263
  Basis Set: (AUG-CC-PVTZ AUX)
    Blend: AUG-CC-PVTZ-RI
    Molecular point group: c1

    Geometry (in Angstrom), charge = 0, multiplicity = 1:

       Center              X                  Y                   Z               Mass
    ------------   -----------------  -----------------  -----------------  -----------------
         N            0.969952434117     0.889119510920     0.324181148329    14.003074004430
         C           -2.766683565883    -0.118001489080    -0.267044851671    12.000000000000
         C           -0.447657065883    -1.099223789080    -0.042706951671    12.000000000000
         C           -1.441391565883    -0.304941489080    -1.013320851671    12.000000000000
         C           -2.289763565883     0.183981510920     1.153924148329    12.000000000000
         C           -1.172689565883    -0.837699489080     1.379168148329    12.000000000000
         C           -3.673317565883     0.943138510920    -0.874523851671    12.000000000000
         C            0.888938434117    -0.409080489080    -0.041866851671    12.000000000000
         C            2.016241434117    -1.143970489080    -0.425662851671    12.000000000000
         C            3.266523434117    -0.526631489080    -0.436762851671    12.000000000000
         C            2.180225434117     1.470971510920     0.312759148329    12.000000000000
         C            3.353181434117     0.811831510920    -0.058865851671    12.000000000000
         H           -3.301578565883    -1.079825489080    -0.252055851671     1.007825032230
         H           -0.406392565883    -2.074956489080    -0.256120851671     1.007825032230
         H           -1.034900565883     0.683666510920    -1.259109851671     1.007825032230
         H           -1.548530565883    -0.863819489080    -1.950256851671     1.007825032230
         H           -3.089811565883     0.119466510920     1.900698148329     1.007825032230
         H           -1.873866565883     1.198417510920     1.184713148329     1.007825032230
         H           -0.458667565883    -0.523879489080     2.146173148329     1.007825032230
         H           -1.600881565883    -1.795733489080     1.697711148329     1.007825032230
         H           -3.950321565883     0.689939510920    -1.903216851671     1.007825032230
         H           -4.595893565883     1.055398510920    -0.295674851671     1.007825032230
         H           -3.162321565883     1.911871510920    -0.889935851671     1.007825032230
         H            1.911161434117    -2.188089489080    -0.710934851671     1.007825032230
         H            4.154531434117    -1.080186489080    -0.733095851671     1.007825032230
         H            2.205008434117     2.516763510920     0.616465148329     1.007825032230
         H            4.304269434117     1.336805510920    -0.050143851671     1.007825032230

  Basis Set: AUG-CC-PVTZ
    Blend: AUG-CC-PVTZ
  Basis Set: (AUG-CC-PVTZ AUX)
    Blend: AUG-CC-PVTZ-JKFIT
	 Reference Energy          =    -479.8843377211783263 [Eh]
	 Singles Energy            =      -0.0000000000000000 [Eh]
	 Same-Spin Energy          =      -0.5325346208869222 [Eh]
	 Opposite-Spin Energy      =      -1.7455526023178720 [Eh]
	 Correlation Energy        =      -2.2780872232047944 [Eh]
	 Total Energy              =    -482.1624249443831332 [Eh]

	 ================> DF-SCS-MP2 Energies <==================
	-----------------------------------------------------------
	 SCS Same-Spin Scale       =       0.3333333333333333 [-]
	 SCS Opposite-Spin Scale   =       1.2000000000000000 [-]
	 SCS Same-Spin Energy      =      -0.1775115402956407 [Eh]
	 SCS Opposite-Spin Energy  =      -2.0946631227814465 [Eh]
	 SCS Correlation Energy    =      -2.2721746630770872 [Eh]
	 SCS Total Energy          =    -482.1565123842553930 [Eh]
	-----------------------------------------------------------

  Dipole Moment: [D]
     X:     1.2509      Y:    -1.1297      Z:    -0.5100     Total:     1.7610

*** Psi4 exiting successfully. Buy a developer a beer!
