                               Psi4 1.4a3.dev225

  ==> Input File <==

--------------------------------------------------------------------------
#psi4
#
memory 32 gb

molecule  {
0 1
  N        1.0430420     0.8835120     0.3262100
  C       -2.6935940    -0.1236090    -0.2650160
  C       -0.4170680    -1.0145740    -0.0079460
  C       -1.2425059    -0.2157947    -1.0509246
  C       -2.2166740     0.1783740     1.1559530
  C       -1.0996000    -0.8433070     1.3811970
  C       -3.6002280     0.9375310    -0.8724950
  C        0.9620280    -0.4146880    -0.0398380
  C        2.0893310    -1.1495780    -0.4236340
  C        3.3396130    -0.5322390    -0.4347340
  C        2.2533150     1.4653640     0.3147880
  C        3.4262710     0.8062240    -0.0568370
  H       -3.2284890    -1.0854330    -0.2500270
  H       -0.3333030    -2.0805640    -0.2540920
  H       -0.9618110     0.6780590    -1.2570810
  H       -1.4754410    -0.8694270    -1.9482280
  H       -3.0167220     0.1138590     1.9027270
  H       -1.8007770     1.1928100     1.1867420
  H       -0.3855780    -0.5294870     2.1482020
  H       -1.5277920    -1.8013410     1.6997400
  H       -3.8772320     0.6843320    -1.9011880
  H       -4.5228040     1.0497910    -0.2936460
  H       -3.0892320     1.9062640    -0.8879070
  H        1.9842510    -2.1936970    -0.7089060
  H        4.2276210    -1.0857940    -0.7310670
  H        2.2780980     2.5111560     0.6184940
  H        4.3773590     1.3311980    -0.0481150
units angstrom
no_reorient  #important for SAPT in psi4, default
symmetry c1  #important for SAPT in psi4, default
}

set PROPERTIES_ORIGIN ["COM"]
properties('MP2/aug-cc-pvtz', properties = ['dipole'])
--------------------------------------------------------------------------

    Molecular point group: c1
  Charge       = 0
  Multiplicity = 1
  Basis Set: AUG-CC-PVTZ
    Blend: AUG-CC-PVTZ
  Basis Set: (AUG-CC-PVTZ AUX)
    Blend: AUG-CC-PVTZ-JKFIT

    Orbital Energies [Eh]
    ---------------------

    Doubly Occupied:

       1A    -15.556991     2A    -11.274420     3A    -11.274260
       4A    -11.257478     5A    -11.234660     6A    -11.233607
       7A    -11.228283     8A    -11.220321     9A    -11.211930
      10A    -11.208609    11A    -11.204452    12A    -11.203497
      13A     -1.251801    14A     -1.120891    15A     -1.080984
      16A     -1.044324    17A     -0.988977    18A     -0.958296
      19A     -0.891874    20A     -0.854852    21A     -0.835940
      22A     -0.771781    23A     -0.757250    24A     -0.696271
      25A     -0.665895    26A     -0.640296    27A     -0.633853
      28A     -0.606053    29A     -0.588925    30A     -0.585734
      31A     -0.573179    32A     -0.549555    33A     -0.539041
      34A     -0.536602    35A     -0.515391    36A     -0.480564
      37A     -0.470061    38A     -0.463545    39A     -0.453309
      40A     -0.446363    41A     -0.418134    42A     -0.403162
      43A     -0.376659    44A     -0.329843

  @DF-RHF Final Energy:  -479.86821154842539

   => Energetics <=

    Nuclear Repulsion Energy =            685.6049747325536146
    One-Electron Energy =               -2009.6705479831689445
    Two-Electron Energy =                 844.1973617021898235
    Total Energy =                       -479.8682115484253927
  Basis Set: (AUG-CC-PVTZ AUX)
    Blend: AUG-CC-PVTZ-RI
    Molecular point group: c1

    Geometry (in Angstrom), charge = 0, multiplicity = 1:

       Center              X                  Y                   Z               Mass
    ------------   -----------------  -----------------  -----------------  -----------------
         N            0.963748707630     0.875340135260     0.324695086815    14.003074004430
         C           -2.772887292370    -0.131780864740    -0.266530913185    12.000000000000
         C           -0.496361292370    -1.022745864740    -0.009460913185    12.000000000000
         C           -1.321799192370    -0.223966564740    -1.052439513185    12.000000000000
         C           -2.295967292370     0.170202135260     1.154438086815    12.000000000000
         C           -1.178893292370    -0.851478864740     1.379682086815    12.000000000000
         C           -3.679521292370     0.929359135260    -0.874009913185    12.000000000000
         C            0.882734707630    -0.422859864740    -0.041352913185    12.000000000000
         C            2.010037707630    -1.157749864740    -0.425148913185    12.000000000000
         C            3.260319707630    -0.540410864740    -0.436248913185    12.000000000000
         C            2.174021707630     1.457192135260     0.313273086815    12.000000000000
         C            3.346977707630     0.798052135260    -0.058351913185    12.000000000000
         H           -3.307782292370    -1.093604864740    -0.251541913185     1.007825032230
         H           -0.412596292370    -2.088735864740    -0.255606913185     1.007825032230
         H           -1.041104292370     0.669887135260    -1.258595913185     1.007825032230
         H           -1.554734292370    -0.877598864740    -1.949742913185     1.007825032230
         H           -3.096015292370     0.105687135260     1.901212086815     1.007825032230
         H           -1.880070292370     1.184638135260     1.185227086815     1.007825032230
         H           -0.464871292370    -0.537658864740     2.146687086815     1.007825032230
         H           -1.607085292370    -1.809512864740     1.698225086815     1.007825032230
         H           -3.956525292370     0.676160135260    -1.902702913185     1.007825032230
         H           -4.602097292370     1.041619135260    -0.295160913185     1.007825032230
         H           -3.168525292370     1.898092135260    -0.889421913185     1.007825032230
         H            1.904957707630    -2.201868864740    -0.710420913185     1.007825032230
         H            4.148327707630    -1.093965864740    -0.732581913185     1.007825032230
         H            2.198804707630     2.502984135260     0.616979086815     1.007825032230
         H            4.298065707630     1.323026135260    -0.049629913185     1.007825032230

  Basis Set: AUG-CC-PVTZ
    Blend: AUG-CC-PVTZ
  Basis Set: (AUG-CC-PVTZ AUX)
    Blend: AUG-CC-PVTZ-JKFIT
	 Reference Energy          =    -479.8682115484253927 [Eh]
	 Singles Energy            =      -0.0000000000000000 [Eh]
	 Same-Spin Energy          =      -0.5328375937074170 [Eh]
	 Opposite-Spin Energy      =      -1.7467459758695147 [Eh]
	 Correlation Energy        =      -2.2795835695769320 [Eh]
	 Total Energy              =    -482.1477951180023069 [Eh]

	 ================> DF-SCS-MP2 Energies <==================
	-----------------------------------------------------------
	 SCS Same-Spin Scale       =       0.3333333333333333 [-]
	 SCS Opposite-Spin Scale   =       1.2000000000000000 [-]
	 SCS Same-Spin Energy      =      -0.1776125312358057 [Eh]
	 SCS Opposite-Spin Energy  =      -2.0960951710434177 [Eh]
	 SCS Correlation Energy    =      -2.2737077022792231 [Eh]
	 SCS Total Energy          =    -482.1419192507046318 [Eh]
	-----------------------------------------------------------

  Dipole Moment: [D]
     X:     1.2457      Y:    -1.0813      Z:    -0.4678     Total:     1.7145

*** Psi4 exiting successfully. Buy a developer a beer!
