                               Psi4 1.4a3.dev225

  ==> Input File <==

--------------------------------------------------------------------------
#psi4
#
memory 32 gb

molecule  {
0 1
  N        1.0430420     0.8835120     0.3262100
  C       -2.6806361    -0.1102014    -0.2458422
  C       -0.4170680    -1.0145740    -0.0079460
  C       -1.3683020    -0.3105490    -1.0112920
  C       -2.2166740     0.1783740     1.1559530
  C       -1.0996000    -0.8433070     1.3811970
  C       -3.6002280     0.9375310    -0.8724950
  C        0.9620280    -0.4146880    -0.0398380
  C        2.0893310    -1.1495780    -0.4236340
  C        3.3396130    -0.5322390    -0.4347340
  C        2.2533150     1.4653640     0.3147880
  C        3.4262710     0.8062240    -0.0568370
  H       -3.2284890    -1.0854330    -0.2500270
  H       -0.3333030    -2.0805640    -0.2540920
  H       -0.9618110     0.6780590    -1.2570810
  H       -1.4754410    -0.8694270    -1.9482280
  H       -3.0167220     0.1138590     1.9027270
  H       -1.8007770     1.1928100     1.1867420
  H       -0.3855780    -0.5294870     2.1482020
  H       -1.5277920    -1.8013410     1.6997400
  H       -3.8772320     0.6843320    -1.9011880
  H       -4.5228040     1.0497910    -0.2936460
  H       -3.0892320     1.9062640    -0.8879070
  H        1.9842510    -2.1936970    -0.7089060
  H        4.2276210    -1.0857940    -0.7310670
  H        2.2780980     2.5111560     0.6184940
  H        4.3773590     1.3311980    -0.0481150
units angstrom
no_reorient  #important for SAPT in psi4, default
symmetry c1  #important for SAPT in psi4, default
}

set PROPERTIES_ORIGIN ["COM"]
properties('MP2/aug-cc-pvtz', properties = ['dipole'])
--------------------------------------------------------------------------

    Molecular point group: c1
  Charge       = 0
  Multiplicity = 1
  Basis Set: AUG-CC-PVTZ
    Blend: AUG-CC-PVTZ
  Basis Set: (AUG-CC-PVTZ AUX)
    Blend: AUG-CC-PVTZ-JKFIT

    Orbital Energies [Eh]
    ---------------------

    Doubly Occupied:

       1A    -15.557982     2A    -11.275318     3A    -11.274360
       4A    -11.257943     5A    -11.235852     6A    -11.235078
       7A    -11.226141     8A    -11.215378     9A    -11.211721
      10A    -11.209725    11A    -11.205536    12A    -11.203078
      13A     -1.251876    14A     -1.129577    15A     -1.081872
      16A     -1.046909    17A     -0.990451    18A     -0.956080
      19A     -0.894136    20A     -0.855294    21A     -0.837749
      22A     -0.764906    23A     -0.753202    24A     -0.696782
      25A     -0.668532    26A     -0.641099    27A     -0.640552
      28A     -0.608654    29A     -0.584602    30A     -0.577474
      31A     -0.574349    32A     -0.551707    33A     -0.537906
      34A     -0.526880    35A     -0.511430    36A     -0.474725
      37A     -0.469368    38A     -0.459138    39A     -0.452938
      40A     -0.446223    41A     -0.441587    42A     -0.409956
      43A     -0.376957    44A     -0.332026

  @DF-RHF Final Energy:  -479.89565517461767

   => Energetics <=

    Nuclear Repulsion Energy =            686.1667809826376470
    One-Electron Energy =               -2010.8187687098222796
    Two-Electron Energy =                 844.7563325525669597
    Total Energy =                       -479.8956551746176729
  Basis Set: (AUG-CC-PVTZ AUX)
    Blend: AUG-CC-PVTZ-RI
    Molecular point group: c1

    Geometry (in Angstrom), charge = 0, multiplicity = 1:

       Center              X                  Y                   Z               Mass
    ------------   -----------------  -----------------  -----------------  -----------------
         N            0.972152720928     0.881398710712     0.320315277783    14.003074004430
         C           -2.751525379072    -0.112314689288    -0.251736922217    12.000000000000
         C           -0.487957279072    -1.016687289288    -0.013840722217    12.000000000000
         C           -1.439191279072    -0.312662289288    -1.017186722217    12.000000000000
         C           -2.287563279072     0.176260710712     1.150058277783    12.000000000000
         C           -1.170489279072    -0.845420289288     1.375302277783    12.000000000000
         C           -3.671117279072     0.935417710712    -0.878389722217    12.000000000000
         C            0.891138720928    -0.416801289288    -0.045732722217    12.000000000000
         C            2.018441720928    -1.151691289288    -0.429528722217    12.000000000000
         C            3.268723720928    -0.534352289288    -0.440628722217    12.000000000000
         C            2.182425720928     1.463250710712     0.308893277783    12.000000000000
         C            3.355381720928     0.804110710712    -0.062731722217    12.000000000000
         H           -3.299378279072    -1.087546289288    -0.255921722217     1.007825032230
         H           -0.404192279072    -2.082677289288    -0.259986722217     1.007825032230
         H           -1.032700279072     0.675945710712    -1.262975722217     1.007825032230
         H           -1.546330279072    -0.871540289288    -1.954122722217     1.007825032230
         H           -3.087611279072     0.111745710712     1.896832277783     1.007825032230
         H           -1.871666279072     1.190696710712     1.180847277783     1.007825032230
         H           -0.456467279072    -0.531600289288     2.142307277783     1.007825032230
         H           -1.598681279072    -1.803454289288     1.693845277783     1.007825032230
         H           -3.948121279072     0.682218710712    -1.907082722217     1.007825032230
         H           -4.593693279072     1.047677710712    -0.299540722217     1.007825032230
         H           -3.160121279072     1.904150710712    -0.893801722217     1.007825032230
         H            1.913361720928    -2.195810289288    -0.714800722217     1.007825032230
         H            4.156731720928    -1.087907289288    -0.736961722217     1.007825032230
         H            2.207208720928     2.509042710712     0.612599277783     1.007825032230
         H            4.306469720928     1.329084710712    -0.054009722217     1.007825032230

  Basis Set: AUG-CC-PVTZ
    Blend: AUG-CC-PVTZ
  Basis Set: (AUG-CC-PVTZ AUX)
    Blend: AUG-CC-PVTZ-JKFIT
	 Reference Energy          =    -479.8956551746176729 [Eh]
	 Singles Energy            =      -0.0000000000000000 [Eh]
	 Same-Spin Energy          =      -0.5329208229223263 [Eh]
	 Opposite-Spin Energy      =      -1.7456850790563596 [Eh]
	 Correlation Energy        =      -2.2786059019786862 [Eh]
	 Total Energy              =    -482.1742610765963377 [Eh]

	 ================> DF-SCS-MP2 Energies <==================
	-----------------------------------------------------------
	 SCS Same-Spin Scale       =       0.3333333333333333 [-]
	 SCS Opposite-Spin Scale   =       1.2000000000000000 [-]
	 SCS Same-Spin Energy      =      -0.1776402743074421 [Eh]
	 SCS Opposite-Spin Energy  =      -2.0948220948676313 [Eh]
	 SCS Correlation Energy    =      -2.2724623691750732 [Eh]
	 SCS Total Energy          =    -482.1681175437927322 [Eh]
	-----------------------------------------------------------

  Dipole Moment: [D]
     X:     1.3372      Y:    -1.0658      Z:    -0.4897     Total:     1.7787

*** Psi4 exiting successfully. Buy a developer a beer!
