                               Psi4 1.4a3.dev225

  ==> Input File <==

--------------------------------------------------------------------------
#psi4
#
memory 32 gb

molecule  {
0 1
  N        1.0430420     0.8835120     0.3262100
  C       -2.6935940    -0.1236090    -0.2650160
  C       -0.4170680    -1.0145740    -0.0079460
  C       -1.3683020    -0.3105490    -1.0112920
  C       -2.2166740     0.1783740     1.1559530
  C       -1.0996000    -0.8433070     1.3811970
  C       -3.6002280     0.9375310    -0.8724950
  C        0.9620280    -0.4146880    -0.0398380
  C        2.0893310    -1.1495780    -0.4236340
  C        3.3396130    -0.5322390    -0.4347340
  C        2.2983761     1.4870276     0.3143627
  C        3.4262710     0.8062240    -0.0568370
  H       -3.2284890    -1.0854330    -0.2500270
  H       -0.3333030    -2.0805640    -0.2540920
  H       -0.9618110     0.6780590    -1.2570810
  H       -1.4754410    -0.8694270    -1.9482280
  H       -3.0167220     0.1138590     1.9027270
  H       -1.8007770     1.1928100     1.1867420
  H       -0.3855780    -0.5294870     2.1482020
  H       -1.5277920    -1.8013410     1.6997400
  H       -3.8772320     0.6843320    -1.9011880
  H       -4.5228040     1.0497910    -0.2936460
  H       -3.0892320     1.9062640    -0.8879070
  H        1.9842510    -2.1936970    -0.7089060
  H        4.2276210    -1.0857940    -0.7310670
  H        2.2780980     2.5111560     0.6184940
  H        4.3773590     1.3311980    -0.0481150
units angstrom
no_reorient  #important for SAPT in psi4, default
symmetry c1  #important for SAPT in psi4, default
}

set PROPERTIES_ORIGIN ["COM"]
properties('MP2/aug-cc-pvtz', properties = ['dipole'])
--------------------------------------------------------------------------

    Molecular point group: c1
  Charge       = 0
  Multiplicity = 1
  Basis Set: AUG-CC-PVTZ
    Blend: AUG-CC-PVTZ
  Basis Set: (AUG-CC-PVTZ AUX)
    Blend: AUG-CC-PVTZ-JKFIT

    Orbital Energies [Eh]
    ---------------------

    Doubly Occupied:

       1A    -15.559799     2A    -11.274935     3A    -11.273064
       4A    -11.259020     5A    -11.236373     6A    -11.234388
       7A    -11.226058     8A    -11.214311     9A    -11.211065
      10A    -11.209394    11A    -11.205002    12A    -11.203339
      13A     -1.240414    14A     -1.126915    15A     -1.080025
      16A     -1.046781    17A     -0.992537    18A     -0.955309
      19A     -0.893823    20A     -0.858684    21A     -0.833052
      22A     -0.763712    23A     -0.755225    24A     -0.696994
      25A     -0.665769    26A     -0.643490    27A     -0.638272
      28A     -0.610806    29A     -0.584645    30A     -0.577367
      31A     -0.575014    32A     -0.551082    33A     -0.535053
      34A     -0.524647    35A     -0.510662    36A     -0.473487
      37A     -0.468732    38A     -0.460826    39A     -0.452363
      40A     -0.446777    41A     -0.439347    42A     -0.409997
      43A     -0.370707    44A     -0.336947

  @DF-RHF Final Energy:  -479.89196443419047

   => Energetics <=

    Nuclear Repulsion Energy =            685.0871544154678077
    One-Electron Energy =               -2008.7058172092340556
    Two-Electron Energy =                 843.7266983595759484
    Total Energy =                       -479.8919644341904132
  Basis Set: (AUG-CC-PVTZ AUX)
    Blend: AUG-CC-PVTZ-RI
    Molecular point group: c1

    Geometry (in Angstrom), charge = 0, multiplicity = 1:

       Center              X                  Y                   Z               Mass
    ------------   -----------------  -----------------  -----------------  -----------------
         N            0.969761724619     0.880783816697     0.321774988209    14.003074004430
         C           -2.766874275381    -0.126337183303    -0.269451011791    12.000000000000
         C           -0.490348275381    -1.017302183303    -0.012381011791    12.000000000000
         C           -1.441582275381    -0.313277183303    -1.015727011791    12.000000000000
         C           -2.289954275381     0.175645816697     1.151517988209    12.000000000000
         C           -1.172880275381    -0.846035183303     1.376761988209    12.000000000000
         C           -3.673508275381     0.934802816697    -0.876930011791    12.000000000000
         C            0.888747724619    -0.417416183303    -0.044273011791    12.000000000000
         C            2.016050724619    -1.152306183303    -0.428069011791    12.000000000000
         C            3.266332724619    -0.534967183303    -0.439169011791    12.000000000000
         C            2.225095824619     1.484299416697     0.309927688209    12.000000000000
         C            3.352990724619     0.803495816697    -0.061272011791    12.000000000000
         H           -3.301769275381    -1.088161183303    -0.254462011791     1.007825032230
         H           -0.406583275381    -2.083292183303    -0.258527011791     1.007825032230
         H           -1.035091275381     0.675330816697    -1.261516011791     1.007825032230
         H           -1.548721275381    -0.872155183303    -1.952663011791     1.007825032230
         H           -3.090002275381     0.111130816697     1.898291988209     1.007825032230
         H           -1.874057275381     1.190081816697     1.182306988209     1.007825032230
         H           -0.458858275381    -0.532215183303     2.143766988209     1.007825032230
         H           -1.601072275381    -1.804069183303     1.695304988209     1.007825032230
         H           -3.950512275381     0.681603816697    -1.905623011791     1.007825032230
         H           -4.596084275381     1.047062816697    -0.298081011791     1.007825032230
         H           -3.162512275381     1.903535816697    -0.892342011791     1.007825032230
         H            1.910970724619    -2.196425183303    -0.713341011791     1.007825032230
         H            4.154340724619    -1.088522183303    -0.735502011791     1.007825032230
         H            2.204817724619     2.508427816697     0.614058988209     1.007825032230
         H            4.304078724619     1.328469816697    -0.052550011791     1.007825032230

  Basis Set: AUG-CC-PVTZ
    Blend: AUG-CC-PVTZ
  Basis Set: (AUG-CC-PVTZ AUX)
    Blend: AUG-CC-PVTZ-JKFIT
	 Reference Energy          =    -479.8919644341904700 [Eh]
	 Singles Energy            =      -0.0000000000000000 [Eh]
	 Same-Spin Energy          =      -0.5331578572544327 [Eh]
	 Opposite-Spin Energy      =      -1.7467521510589226 [Eh]
	 Correlation Energy        =      -2.2799100083133554 [Eh]
	 Total Energy              =    -482.1718744425038494 [Eh]

	 ================> DF-SCS-MP2 Energies <==================
	-----------------------------------------------------------
	 SCS Same-Spin Scale       =       0.3333333333333333 [-]
	 SCS Opposite-Spin Scale   =       1.2000000000000000 [-]
	 SCS Same-Spin Energy      =      -0.1777192857514776 [Eh]
	 SCS Opposite-Spin Energy  =      -2.0961025812707068 [Eh]
	 SCS Correlation Energy    =      -2.2738218670221841 [Eh]
	 SCS Total Energy          =    -482.1657863012126768 [Eh]
	-----------------------------------------------------------

  Dipole Moment: [D]
     X:     1.3591      Y:    -1.0620      Z:    -0.4967     Total:     1.7949

*** Psi4 exiting successfully. Buy a developer a beer!
