                               Psi4 1.4a3.dev225

  ==> Input File <==

--------------------------------------------------------------------------
#psi4
#
memory 32 gb

molecule  {
0 1
  N        1.0430420     0.8835120     0.3262100
  C       -2.6935940    -0.1236090    -0.2650160
  C       -0.4170680    -1.0145740    -0.0079460
  C       -1.3683020    -0.3105490    -1.0112920
  C       -2.2166740     0.1783740     1.1559530
  C       -1.0996000    -0.8433070     1.3811970
  C       -3.6002280     0.9375310    -0.8724950
  C        1.1020267    -0.4101887    -0.0594544
  C        2.0893310    -1.1495780    -0.4236340
  C        3.3396130    -0.5322390    -0.4347340
  C        2.2533150     1.4653640     0.3147880
  C        3.4262710     0.8062240    -0.0568370
  H       -3.2284890    -1.0854330    -0.2500270
  H       -0.3333030    -2.0805640    -0.2540920
  H       -0.9618110     0.6780590    -1.2570810
  H       -1.4754410    -0.8694270    -1.9482280
  H       -3.0167220     0.1138590     1.9027270
  H       -1.8007770     1.1928100     1.1867420
  H       -0.3855780    -0.5294870     2.1482020
  H       -1.5277920    -1.8013410     1.6997400
  H       -3.8772320     0.6843320    -1.9011880
  H       -4.5228040     1.0497910    -0.2936460
  H       -3.0892320     1.9062640    -0.8879070
  H        1.9842510    -2.1936970    -0.7089060
  H        4.2276210    -1.0857940    -0.7310670
  H        2.2780980     2.5111560     0.6184940
  H        4.3773590     1.3311980    -0.0481150
units angstrom
no_reorient  #important for SAPT in psi4, default
symmetry c1  #important for SAPT in psi4, default
}

set PROPERTIES_ORIGIN ["COM"]
properties('MP2/aug-cc-pvtz', properties = ['dipole'])
--------------------------------------------------------------------------

    Molecular point group: c1
  Charge       = 0
  Multiplicity = 1
  Basis Set: AUG-CC-PVTZ
    Blend: AUG-CC-PVTZ
  Basis Set: (AUG-CC-PVTZ AUX)
    Blend: AUG-CC-PVTZ-JKFIT

    Orbital Energies [Eh]
    ---------------------

    Doubly Occupied:

       1A    -15.562957     2A    -11.277998     3A    -11.263486
       4A    -11.262816     5A    -11.238328     6A    -11.225860
       7A    -11.224351     8A    -11.211202     9A    -11.206533
      10A    -11.204588    11A    -11.202792    12A    -11.200401
      13A     -1.261632    14A     -1.119143    15A     -1.095811
      16A     -1.046909    17A     -0.990153    18A     -0.948150
      19A     -0.885437    20A     -0.867821    21A     -0.833180
      22A     -0.758726    23A     -0.750908    24A     -0.699488
      25A     -0.669909    26A     -0.644378    27A     -0.637801
      28A     -0.606810    29A     -0.581485    30A     -0.575352
      31A     -0.572514    32A     -0.550973    33A     -0.545324
      34A     -0.526086    35A     -0.503221    36A     -0.463767
      37A     -0.462365    38A     -0.456722    39A     -0.446201
      40A     -0.438666    41A     -0.436479    42A     -0.411555
      43A     -0.380868    44A     -0.349002

  @DF-RHF Final Energy:  -479.87373418001772

   => Energetics <=

    Nuclear Repulsion Energy =            685.7468472276766533
    One-Electron Energy =               -2010.0448589481452473
    Two-Electron Energy =                 844.4242775404508166
    Total Energy =                       -479.8737341800177774
  Basis Set: (AUG-CC-PVTZ AUX)
    Blend: AUG-CC-PVTZ-RI
    Molecular point group: c1

    Geometry (in Angstrom), charge = 0, multiplicity = 1:

       Center              X                  Y                   Z               Mass
    ------------   -----------------  -----------------  -----------------  -----------------
         N            0.962690920115     0.882062187014     0.323204311431    14.003074004430
         C           -2.773945079885    -0.125058812986    -0.268021688569    12.000000000000
         C           -0.497419079885    -1.016023812986    -0.010951688569    12.000000000000
         C           -1.448653079885    -0.311998812986    -1.014297688569    12.000000000000
         C           -2.297025079885     0.176924187014     1.152947311431    12.000000000000
         C           -1.179951079885    -0.844756812986     1.378191311431    12.000000000000
         C           -3.680579079885     0.936081187014    -0.875500688569    12.000000000000
         C            1.021675620115    -0.411638512986    -0.062460088569    12.000000000000
         C            2.008979920115    -1.151027812986    -0.426639688569    12.000000000000
         C            3.259261920115    -0.533688812986    -0.437739688569    12.000000000000
         C            2.172963920115     1.463914187014     0.311782311431    12.000000000000
         C            3.345919920115     0.804774187014    -0.059842688569    12.000000000000
         H           -3.308840079885    -1.086882812986    -0.253032688569     1.007825032230
         H           -0.413654079885    -2.082013812986    -0.257097688569     1.007825032230
         H           -1.042162079885     0.676609187014    -1.260086688569     1.007825032230
         H           -1.555792079885    -0.870876812986    -1.951233688569     1.007825032230
         H           -3.097073079885     0.112409187014     1.899721311431     1.007825032230
         H           -1.881128079885     1.191360187014     1.183736311431     1.007825032230
         H           -0.465929079885    -0.530936812986     2.145196311431     1.007825032230
         H           -1.608143079885    -1.802790812986     1.696734311431     1.007825032230
         H           -3.957583079885     0.682882187014    -1.904193688569     1.007825032230
         H           -4.603155079885     1.048341187014    -0.296651688569     1.007825032230
         H           -3.169583079885     1.904814187014    -0.890912688569     1.007825032230
         H            1.903899920115    -2.195146812986    -0.711911688569     1.007825032230
         H            4.147269920115    -1.087243812986    -0.734072688569     1.007825032230
         H            2.197746920115     2.509706187014     0.615488311431     1.007825032230
         H            4.297007920115     1.329748187014    -0.051120688569     1.007825032230

  Basis Set: AUG-CC-PVTZ
    Blend: AUG-CC-PVTZ
  Basis Set: (AUG-CC-PVTZ AUX)
    Blend: AUG-CC-PVTZ-JKFIT
	 Reference Energy          =    -479.8737341800177205 [Eh]
	 Singles Energy            =      -0.0000000000000000 [Eh]
	 Same-Spin Energy          =      -0.5320728532437217 [Eh]
	 Opposite-Spin Energy      =      -1.7455883867570257 [Eh]
	 Correlation Energy        =      -2.2776612400007474 [Eh]
	 Total Energy              =    -482.1513954200184457 [Eh]

	 ================> DF-SCS-MP2 Energies <==================
	-----------------------------------------------------------
	 SCS Same-Spin Scale       =       0.3333333333333333 [-]
	 SCS Opposite-Spin Scale   =       1.2000000000000000 [-]
	 SCS Same-Spin Energy      =      -0.1773576177479072 [Eh]
	 SCS Opposite-Spin Energy  =      -2.0947060641084305 [Eh]
	 SCS Correlation Energy    =      -2.2720636818563378 [Eh]
	 SCS Total Energy          =    -482.1457978618740299 [Eh]
	-----------------------------------------------------------

  Dipole Moment: [D]
     X:     1.8147      Y:    -0.9354      Z:    -0.5092     Total:     2.1041

*** Psi4 exiting successfully. Buy a developer a beer!
