                               Psi4 1.4a3.dev225

  ==> Input File <==

--------------------------------------------------------------------------
#psi4
#
memory 32 gb

molecule  {
0 1
  N        1.0430420     0.8835120     0.3262100
  C       -2.6935940    -0.1236090    -0.2650160
  C       -0.4170680    -1.0145740    -0.0079460
  C       -1.3683020    -0.3105490    -1.0112920
  C       -2.2166740     0.1783740     1.1559530
  C       -1.0850025    -0.8566580     1.3841404
  C       -3.6002280     0.9375310    -0.8724950
  C        0.9620280    -0.4146880    -0.0398380
  C        2.0893310    -1.1495780    -0.4236340
  C        3.3396130    -0.5322390    -0.4347340
  C        2.2533150     1.4653640     0.3147880
  C        3.4262710     0.8062240    -0.0568370
  H       -3.2284890    -1.0854330    -0.2500270
  H       -0.3333030    -2.0805640    -0.2540920
  H       -0.9618110     0.6780590    -1.2570810
  H       -1.4754410    -0.8694270    -1.9482280
  H       -3.0167220     0.1138590     1.9027270
  H       -1.8007770     1.1928100     1.1867420
  H       -0.3855780    -0.5294870     2.1482020
  H       -1.5277920    -1.8013410     1.6997400
  H       -3.8772320     0.6843320    -1.9011880
  H       -4.5228040     1.0497910    -0.2936460
  H       -3.0892320     1.9062640    -0.8879070
  H        1.9842510    -2.1936970    -0.7089060
  H        4.2276210    -1.0857940    -0.7310670
  H        2.2780980     2.5111560     0.6184940
  H        4.3773590     1.3311980    -0.0481150
units angstrom
no_reorient  #important for SAPT in psi4, default
symmetry c1  #important for SAPT in psi4, default
}

set PROPERTIES_ORIGIN ["COM"]
properties('MP2/aug-cc-pvtz', properties = ['dipole'])
--------------------------------------------------------------------------

    Molecular point group: c1
  Charge       = 0
  Multiplicity = 1
  Basis Set: AUG-CC-PVTZ
    Blend: AUG-CC-PVTZ
  Basis Set: (AUG-CC-PVTZ AUX)
    Blend: AUG-CC-PVTZ-JKFIT

    Orbital Energies [Eh]
    ---------------------

    Doubly Occupied:

       1A    -15.558009     2A    -11.275337     3A    -11.274366
       4A    -11.257936     5A    -11.235879     6A    -11.235074
       7A    -11.226043     8A    -11.214501     9A    -11.210860
      10A    -11.209782    11A    -11.205233    12A    -11.204496
      13A     -1.251901    14A     -1.126428    15A     -1.081840
      16A     -1.046437    17A     -0.991095    18A     -0.953044
      19A     -0.894286    20A     -0.855217    21A     -0.837252
      22A     -0.765210    23A     -0.755081    24A     -0.696995
      25A     -0.668010    26A     -0.640738    27A     -0.639745
      28A     -0.607498    29A     -0.585277    30A     -0.577446
      31A     -0.573651    32A     -0.551883    33A     -0.537985
      34A     -0.527138    35A     -0.512566    36A     -0.472862
      37A     -0.470722    38A     -0.460321    39A     -0.452033
      40A     -0.447158    41A     -0.438379    42A     -0.409861
      43A     -0.377030    44A     -0.332265

  @DF-RHF Final Energy:  -479.89641424211044

   => Energetics <=

    Nuclear Repulsion Energy =            685.7180832834233115
    One-Electron Energy =               -2009.9392498700717624
    Two-Electron Energy =                 844.3247523445380693
    Total Energy =                       -479.8964142421103816
  Basis Set: (AUG-CC-PVTZ AUX)
    Blend: AUG-CC-PVTZ-RI
    Molecular point group: c1

    Geometry (in Angstrom), charge = 0, multiplicity = 1:

       Center              X                  Y                   Z               Mass
    ------------   -----------------  -----------------  -----------------  -----------------
         N            0.972030606075     0.883391649541     0.321524092683    14.003074004430
         C           -2.764605393925    -0.123729350459    -0.269701907317    12.000000000000
         C           -0.488079393925    -1.014694350459    -0.012631907317    12.000000000000
         C           -1.439313393925    -0.310669350459    -1.015977907317    12.000000000000
         C           -2.287685393925     0.178253649541     1.151267092683    12.000000000000
         C           -1.156013893925    -0.856778350459     1.379454492683    12.000000000000
         C           -3.671239393925     0.937410649541    -0.877180907317    12.000000000000
         C            0.891016606075    -0.414808350459    -0.044523907317    12.000000000000
         C            2.018319606075    -1.149698350459    -0.428319907317    12.000000000000
         C            3.268601606075    -0.532359350459    -0.439419907317    12.000000000000
         C            2.182303606075     1.465243649541     0.310102092683    12.000000000000
         C            3.355259606075     0.806103649541    -0.061522907317    12.000000000000
         H           -3.299500393925    -1.085553350459    -0.254712907317     1.007825032230
         H           -0.404314393925    -2.080684350459    -0.258777907317     1.007825032230
         H           -1.032822393925     0.677938649541    -1.261766907317     1.007825032230
         H           -1.546452393925    -0.869547350459    -1.952913907317     1.007825032230
         H           -3.087733393925     0.113738649541     1.898041092683     1.007825032230
         H           -1.871788393925     1.192689649541     1.182056092683     1.007825032230
         H           -0.456589393925    -0.529607350459     2.143516092683     1.007825032230
         H           -1.598803393925    -1.801461350459     1.695054092683     1.007825032230
         H           -3.948243393925     0.684211649541    -1.905873907317     1.007825032230
         H           -4.593815393925     1.049670649541    -0.298331907317     1.007825032230
         H           -3.160243393925     1.906143649541    -0.892592907317     1.007825032230
         H            1.913239606075    -2.193817350459    -0.713591907317     1.007825032230
         H            4.156609606075    -1.085914350459    -0.735752907317     1.007825032230
         H            2.207086606075     2.511035649541     0.613808092683     1.007825032230
         H            4.306347606075     1.331077649541    -0.052800907317     1.007825032230

  Basis Set: AUG-CC-PVTZ
    Blend: AUG-CC-PVTZ
  Basis Set: (AUG-CC-PVTZ AUX)
    Blend: AUG-CC-PVTZ-JKFIT
	 Reference Energy          =    -479.8964142421104384 [Eh]
	 Singles Energy            =      -0.0000000000000000 [Eh]
	 Same-Spin Energy          =      -0.5326977840158543 [Eh]
	 Opposite-Spin Energy      =      -1.7455154661906223 [Eh]
	 Correlation Energy        =      -2.2782132502064765 [Eh]
	 Total Energy              =    -482.1746274923169153 [Eh]

	 ================> DF-SCS-MP2 Energies <==================
	-----------------------------------------------------------
	 SCS Same-Spin Scale       =       0.3333333333333333 [-]
	 SCS Opposite-Spin Scale   =       1.2000000000000000 [-]
	 SCS Same-Spin Energy      =      -0.1775659280052848 [Eh]
	 SCS Opposite-Spin Energy  =      -2.0946185594287465 [Eh]
	 SCS Correlation Energy    =      -2.2721844874340311 [Eh]
	 SCS Total Energy          =    -482.1685987295444420 [Eh]
	-----------------------------------------------------------

  Dipole Moment: [D]
     X:     1.3338      Y:    -1.0743      Z:    -0.4941     Total:     1.7825

*** Psi4 exiting successfully. Buy a developer a beer!
