                               Psi4 1.4a3.dev225

  ==> Input File <==

--------------------------------------------------------------------------
#psi4
#
memory 32 gb

molecule  {
0 1
  N        1.0430420     0.8835120     0.3262100
  C       -2.6874741    -0.0706474    -0.2693314
  C       -0.4170680    -1.0145740    -0.0079460
  C       -1.3683020    -0.3105490    -1.0112920
  C       -2.2166740     0.1783740     1.1559530
  C       -1.0996000    -0.8433070     1.3811970
  C       -3.6002280     0.9375310    -0.8724950
  C        0.9620280    -0.4146880    -0.0398380
  C        2.0893310    -1.1495780    -0.4236340
  C        3.3396130    -0.5322390    -0.4347340
  C        2.2533150     1.4653640     0.3147880
  C        3.4262710     0.8062240    -0.0568370
  H       -3.2284890    -1.0854330    -0.2500270
  H       -0.3333030    -2.0805640    -0.2540920
  H       -0.9618110     0.6780590    -1.2570810
  H       -1.4754410    -0.8694270    -1.9482280
  H       -3.0167220     0.1138590     1.9027270
  H       -1.8007770     1.1928100     1.1867420
  H       -0.3855780    -0.5294870     2.1482020
  H       -1.5277920    -1.8013410     1.6997400
  H       -3.8772320     0.6843320    -1.9011880
  H       -4.5228040     1.0497910    -0.2936460
  H       -3.0892320     1.9062640    -0.8879070
  H        1.9842510    -2.1936970    -0.7089060
  H        4.2276210    -1.0857940    -0.7310670
  H        2.2780980     2.5111560     0.6184940
  H        4.3773590     1.3311980    -0.0481150
units angstrom
no_reorient  #important for SAPT in psi4, default
symmetry c1  #important for SAPT in psi4, default
}

set PROPERTIES_ORIGIN ["COM"]
properties('MP2/aug-cc-pvtz', properties = ['dipole'])
--------------------------------------------------------------------------

    Molecular point group: c1
  Charge       = 0
  Multiplicity = 1
  Basis Set: AUG-CC-PVTZ
    Blend: AUG-CC-PVTZ
  Basis Set: (AUG-CC-PVTZ AUX)
    Blend: AUG-CC-PVTZ-JKFIT

    Orbital Energies [Eh]
    ---------------------

    Doubly Occupied:

       1A    -15.558166     2A    -11.275611     3A    -11.274490
       4A    -11.258100     5A    -11.236054     6A    -11.235333
       7A    -11.226889     8A    -11.217090     9A    -11.212196
      10A    -11.210051    11A    -11.204959    12A    -11.203996
      13A     -1.252040    14A     -1.128562    15A     -1.082053
      16A     -1.048344    17A     -0.995390    18A     -0.955352
      19A     -0.896039    20A     -0.855395    21A     -0.837524
      22A     -0.765267    23A     -0.748370    24A     -0.697227
      25A     -0.668414    26A     -0.641692    27A     -0.639949
      28A     -0.609934    29A     -0.585861    30A     -0.577325
      31A     -0.574985    32A     -0.554710    33A     -0.538585
      34A     -0.527063    35A     -0.511042    36A     -0.473972
      37A     -0.471725    38A     -0.468717    39A     -0.452281
      40A     -0.442266    41A     -0.431746    42A     -0.410200
      43A     -0.377007    44A     -0.332393

  @DF-RHF Final Energy:  -479.89301438237220

   => Energetics <=

    Nuclear Repulsion Energy =            686.1155192995543075
    One-Electron Energy =               -2010.6883334348424341
    Two-Electron Energy =                 844.6797997529158692
    Total Energy =                       -479.8930143823722574
  Basis Set: (AUG-CC-PVTZ AUX)
    Blend: AUG-CC-PVTZ-RI
    Molecular point group: c1

    Geometry (in Angstrom), charge = 0, multiplicity = 1:

       Center              X                  Y                   Z               Mass
    ------------   -----------------  -----------------  -----------------  -----------------
         N            0.972662004512     0.878452790430     0.322064716795    14.003074004430
         C           -2.757854095488    -0.075706609570    -0.273476683205    12.000000000000
         C           -0.487447995488    -1.019633209570    -0.012091283205    12.000000000000
         C           -1.438681995488    -0.315608209570    -1.015437283205    12.000000000000
         C           -2.287053995488     0.173314790430     1.151807716795    12.000000000000
         C           -1.169979995488    -0.848366209570     1.377051716795    12.000000000000
         C           -3.670607995488     0.932471790430    -0.876640283205    12.000000000000
         C            0.891648004512    -0.419747209570    -0.043983283205    12.000000000000
         C            2.018951004512    -1.154637209570    -0.427779283205    12.000000000000
         C            3.269233004512    -0.537298209570    -0.438879283205    12.000000000000
         C            2.182935004512     1.460304790430     0.310642716795    12.000000000000
         C            3.355891004512     0.801164790430    -0.060982283205    12.000000000000
         H           -3.298868995488    -1.090492209570    -0.254172283205     1.007825032230
         H           -0.403682995488    -2.085623209570    -0.258237283205     1.007825032230
         H           -1.032190995488     0.672999790430    -1.261226283205     1.007825032230
         H           -1.545820995488    -0.874486209570    -1.952373283205     1.007825032230
         H           -3.087101995488     0.108799790430     1.898581716795     1.007825032230
         H           -1.871156995488     1.187750790430     1.182596716795     1.007825032230
         H           -0.455957995488    -0.534546209570     2.144056716795     1.007825032230
         H           -1.598171995488    -1.806400209570     1.695594716795     1.007825032230
         H           -3.947611995488     0.679272790430    -1.905333283205     1.007825032230
         H           -4.593183995488     1.044731790430    -0.297791283205     1.007825032230
         H           -3.159611995488     1.901204790430    -0.892052283205     1.007825032230
         H            1.913871004512    -2.198756209570    -0.713051283205     1.007825032230
         H            4.157241004512    -1.090853209570    -0.735212283205     1.007825032230
         H            2.207718004512     2.506096790430     0.614348716795     1.007825032230
         H            4.306979004512     1.326138790430    -0.052260283205     1.007825032230

  Basis Set: AUG-CC-PVTZ
    Blend: AUG-CC-PVTZ
  Basis Set: (AUG-CC-PVTZ AUX)
    Blend: AUG-CC-PVTZ-JKFIT
	 Reference Energy          =    -479.8930143823722005 [Eh]
	 Singles Energy            =      -0.0000000000000000 [Eh]
	 Same-Spin Energy          =      -0.5330996399359953 [Eh]
	 Opposite-Spin Energy      =      -1.7460087839358240 [Eh]
	 Correlation Energy        =      -2.2791084238718193 [Eh]
	 Total Energy              =    -482.1721228062440332 [Eh]

	 ================> DF-SCS-MP2 Energies <==================
	-----------------------------------------------------------
	 SCS Same-Spin Scale       =       0.3333333333333333 [-]
	 SCS Opposite-Spin Scale   =       1.2000000000000000 [-]
	 SCS Same-Spin Energy      =      -0.1776998799786651 [Eh]
	 SCS Opposite-Spin Energy  =      -2.0952105407229888 [Eh]
	 SCS Correlation Energy    =      -2.2729104207016539 [Eh]
	 SCS Total Energy          =    -482.1659248030738354 [Eh]
	-----------------------------------------------------------

  Dipole Moment: [D]
     X:     1.3493      Y:    -1.0292      Z:    -0.5003     Total:     1.7692

*** Psi4 exiting successfully. Buy a developer a beer!
