                               Psi4 1.4a3.dev225

  ==> Input File <==

--------------------------------------------------------------------------
#psi4
#
memory 32 gb

molecule  {
0 1
  N        1.0430420     0.8835120     0.3262100
  C       -2.6935940    -0.1236090    -0.2650160
  C       -0.4170680    -1.0145740    -0.0079460
  C       -1.3882904    -0.3271206    -1.0036043
  C       -2.2166740     0.1783740     1.1559530
  C       -1.0996000    -0.8433070     1.3811970
  C       -3.6002280     0.9375310    -0.8724950
  C        0.9620280    -0.4146880    -0.0398380
  C        2.0893310    -1.1495780    -0.4236340
  C        3.3396130    -0.5322390    -0.4347340
  C        2.2533150     1.4653640     0.3147880
  C        3.4262710     0.8062240    -0.0568370
  H       -3.2284890    -1.0854330    -0.2500270
  H       -0.3333030    -2.0805640    -0.2540920
  H       -0.9618110     0.6780590    -1.2570810
  H       -1.4754410    -0.8694270    -1.9482280
  H       -3.0167220     0.1138590     1.9027270
  H       -1.8007770     1.1928100     1.1867420
  H       -0.3855780    -0.5294870     2.1482020
  H       -1.5277920    -1.8013410     1.6997400
  H       -3.8772320     0.6843320    -1.9011880
  H       -4.5228040     1.0497910    -0.2936460
  H       -3.0892320     1.9062640    -0.8879070
  H        1.9842510    -2.1936970    -0.7089060
  H        4.2276210    -1.0857940    -0.7310670
  H        2.2780980     2.5111560     0.6184940
  H        4.3773590     1.3311980    -0.0481150
units angstrom
no_reorient  #important for SAPT in psi4, default
symmetry c1  #important for SAPT in psi4, default
}

set PROPERTIES_ORIGIN ["COM"]
properties('MP2/aug-cc-pvtz', properties = ['dipole'])
--------------------------------------------------------------------------

    Molecular point group: c1
  Charge       = 0
  Multiplicity = 1
  Basis Set: AUG-CC-PVTZ
    Blend: AUG-CC-PVTZ
  Basis Set: (AUG-CC-PVTZ AUX)
    Blend: AUG-CC-PVTZ-JKFIT

    Orbital Energies [Eh]
    ---------------------

    Doubly Occupied:

       1A    -15.558171     2A    -11.275561     3A    -11.274376
       4A    -11.258026     5A    -11.236073     6A    -11.235364
       7A    -11.226123     8A    -11.213780     9A    -11.211391
      10A    -11.210529    11A    -11.205472    12A    -11.203856
      13A     -1.251913    14A     -1.129082    15A     -1.082007
      16A     -1.046950    17A     -0.991719    18A     -0.954468
      19A     -0.894554    20A     -0.855273    21A     -0.836915
      22A     -0.765138    23A     -0.754058    24A     -0.696977
      25A     -0.668563    26A     -0.641455    27A     -0.640646
      28A     -0.608557    29A     -0.584883    30A     -0.575946
      31A     -0.574248    32A     -0.552231    33A     -0.538132
      34A     -0.525696    35A     -0.511320    36A     -0.474152
      37A     -0.469014    38A     -0.462273    39A     -0.450712
      40A     -0.445986    41A     -0.440563    42A     -0.410285
      43A     -0.376982    44A     -0.332386

  @DF-RHF Final Energy:  -479.89563394150531

   => Energetics <=

    Nuclear Repulsion Energy =            685.9219352844021387
    One-Electron Energy =               -2010.3315286524305066
    Two-Electron Energy =                 844.5139594265230016
    Total Energy =                       -479.8956339415052526
  Basis Set: (AUG-CC-PVTZ AUX)
    Blend: AUG-CC-PVTZ-RI
    Molecular point group: c1

    Geometry (in Angstrom), charge = 0, multiplicity = 1:

       Center              X                  Y                   Z               Mass
    ------------   -----------------  -----------------  -----------------  -----------------
         N            0.974606510011     0.883631514811     0.321170744612    14.003074004430
         C           -2.762029489989    -0.123489485189    -0.270055255388    12.000000000000
         C           -0.485503489989    -1.014454485189    -0.012985255388    12.000000000000
         C           -1.456725889989    -0.327001085189    -1.008643555388    12.000000000000
         C           -2.285109489989     0.178493514811     1.150913744612    12.000000000000
         C           -1.168035489989    -0.843187485189     1.376157744612    12.000000000000
         C           -3.668663489989     0.937650514811    -0.877534255388    12.000000000000
         C            0.893592510011    -0.414568485189    -0.044877255388    12.000000000000
         C            2.020895510011    -1.149458485189    -0.428673255388    12.000000000000
         C            3.271177510011    -0.532119485189    -0.439773255388    12.000000000000
         C            2.184879510011     1.465483514811     0.309748744612    12.000000000000
         C            3.357835510011     0.806343514811    -0.061876255388    12.000000000000
         H           -3.296924489989    -1.085313485189    -0.255066255388     1.007825032230
         H           -0.401738489989    -2.080444485189    -0.259131255388     1.007825032230
         H           -1.030246489989     0.678178514811    -1.262120255388     1.007825032230
         H           -1.543876489989    -0.869307485189    -1.953267255388     1.007825032230
         H           -3.085157489989     0.113978514811     1.897687744612     1.007825032230
         H           -1.869212489989     1.192929514811     1.181702744612     1.007825032230
         H           -0.454013489989    -0.529367485189     2.143162744612     1.007825032230
         H           -1.596227489989    -1.801221485189     1.694700744612     1.007825032230
         H           -3.945667489989     0.684451514811    -1.906227255388     1.007825032230
         H           -4.591239489989     1.049910514811    -0.298685255388     1.007825032230
         H           -3.157667489989     1.906383514811    -0.892946255388     1.007825032230
         H            1.915815510011    -2.193577485189    -0.713945255388     1.007825032230
         H            4.159185510011    -1.085674485189    -0.736106255388     1.007825032230
         H            2.209662510011     2.511275514811     0.613454744612     1.007825032230
         H            4.308923510011     1.331317514811    -0.053154255388     1.007825032230

  Basis Set: AUG-CC-PVTZ
    Blend: AUG-CC-PVTZ
  Basis Set: (AUG-CC-PVTZ AUX)
    Blend: AUG-CC-PVTZ-JKFIT
	 Reference Energy          =    -479.8956339415053094 [Eh]
	 Singles Energy            =      -0.0000000000000000 [Eh]
	 Same-Spin Energy          =      -0.5329536565327051 [Eh]
	 Opposite-Spin Energy      =      -1.7457152672493885 [Eh]
	 Correlation Energy        =      -2.2786689237820936 [Eh]
	 Total Energy              =    -482.1743028652874159 [Eh]

	 ================> DF-SCS-MP2 Energies <==================
	-----------------------------------------------------------
	 SCS Same-Spin Scale       =       0.3333333333333333 [-]
	 SCS Opposite-Spin Scale   =       1.2000000000000000 [-]
	 SCS Same-Spin Energy      =      -0.1776512188442350 [Eh]
	 SCS Opposite-Spin Energy  =      -2.0948583206992661 [Eh]
	 SCS Correlation Energy    =      -2.2725095395435013 [Eh]
	 SCS Total Energy          =    -482.1681434810487872 [Eh]
	-----------------------------------------------------------

  Dipole Moment: [D]
     X:     1.3395      Y:    -1.0724      Z:    -0.4926     Total:     1.7852

*** Psi4 exiting successfully. Buy a developer a beer!
