                               Psi4 1.4a3.dev225

  ==> Input File <==

--------------------------------------------------------------------------
#psi4
#
memory 32 gb

molecule  {
0 1
  N        1.0430420     0.8835120     0.3262100
  C       -2.6935940    -0.1236090    -0.2650160
  C       -0.4170680    -1.0145740    -0.0079460
  C       -1.3683020    -0.3105490    -1.0112920
  C       -2.2166740     0.1783740     1.1559530
  C       -1.0996000    -0.8433070     1.3811970
  C       -3.6002280     0.9375310    -0.8724950
  C        0.9620280    -0.4146880    -0.0398380
  C        2.0893310    -1.1495780    -0.4236340
  C        3.3396130    -0.5322390    -0.4347340
  C        2.2533150     1.4653640     0.3147880
  C        3.4275148     0.8254343    -0.0514132
  H       -3.2284890    -1.0854330    -0.2500270
  H       -0.3333030    -2.0805640    -0.2540920
  H       -0.9618110     0.6780590    -1.2570810
  H       -1.4754410    -0.8694270    -1.9482280
  H       -3.0167220     0.1138590     1.9027270
  H       -1.8007770     1.1928100     1.1867420
  H       -0.3855780    -0.5294870     2.1482020
  H       -1.5277920    -1.8013410     1.6997400
  H       -3.8772320     0.6843320    -1.9011880
  H       -4.5228040     1.0497910    -0.2936460
  H       -3.0892320     1.9062640    -0.8879070
  H        1.9842510    -2.1936970    -0.7089060
  H        4.2276210    -1.0857940    -0.7310670
  H        2.2780980     2.5111560     0.6184940
  H        4.3773590     1.3311980    -0.0481150
units angstrom
no_reorient  #important for SAPT in psi4, default
symmetry c1  #important for SAPT in psi4, default
}

set PROPERTIES_ORIGIN ["COM"]
properties('MP2/aug-cc-pvtz', properties = ['dipole'])
--------------------------------------------------------------------------

    Molecular point group: c1
  Charge       = 0
  Multiplicity = 1
  Basis Set: AUG-CC-PVTZ
    Blend: AUG-CC-PVTZ
  Basis Set: (AUG-CC-PVTZ AUX)
    Blend: AUG-CC-PVTZ-JKFIT

    Orbital Energies [Eh]
    ---------------------

    Doubly Occupied:

       1A    -15.557475     2A    -11.276089     3A    -11.272655
       4A    -11.260494     5A    -11.235817     6A    -11.235502
       7A    -11.226424     8A    -11.214724     9A    -11.211588
      10A    -11.209910    11A    -11.205319    12A    -11.203810
      13A     -1.251486    14A     -1.127666    15A     -1.079120
      16A     -1.047239    17A     -0.991759    18A     -0.955273
      19A     -0.894317    20A     -0.853942    21A     -0.837324
      22A     -0.764508    23A     -0.755734    24A     -0.696572
      25A     -0.669057    26A     -0.641595    27A     -0.639477
      28A     -0.608227    29A     -0.584628    30A     -0.577983
      31A     -0.575466    32A     -0.551496    33A     -0.537315
      34A     -0.526109    35A     -0.511557    36A     -0.473143
      37A     -0.468954    38A     -0.461110    39A     -0.452830
      40A     -0.447110    41A     -0.439656    42A     -0.410543
      43A     -0.375115    44A     -0.333168

  @DF-RHF Final Energy:  -479.89607024551003

   => Energetics <=

    Nuclear Repulsion Energy =            685.6757350012110237
    One-Electron Energy =               -2009.8450341989350818
    Two-Electron Energy =                 844.2732289522140263
    Total Energy =                       -479.8960702455100318
  Basis Set: (AUG-CC-PVTZ AUX)
    Blend: AUG-CC-PVTZ-RI
    Molecular point group: c1

    Geometry (in Angstrom), charge = 0, multiplicity = 1:

       Center              X                  Y                   Z               Mass
    ------------   -----------------  -----------------  -----------------  -----------------
         N            0.973025168842     0.880966534658     0.321339356356    14.003074004430
         C           -2.763610831158    -0.126154465342    -0.269886643644    12.000000000000
         C           -0.487084831158    -1.017119465342    -0.012816643644    12.000000000000
         C           -1.438318831158    -0.313094465342    -1.016162643644    12.000000000000
         C           -2.286690831158     0.175828534658     1.151082356356    12.000000000000
         C           -1.169616831158    -0.845852465342     1.376326356356    12.000000000000
         C           -3.670244831158     0.934985534658    -0.877365643644    12.000000000000
         C            0.892011168842    -0.417233465342    -0.044708643644    12.000000000000
         C            2.019314168842    -1.152123465342    -0.428504643644    12.000000000000
         C            3.269596168842    -0.534784465342    -0.439604643644    12.000000000000
         C            2.183298168842     1.462818534658     0.309917356356    12.000000000000
         C            3.357497968842     0.822888834658    -0.056283843644    12.000000000000
         H           -3.298505831158    -1.087978465342    -0.254897643644     1.007825032230
         H           -0.403319831158    -2.083109465342    -0.258962643644     1.007825032230
         H           -1.031827831158     0.675513534658    -1.261951643644     1.007825032230
         H           -1.545457831158    -0.871972465342    -1.953098643644     1.007825032230
         H           -3.086738831158     0.111313534658     1.897856356356     1.007825032230
         H           -1.870793831158     1.190264534658     1.181871356356     1.007825032230
         H           -0.455594831158    -0.532032465342     2.143331356356     1.007825032230
         H           -1.597808831158    -1.803886465342     1.694869356356     1.007825032230
         H           -3.947248831158     0.681786534658    -1.906058643644     1.007825032230
         H           -4.592820831158     1.047245534658    -0.298516643644     1.007825032230
         H           -3.159248831158     1.903718534658    -0.892777643644     1.007825032230
         H            1.914234168842    -2.196242465342    -0.713776643644     1.007825032230
         H            4.157604168842    -1.088339465342    -0.735937643644     1.007825032230
         H            2.208081168842     2.508610534658     0.613623356356     1.007825032230
         H            4.307342168842     1.328652534658    -0.052985643644     1.007825032230

  Basis Set: AUG-CC-PVTZ
    Blend: AUG-CC-PVTZ
  Basis Set: (AUG-CC-PVTZ AUX)
    Blend: AUG-CC-PVTZ-JKFIT
	 Reference Energy          =    -479.8960702455100318 [Eh]
	 Singles Energy            =      -0.0000000000000000 [Eh]
	 Same-Spin Energy          =      -0.5327408403455025 [Eh]
	 Opposite-Spin Energy      =      -1.7455684856432276 [Eh]
	 Correlation Energy        =      -2.2783093259887304 [Eh]
	 Total Energy              =    -482.1743795714987755 [Eh]

	 ================> DF-SCS-MP2 Energies <==================
	-----------------------------------------------------------
	 SCS Same-Spin Scale       =       0.3333333333333333 [-]
	 SCS Opposite-Spin Scale   =       1.2000000000000000 [-]
	 SCS Same-Spin Energy      =      -0.1775802801151675 [Eh]
	 SCS Opposite-Spin Energy  =      -2.0946821827718729 [Eh]
	 SCS Correlation Energy    =      -2.2722624628870403 [Eh]
	 SCS Total Energy          =    -482.1683327083970880 [Eh]
	-----------------------------------------------------------

  Dipole Moment: [D]
     X:     1.3266      Y:    -1.0848      Z:    -0.4991     Total:     1.7849

*** Psi4 exiting successfully. Buy a developer a beer!
