                               Psi4 1.4a3.dev225

  ==> Input File <==

--------------------------------------------------------------------------
#psi4
#
memory 32 gb

molecule  {
0 1
  N        1.0430420     0.8835120     0.3262100
  C       -2.7182723    -0.1275292    -0.2556495
  C       -0.4170680    -1.0145740    -0.0079460
  C       -1.3683020    -0.3105490    -1.0112920
  C       -2.2166740     0.1783740     1.1559530
  C       -1.0996000    -0.8433070     1.3811970
  C       -3.6002280     0.9375310    -0.8724950
  C        0.9620280    -0.4146880    -0.0398380
  C        2.0893310    -1.1495780    -0.4236340
  C        3.3396130    -0.5322390    -0.4347340
  C        2.2533150     1.4653640     0.3147880
  C        3.4262710     0.8062240    -0.0568370
  H       -3.2284890    -1.0854330    -0.2500270
  H       -0.3333030    -2.0805640    -0.2540920
  H       -0.9618110     0.6780590    -1.2570810
  H       -1.4754410    -0.8694270    -1.9482280
  H       -3.0167220     0.1138590     1.9027270
  H       -1.8007770     1.1928100     1.1867420
  H       -0.3855780    -0.5294870     2.1482020
  H       -1.5277920    -1.8013410     1.6997400
  H       -3.8772320     0.6843320    -1.9011880
  H       -4.5228040     1.0497910    -0.2936460
  H       -3.0892320     1.9062640    -0.8879070
  H        1.9842510    -2.1936970    -0.7089060
  H        4.2276210    -1.0857940    -0.7310670
  H        2.2780980     2.5111560     0.6184940
  H        4.3773590     1.3311980    -0.0481150
units angstrom
no_reorient  #important for SAPT in psi4, default
symmetry c1  #important for SAPT in psi4, default
}

set PROPERTIES_ORIGIN ["COM"]
properties('MP2/aug-cc-pvtz', properties = ['dipole'])
--------------------------------------------------------------------------

    Molecular point group: c1
  Charge       = 0
  Multiplicity = 1
  Basis Set: AUG-CC-PVTZ
    Blend: AUG-CC-PVTZ
  Basis Set: (AUG-CC-PVTZ AUX)
    Blend: AUG-CC-PVTZ-JKFIT

    Orbital Energies [Eh]
    ---------------------

    Doubly Occupied:

       1A    -15.557906     2A    -11.275212     3A    -11.274266
       4A    -11.257851     5A    -11.235781     6A    -11.234994
       7A    -11.225877     8A    -11.214212     9A    -11.211490
      10A    -11.210277    11A    -11.205037    12A    -11.203843
      13A     -1.251747    14A     -1.125607    15A     -1.081744
      16A     -1.046563    17A     -0.991963    18A     -0.953631
      19A     -0.892577    20A     -0.855134    21A     -0.836810
      22A     -0.763713    23A     -0.757988    24A     -0.696542
      25A     -0.667603    26A     -0.640429    27A     -0.639061
      28A     -0.607606    29A     -0.585708    30A     -0.577253
      31A     -0.574076    32A     -0.551908    33A     -0.538398
      34A     -0.526844    35A     -0.512552    36A     -0.472330
      37A     -0.468743    38A     -0.463481    39A     -0.452262
      40A     -0.448679    41A     -0.435378    42A     -0.409806
      43A     -0.376907    44A     -0.331918

  @DF-RHF Final Energy:  -479.89606969529922

   => Energetics <=

    Nuclear Repulsion Energy =            685.5190277278659323
    One-Electron Energy =               -2009.5467781676957202
    Two-Electron Energy =                 844.1316807445305130
    Total Energy =                       -479.8960696952992748
  Basis Set: (AUG-CC-PVTZ AUX)
    Blend: AUG-CC-PVTZ-RI
    Molecular point group: c1

    Geometry (in Angstrom), charge = 0, multiplicity = 1:

       Center              X                  Y                   Z               Mass
    ------------   -----------------  -----------------  -----------------  -----------------
         N            0.974955806455     0.882689258254     0.321045710204    14.003074004430
         C           -2.786358493545    -0.128351941746    -0.260813789796    12.000000000000
         C           -0.485154193545    -1.015396741746    -0.013110289796    12.000000000000
         C           -1.436388193545    -0.311371741746    -1.016456289796    12.000000000000
         C           -2.284760193545     0.177551258254     1.150788710204    12.000000000000
         C           -1.167686193545    -0.844129741746     1.376032710204    12.000000000000
         C           -3.668314193545     0.936708258254    -0.877659289796    12.000000000000
         C            0.893941806455    -0.415510741746    -0.045002289796    12.000000000000
         C            2.021244806455    -1.150400741746    -0.428798289796    12.000000000000
         C            3.271526806455    -0.533061741746    -0.439898289796    12.000000000000
         C            2.185228806455     1.464541258254     0.309623710204    12.000000000000
         C            3.358184806455     0.805401258254    -0.062001289796    12.000000000000
         H           -3.296575193545    -1.086255741746    -0.255191289796     1.007825032230
         H           -0.401389193545    -2.081386741746    -0.259256289796     1.007825032230
         H           -1.029897193545     0.677236258254    -1.262245289796     1.007825032230
         H           -1.543527193545    -0.870249741746    -1.953392289796     1.007825032230
         H           -3.084808193545     0.113036258254     1.897562710204     1.007825032230
         H           -1.868863193545     1.191987258254     1.181577710204     1.007825032230
         H           -0.453664193545    -0.530309741746     2.143037710204     1.007825032230
         H           -1.595878193545    -1.802163741746     1.694575710204     1.007825032230
         H           -3.945318193545     0.683509258254    -1.906352289796     1.007825032230
         H           -4.590890193545     1.048968258254    -0.298810289796     1.007825032230
         H           -3.157318193545     1.905441258254    -0.893071289796     1.007825032230
         H            1.916164806455    -2.194519741746    -0.714070289796     1.007825032230
         H            4.159534806455    -1.086616741746    -0.736231289796     1.007825032230
         H            2.210011806455     2.510333258254     0.613329710204     1.007825032230
         H            4.309272806455     1.330375258254    -0.053279289796     1.007825032230

  Basis Set: AUG-CC-PVTZ
    Blend: AUG-CC-PVTZ
  Basis Set: (AUG-CC-PVTZ AUX)
    Blend: AUG-CC-PVTZ-JKFIT
	 Reference Energy          =    -479.8960696952992180 [Eh]
	 Singles Energy            =      -0.0000000000000000 [Eh]
	 Same-Spin Energy          =      -0.5327286396708648 [Eh]
	 Opposite-Spin Energy      =      -1.7455319500639708 [Eh]
	 Correlation Energy        =      -2.2782605897348356 [Eh]
	 Total Energy              =    -482.1743302850340456 [Eh]

	 ================> DF-SCS-MP2 Energies <==================
	-----------------------------------------------------------
	 SCS Same-Spin Scale       =       0.3333333333333333 [-]
	 SCS Opposite-Spin Scale   =       1.2000000000000000 [-]
	 SCS Same-Spin Energy      =      -0.1775762132236216 [Eh]
	 SCS Opposite-Spin Energy  =      -2.0946383400767647 [Eh]
	 SCS Correlation Energy    =      -2.2722145533003864 [Eh]
	 SCS Total Energy          =    -482.1682842485996048 [Eh]
	-----------------------------------------------------------

  Dipole Moment: [D]
     X:     1.3133      Y:    -1.0736      Z:    -0.4967     Total:     1.7675

*** Psi4 exiting successfully. Buy a developer a beer!
