                               Psi4 1.4a3.dev225

  ==> Input File <==

--------------------------------------------------------------------------
#psi4
#
memory 32 gb

molecule  {
0 1
  N        1.0430420     0.8835120     0.3262100
  C       -2.6935940    -0.1236090    -0.2650160
  C       -0.4170680    -1.0145740    -0.0079460
  C       -1.3683020    -0.3105490    -1.0112920
  C       -2.2166740     0.1783740     1.1559530
  C       -1.0996000    -0.8433070     1.3811970
  C       -3.6002280     0.9375310    -0.8724950
  C        0.9620280    -0.4146880    -0.0398380
  C        2.0893310    -1.1495780    -0.4236340
  C        3.3396130    -0.5322390    -0.4347340
  C        2.2533150     1.4653640     0.3147880
  C        3.4262710     0.8062240    -0.0568370
  H       -3.2284890    -1.0854330    -0.2500270
  H       -0.3333030    -2.0805640    -0.2540920
  H       -0.9618110     0.6780590    -1.2570810
  H       -1.4754410    -0.8694270    -1.9482280
  H       -3.0167220     0.1138590     1.9027270
  H       -1.8007770     1.1928100     1.1867420
  H       -0.3855780    -0.5294870     2.1482020
  H       -1.5277920    -1.8013410     1.6997400
  H       -3.8772320     0.6843320    -1.9011880
  H       -4.4385431     1.0395380    -0.3465136
  H       -3.0892320     1.9062640    -0.8879070
  H        1.9842510    -2.1936970    -0.7089060
  H        4.2276210    -1.0857940    -0.7310670
  H        2.2780980     2.5111560     0.6184940
  H        4.3773590     1.3311980    -0.0481150
units angstrom
no_reorient  #important for SAPT in psi4, default
symmetry c1  #important for SAPT in psi4, default
}

set PROPERTIES_ORIGIN ["COM"]
properties('MP2/aug-cc-pvtz', properties = ['dipole'])
--------------------------------------------------------------------------

    Molecular point group: c1
  Charge       = 0
  Multiplicity = 1
  Basis Set: AUG-CC-PVTZ
    Blend: AUG-CC-PVTZ
  Basis Set: (AUG-CC-PVTZ AUX)
    Blend: AUG-CC-PVTZ-JKFIT

    Orbital Energies [Eh]
    ---------------------

    Doubly Occupied:

       1A    -15.557728     2A    -11.275029     3A    -11.274112
       4A    -11.257703     5A    -11.235634     6A    -11.234832
       7A    -11.225623     8A    -11.213694     9A    -11.211181
      10A    -11.208887    11A    -11.203555    12A    -11.192496
      13A     -1.251591    14A     -1.127353    15A     -1.081616
      16A     -1.047005    17A     -0.994450    18A     -0.954421
      19A     -0.900167    20A     -0.855060    21A     -0.836954
      22A     -0.764482    23A     -0.756075    24A     -0.696829
      25A     -0.667781    26A     -0.641384    27A     -0.640268
      28A     -0.609304    29A     -0.587014    30A     -0.578666
      31A     -0.573755    32A     -0.561324    33A     -0.537738
      34A     -0.526637    35A     -0.512518    36A     -0.472851
      37A     -0.468642    38A     -0.461330    39A     -0.452369
      40A     -0.447596    41A     -0.440189    42A     -0.409827
      43A     -0.376736    44A     -0.331845

  @DF-RHF Final Energy:  -479.89056162946656

   => Energetics <=

    Nuclear Repulsion Energy =            686.3540873581326878
    One-Electron Energy =               -2011.1808008841230730
    Two-Electron Energy =                 844.9361518965237110
    Total Energy =                       -479.8905616294665606
  Basis Set: (AUG-CC-PVTZ AUX)
    Blend: AUG-CC-PVTZ-RI
    Molecular point group: c1

    Geometry (in Angstrom), charge = 0, multiplicity = 1:

       Center              X                  Y                   Z               Mass
    ------------   -----------------  -----------------  -----------------  -----------------
         N            0.972590744506     0.882461421439     0.322074004819    14.003074004430
         C           -2.764045255494    -0.124659578561    -0.269151995181    12.000000000000
         C           -0.487519255494    -1.015624578561    -0.012081995181    12.000000000000
         C           -1.438753255494    -0.311599578561    -1.015427995181    12.000000000000
         C           -2.287125255494     0.177323421439     1.151817004819    12.000000000000
         C           -1.170051255494    -0.844357578561     1.377061004819    12.000000000000
         C           -3.670679255494     0.936480421439    -0.876630995181    12.000000000000
         C            0.891576744506    -0.415738578561    -0.043973995181    12.000000000000
         C            2.018879744506    -1.150628578561    -0.427769995181    12.000000000000
         C            3.269161744506    -0.533289578561    -0.438869995181    12.000000000000
         C            2.182863744506     1.464313421439     0.310652004819    12.000000000000
         C            3.355819744506     0.805173421439    -0.060972995181    12.000000000000
         H           -3.298940255494    -1.086483578561    -0.254162995181     1.007825032230
         H           -0.403754255494    -2.081614578561    -0.258227995181     1.007825032230
         H           -1.032262255494     0.677008421439    -1.261216995181     1.007825032230
         H           -1.545892255494    -0.870477578561    -1.952363995181     1.007825032230
         H           -3.087173255494     0.112808421439     1.898591004819     1.007825032230
         H           -1.871228255494     1.191759421439     1.182606004819     1.007825032230
         H           -0.456029255494    -0.530537578561     2.144066004819     1.007825032230
         H           -1.598243255494    -1.802391578561     1.695604004819     1.007825032230
         H           -3.947683255494     0.683281421439    -1.905323995181     1.007825032230
         H           -4.508994355494     1.038487421439    -0.350649595181     1.007825032230
         H           -3.159683255494     1.905213421439    -0.892042995181     1.007825032230
         H            1.913799744506    -2.194747578561    -0.713041995181     1.007825032230
         H            4.157169744506    -1.086844578561    -0.735202995181     1.007825032230
         H            2.207646744506     2.510105421439     0.614358004819     1.007825032230
         H            4.306907744506     1.330147421439    -0.052250995181     1.007825032230

  Basis Set: AUG-CC-PVTZ
    Blend: AUG-CC-PVTZ
  Basis Set: (AUG-CC-PVTZ AUX)
    Blend: AUG-CC-PVTZ-JKFIT
	 Reference Energy          =    -479.8905616294665606 [Eh]
	 Singles Energy            =      -0.0000000000000000 [Eh]
	 Same-Spin Energy          =      -0.5328423556447175 [Eh]
	 Opposite-Spin Energy      =      -1.7450685554260712 [Eh]
	 Correlation Energy        =      -2.2779109110707889 [Eh]
	 Total Energy              =    -482.1684725405373229 [Eh]

	 ================> DF-SCS-MP2 Energies <==================
	-----------------------------------------------------------
	 SCS Same-Spin Scale       =       0.3333333333333333 [-]
	 SCS Opposite-Spin Scale   =       1.2000000000000000 [-]
	 SCS Same-Spin Energy      =      -0.1776141185482392 [Eh]
	 SCS Opposite-Spin Energy  =      -2.0940822665112853 [Eh]
	 SCS Correlation Energy    =      -2.2716963850595242 [Eh]
	 SCS Total Energy          =    -482.1622580145260599 [Eh]
	-----------------------------------------------------------

  Dipole Moment: [D]
     X:     1.2580      Y:    -1.0509      Z:    -0.4783     Total:     1.7076

*** Psi4 exiting successfully. Buy a developer a beer!
