                               Psi4 1.4a3.dev225

  ==> Input File <==

--------------------------------------------------------------------------
#psi4
#
memory 32 gb

molecule  {
0 1
  N        1.0430420     0.8835120     0.3262100
  C       -2.6935940    -0.1236090    -0.2650160
  C       -0.5637152    -1.0567691    -0.0652338
  C       -1.3683020    -0.3105490    -1.0112920
  C       -2.2166740     0.1783740     1.1559530
  C       -1.0996000    -0.8433070     1.3811970
  C       -3.6002280     0.9375310    -0.8724950
  C        0.9620280    -0.4146880    -0.0398380
  C        2.0893310    -1.1495780    -0.4236340
  C        3.3396130    -0.5322390    -0.4347340
  C        2.2533150     1.4653640     0.3147880
  C        3.4262710     0.8062240    -0.0568370
  H       -3.2284890    -1.0854330    -0.2500270
  H       -0.3333030    -2.0805640    -0.2540920
  H       -0.9618110     0.6780590    -1.2570810
  H       -1.4754410    -0.8694270    -1.9482280
  H       -3.0167220     0.1138590     1.9027270
  H       -1.8007770     1.1928100     1.1867420
  H       -0.3855780    -0.5294870     2.1482020
  H       -1.5277920    -1.8013410     1.6997400
  H       -3.8772320     0.6843320    -1.9011880
  H       -4.5228040     1.0497910    -0.2936460
  H       -3.0892320     1.9062640    -0.8879070
  H        1.9842510    -2.1936970    -0.7089060
  H        4.2276210    -1.0857940    -0.7310670
  H        2.2780980     2.5111560     0.6184940
  H        4.3773590     1.3311980    -0.0481150
units angstrom
no_reorient  #important for SAPT in psi4, default
symmetry c1  #important for SAPT in psi4, default
}

set PROPERTIES_ORIGIN ["COM"]
properties('MP2/aug-cc-pvtz', properties = ['dipole'])
--------------------------------------------------------------------------

    Molecular point group: c1
  Charge       = 0
  Multiplicity = 1
  Basis Set: AUG-CC-PVTZ
    Blend: AUG-CC-PVTZ
  Basis Set: (AUG-CC-PVTZ AUX)
    Blend: AUG-CC-PVTZ-JKFIT

    Orbital Energies [Eh]
    ---------------------

    Doubly Occupied:

       1A    -15.557319     2A    -11.277685     3A    -11.273444
       4A    -11.256962     5A    -11.234547     6A    -11.233980
       7A    -11.230313     8A    -11.214901     9A    -11.210928
      10A    -11.204908    11A    -11.204819    12A    -11.203384
      13A     -1.247543    14A     -1.137087    15A     -1.080341
      16A     -1.035788    17A     -0.992208    18A     -0.966021
      19A     -0.888834    20A     -0.851959    21A     -0.831778
      22A     -0.762375    23A     -0.758845    24A     -0.696401
      25A     -0.667887    26A     -0.643207    27A     -0.636532
      28A     -0.613471    29A     -0.585392    30A     -0.577484
      31A     -0.573142    32A     -0.551929    33A     -0.535295
      34A     -0.527709    35A     -0.513258    36A     -0.488697
      37A     -0.467461    38A     -0.462686    39A     -0.452264
      40A     -0.442414    41A     -0.431802    42A     -0.396097
      43A     -0.375876    44A     -0.333166

  @DF-RHF Final Energy:  -479.87354411584590

   => Energetics <=

    Nuclear Repulsion Energy =            685.1462847440285486
    One-Electron Energy =               -2008.7833758291021695
    Two-Electron Energy =                 843.7635469692278321
    Total Energy =                       -479.8735441158459025
  Basis Set: (AUG-CC-PVTZ AUX)
    Blend: AUG-CC-PVTZ-RI
    Molecular point group: c1

    Geometry (in Angstrom), charge = 0, multiplicity = 1:

       Center              X                  Y                   Z               Mass
    ------------   -----------------  -----------------  -----------------  -----------------
         N            0.984039860060     0.885539913161     0.326010018599    14.003074004430
         C           -2.752596139940    -0.121581086839    -0.265215981401    12.000000000000
         C           -0.622717339940    -1.054741186839    -0.065433781401    12.000000000000
         C           -1.427304139940    -0.308521086839    -1.011491981401    12.000000000000
         C           -2.275676139940     0.180401913161     1.155753018599    12.000000000000
         C           -1.158602139940    -0.841279086839     1.380997018599    12.000000000000
         C           -3.659230139940     0.939558913161    -0.872694981401    12.000000000000
         C            0.903025860060    -0.412660086839    -0.040037981401    12.000000000000
         C            2.030328860060    -1.147550086839    -0.423833981401    12.000000000000
         C            3.280610860060    -0.530211086839    -0.434933981401    12.000000000000
         C            2.194312860060     1.467391913161     0.314588018599    12.000000000000
         C            3.367268860060     0.808251913161    -0.057036981401    12.000000000000
         H           -3.287491139940    -1.083405086839    -0.250226981401     1.007825032230
         H           -0.392305139940    -2.078536086839    -0.254291981401     1.007825032230
         H           -1.020813139940     0.680086913161    -1.257280981401     1.007825032230
         H           -1.534443139940    -0.867399086839    -1.948427981401     1.007825032230
         H           -3.075724139940     0.115886913161     1.902527018599     1.007825032230
         H           -1.859779139940     1.194837913161     1.186542018599     1.007825032230
         H           -0.444580139940    -0.527459086839     2.148002018599     1.007825032230
         H           -1.586794139940    -1.799313086839     1.699540018599     1.007825032230
         H           -3.936234139940     0.686359913161    -1.901387981401     1.007825032230
         H           -4.581806139940     1.051818913161    -0.293845981401     1.007825032230
         H           -3.148234139940     1.908291913161    -0.888106981401     1.007825032230
         H            1.925248860060    -2.191669086839    -0.709105981401     1.007825032230
         H            4.168618860060    -1.083766086839    -0.731266981401     1.007825032230
         H            2.219095860060     2.513183913161     0.618294018599     1.007825032230
         H            4.318356860060     1.333225913161    -0.048314981401     1.007825032230

  Basis Set: AUG-CC-PVTZ
    Blend: AUG-CC-PVTZ
  Basis Set: (AUG-CC-PVTZ AUX)
    Blend: AUG-CC-PVTZ-JKFIT
	 Reference Energy          =    -479.8735441158459025 [Eh]
	 Singles Energy            =      -0.0000000000000000 [Eh]
	 Same-Spin Energy          =      -0.5335285688370989 [Eh]
	 Opposite-Spin Energy      =      -1.7468983070737834 [Eh]
	 Correlation Energy        =      -2.2804268759108823 [Eh]
	 Total Energy              =    -482.1539709917568075 [Eh]

	 ================> DF-SCS-MP2 Energies <==================
	-----------------------------------------------------------
	 SCS Same-Spin Scale       =       0.3333333333333333 [-]
	 SCS Opposite-Spin Scale   =       1.2000000000000000 [-]
	 SCS Same-Spin Energy      =      -0.1778428562790330 [Eh]
	 SCS Opposite-Spin Energy  =      -2.0962779684885398 [Eh]
	 SCS Correlation Energy    =      -2.2741208247675728 [Eh]
	 SCS Total Energy          =    -482.1476649406134811 [Eh]
	-----------------------------------------------------------

  Dipole Moment: [D]
     X:     1.3473      Y:    -1.0849      Z:    -0.5185     Total:     1.8058

*** Psi4 exiting successfully. Buy a developer a beer!
