                               Psi4 1.4a3.dev225

  ==> Input File <==

--------------------------------------------------------------------------
#psi4
#
memory 32 gb

molecule  {
0 1
  N        1.0430420     0.8835120     0.3262100
  C       -2.6935940    -0.1236090    -0.2650160
  C       -0.4170680    -1.0145740    -0.0079460
  C       -1.3683020    -0.3105490    -1.0112920
  C       -2.2166740     0.1783740     1.1559530
  C       -1.0996000    -0.8433070     1.3811970
  C       -3.6002280     0.9375310    -0.8724950
  C        0.9907780    -0.3758073    -0.0329489
  C        2.0893310    -1.1495780    -0.4236340
  C        3.3396130    -0.5322390    -0.4347340
  C        2.2533150     1.4653640     0.3147880
  C        3.4262710     0.8062240    -0.0568370
  H       -3.2284890    -1.0854330    -0.2500270
  H       -0.3333030    -2.0805640    -0.2540920
  H       -0.9618110     0.6780590    -1.2570810
  H       -1.4754410    -0.8694270    -1.9482280
  H       -3.0167220     0.1138590     1.9027270
  H       -1.8007770     1.1928100     1.1867420
  H       -0.3855780    -0.5294870     2.1482020
  H       -1.5277920    -1.8013410     1.6997400
  H       -3.8772320     0.6843320    -1.9011880
  H       -4.5228040     1.0497910    -0.2936460
  H       -3.0892320     1.9062640    -0.8879070
  H        1.9842510    -2.1936970    -0.7089060
  H        4.2276210    -1.0857940    -0.7310670
  H        2.2780980     2.5111560     0.6184940
  H        4.3773590     1.3311980    -0.0481150
units angstrom
no_reorient  #important for SAPT in psi4, default
symmetry c1  #important for SAPT in psi4, default
}

set PROPERTIES_ORIGIN ["COM"]
properties('MP2/aug-cc-pvtz', properties = ['dipole'])
--------------------------------------------------------------------------

    Molecular point group: c1
  Charge       = 0
  Multiplicity = 1
  Basis Set: AUG-CC-PVTZ
    Blend: AUG-CC-PVTZ
  Basis Set: (AUG-CC-PVTZ AUX)
    Blend: AUG-CC-PVTZ-JKFIT

    Orbital Energies [Eh]
    ---------------------

    Doubly Occupied:

       1A    -15.556717     2A    -11.275307     3A    -11.273051
       4A    -11.258169     5A    -11.236375     6A    -11.235373
       7A    -11.225979     8A    -11.213611     9A    -11.209781
      10A    -11.208098    11A    -11.204554    12A    -11.202830
      13A     -1.264487    14A     -1.124927    15A     -1.085770
      16A     -1.043112    17A     -0.990728    18A     -0.952781
      19A     -0.890859    20A     -0.859398    21A     -0.836501
      22A     -0.762051    23A     -0.754138    24A     -0.699124
      25A     -0.666961    26A     -0.642922    27A     -0.639528
      28A     -0.606752    29A     -0.585081    30A     -0.577017
      31A     -0.574065    32A     -0.551733    33A     -0.542024
      34A     -0.528561    35A     -0.510469    36A     -0.470866
      37A     -0.466921    38A     -0.459803    39A     -0.451574
      40A     -0.445131    41A     -0.438716    42A     -0.408690
      43A     -0.381014    44A     -0.333954

  @DF-RHF Final Energy:  -479.89594930034366

   => Energetics <=

    Nuclear Repulsion Energy =            686.0989204579943816
    One-Electron Energy =               -2010.6987308338743787
    Two-Electron Energy =                 844.7038610755363379
    Total Energy =                       -479.8959493003436592
  Basis Set: (AUG-CC-PVTZ AUX)
    Blend: AUG-CC-PVTZ-RI
    Molecular point group: c1

    Geometry (in Angstrom), charge = 0, multiplicity = 1:

       Center              X                  Y                   Z               Mass
    ------------   -----------------  -----------------  -----------------  -----------------
         N            0.970976549929     0.879501513919     0.321230223095    14.003074004430
         C           -2.765659450071    -0.127619486081    -0.269995776905    12.000000000000
         C           -0.489133450071    -1.018584486081    -0.012925776905    12.000000000000
         C           -1.440367450071    -0.314559486081    -1.016271776905    12.000000000000
         C           -2.288739450071     0.174363513919     1.150973223095    12.000000000000
         C           -1.171665450071    -0.847317486081     1.376217223095    12.000000000000
         C           -3.672293450071     0.933520513919    -0.877474776905    12.000000000000
         C            0.918712549929    -0.379817786081    -0.037928676905    12.000000000000
         C            2.017265549929    -1.153588486081    -0.428613776905    12.000000000000
         C            3.267547549929    -0.536249486081    -0.439713776905    12.000000000000
         C            2.181249549929     1.461353513919     0.309808223095    12.000000000000
         C            3.354205549929     0.802213513919    -0.061816776905    12.000000000000
         H           -3.300554450071    -1.089443486081    -0.255006776905     1.007825032230
         H           -0.405368450071    -2.084574486081    -0.259071776905     1.007825032230
         H           -1.033876450071     0.674048513919    -1.262060776905     1.007825032230
         H           -1.547506450071    -0.873437486081    -1.953207776905     1.007825032230
         H           -3.088787450071     0.109848513919     1.897747223095     1.007825032230
         H           -1.872842450071     1.188799513919     1.181762223095     1.007825032230
         H           -0.457643450071    -0.533497486081     2.143222223095     1.007825032230
         H           -1.599857450071    -1.805351486081     1.694760223095     1.007825032230
         H           -3.949297450071     0.680321513919    -1.906167776905     1.007825032230
         H           -4.594869450071     1.045780513919    -0.298625776905     1.007825032230
         H           -3.161297450071     1.902253513919    -0.892886776905     1.007825032230
         H            1.912185549929    -2.197707486081    -0.713885776905     1.007825032230
         H            4.155555549929    -1.089804486081    -0.736046776905     1.007825032230
         H            2.206032549929     2.507145513919     0.613514223095     1.007825032230
         H            4.305293549929     1.327187513919    -0.053094776905     1.007825032230

  Basis Set: AUG-CC-PVTZ
    Blend: AUG-CC-PVTZ
  Basis Set: (AUG-CC-PVTZ AUX)
    Blend: AUG-CC-PVTZ-JKFIT
	 Reference Energy          =    -479.8959493003436592 [Eh]
	 Singles Energy            =      -0.0000000000000000 [Eh]
	 Same-Spin Energy          =      -0.5321331528668085 [Eh]
	 Opposite-Spin Energy      =      -1.7444257745037786 [Eh]
	 Correlation Energy        =      -2.2765589273705871 [Eh]
	 Total Energy              =    -482.1725082277142747 [Eh]

	 ================> DF-SCS-MP2 Energies <==================
	-----------------------------------------------------------
	 SCS Same-Spin Scale       =       0.3333333333333333 [-]
	 SCS Opposite-Spin Scale   =       1.2000000000000000 [-]
	 SCS Same-Spin Energy      =      -0.1773777176222695 [Eh]
	 SCS Opposite-Spin Energy  =      -2.0933109294045340 [Eh]
	 SCS Correlation Energy    =      -2.2706886470268035 [Eh]
	 SCS Total Energy          =    -482.1666379473704751 [Eh]
	-----------------------------------------------------------

  Dipole Moment: [D]
     X:     1.4645      Y:    -1.0443      Z:    -0.5005     Total:     1.8671

*** Psi4 exiting successfully. Buy a developer a beer!
