                               Psi4 1.4a3.dev225

  ==> Input File <==

--------------------------------------------------------------------------
#psi4
#
memory 32 gb

molecule  {
0 1
  N        1.0430420     0.8835120     0.3262100
  C       -2.6935940    -0.1236090    -0.2650160
  C       -0.4170680    -1.0145740    -0.0079460
  C       -1.3683020    -0.3105490    -1.0112920
  C       -2.2166740     0.1783740     1.1559530
  C       -1.0996000    -0.8433070     1.3811970
  C       -3.7193510     1.0769547    -0.9523119
  C        0.9620280    -0.4146880    -0.0398380
  C        2.0893310    -1.1495780    -0.4236340
  C        3.3396130    -0.5322390    -0.4347340
  C        2.2533150     1.4653640     0.3147880
  C        3.4262710     0.8062240    -0.0568370
  H       -3.2284890    -1.0854330    -0.2500270
  H       -0.3333030    -2.0805640    -0.2540920
  H       -0.9618110     0.6780590    -1.2570810
  H       -1.4754410    -0.8694270    -1.9482280
  H       -3.0167220     0.1138590     1.9027270
  H       -1.8007770     1.1928100     1.1867420
  H       -0.3855780    -0.5294870     2.1482020
  H       -1.5277920    -1.8013410     1.6997400
  H       -3.8772320     0.6843320    -1.9011880
  H       -4.5228040     1.0497910    -0.2936460
  H       -3.0892320     1.9062640    -0.8879070
  H        1.9842510    -2.1936970    -0.7089060
  H        4.2276210    -1.0857940    -0.7310670
  H        2.2780980     2.5111560     0.6184940
  H        4.3773590     1.3311980    -0.0481150
units angstrom
no_reorient  #important for SAPT in psi4, default
symmetry c1  #important for SAPT in psi4, default
}

set PROPERTIES_ORIGIN ["COM"]
properties('MP2/aug-cc-pvtz', properties = ['dipole'])
--------------------------------------------------------------------------

    Molecular point group: c1
  Charge       = 0
  Multiplicity = 1
  Basis Set: AUG-CC-PVTZ
    Blend: AUG-CC-PVTZ
  Basis Set: (AUG-CC-PVTZ AUX)
    Blend: AUG-CC-PVTZ-JKFIT

    Orbital Energies [Eh]
    ---------------------

    Doubly Occupied:

       1A    -15.558040     2A    -11.275371     3A    -11.274390
       4A    -11.257968     5A    -11.235904     6A    -11.235136
       7A    -11.226271     8A    -11.222367     9A    -11.211589
      10A    -11.209881    11A    -11.203938    12A    -11.201736
      13A     -1.251889    14A     -1.122667    15A     -1.081743
      16A     -1.041196    17A     -0.979483    18A     -0.954105
      19A     -0.902698    20A     -0.855438    21A     -0.837488
      22A     -0.763344    23A     -0.752364    24A     -0.696279
      25A     -0.667847    26A     -0.639446    27A     -0.637962
      28A     -0.601714    29A     -0.588665    30A     -0.583853
      31A     -0.574605    32A     -0.567125    33A     -0.538659
      34A     -0.534043    35A     -0.522251    36A     -0.472934
      37A     -0.468779    38A     -0.453014    39A     -0.451687
      40A     -0.448877    41A     -0.416230    42A     -0.402382
      43A     -0.376985    44A     -0.331749

  @DF-RHF Final Energy:  -479.86956363509853

   => Energetics <=

    Nuclear Repulsion Energy =            682.5221105181971097
    One-Electron Energy =               -2003.5231688090927946
    Two-Electron Energy =                 841.1314946557972689
    Total Energy =                       -479.8695636350985296
  Basis Set: (AUG-CC-PVTZ AUX)
    Blend: AUG-CC-PVTZ-RI
    Molecular point group: c1

    Geometry (in Angstrom), charge = 0, multiplicity = 1:

       Center              X                  Y                   Z               Mass
    ------------   -----------------  -----------------  -----------------  -----------------
         N            0.981989900535     0.872013227958     0.327687950859    14.003074004430
         C           -2.754646099465    -0.135107772042    -0.263538049141    12.000000000000
         C           -0.478120099465    -1.026072772042    -0.006468049141    12.000000000000
         C           -1.429354099465    -0.322047772042    -1.009814049141    12.000000000000
         C           -2.277726099465     0.166875227958     1.157430950859    12.000000000000
         C           -1.160652099465    -0.854805772042     1.382674950859    12.000000000000
         C           -3.780403099465     1.065455927958    -0.950833949141    12.000000000000
         C            0.900975900535    -0.426186772042    -0.038360049141    12.000000000000
         C            2.028278900535    -1.161076772042    -0.422156049141    12.000000000000
         C            3.278560900535    -0.543737772042    -0.433256049141    12.000000000000
         C            2.192262900535     1.453865227958     0.316265950859    12.000000000000
         C            3.365218900535     0.794725227958    -0.055359049141    12.000000000000
         H           -3.289541099465    -1.096931772042    -0.248549049141     1.007825032230
         H           -0.394355099465    -2.092062772042    -0.252614049141     1.007825032230
         H           -1.022863099465     0.666560227958    -1.255603049141     1.007825032230
         H           -1.536493099465    -0.880925772042    -1.946750049141     1.007825032230
         H           -3.077774099465     0.102360227958     1.904204950859     1.007825032230
         H           -1.861829099465     1.181311227958     1.188219950859     1.007825032230
         H           -0.446630099465    -0.540985772042     2.149679950859     1.007825032230
         H           -1.588844099465    -1.812839772042     1.701217950859     1.007825032230
         H           -3.938284099465     0.672833227958    -1.899710049141     1.007825032230
         H           -4.583856099465     1.038292227958    -0.292168049141     1.007825032230
         H           -3.150284099465     1.894765227958    -0.886429049141     1.007825032230
         H            1.923198900535    -2.205195772042    -0.707428049141     1.007825032230
         H            4.166568900535    -1.097292772042    -0.729589049141     1.007825032230
         H            2.217045900535     2.499657227958     0.619971950859     1.007825032230
         H            4.316306900535     1.319699227958    -0.046637049141     1.007825032230

  Basis Set: AUG-CC-PVTZ
    Blend: AUG-CC-PVTZ
  Basis Set: (AUG-CC-PVTZ AUX)
    Blend: AUG-CC-PVTZ-JKFIT
	 Reference Energy          =    -479.8695636350985296 [Eh]
	 Singles Energy            =      -0.0000000000000000 [Eh]
	 Same-Spin Energy          =      -0.5329242362688527 [Eh]
	 Opposite-Spin Energy      =      -1.7469825049142964 [Eh]
	 Correlation Energy        =      -2.2799067411831491 [Eh]
	 Total Energy              =    -482.1494703762816698 [Eh]

	 ================> DF-SCS-MP2 Energies <==================
	-----------------------------------------------------------
	 SCS Same-Spin Scale       =       0.3333333333333333 [-]
	 SCS Opposite-Spin Scale   =       1.2000000000000000 [-]
	 SCS Same-Spin Energy      =      -0.1776414120896175 [Eh]
	 SCS Opposite-Spin Energy  =      -2.0963790058971554 [Eh]
	 SCS Correlation Energy    =      -2.2740204179867729 [Eh]
	 SCS Total Energy          =    -482.1435840530853056 [Eh]
	-----------------------------------------------------------

  Dipole Moment: [D]
     X:     1.4050      Y:    -1.1331      Z:    -0.4513     Total:     1.8605

*** Psi4 exiting successfully. Buy a developer a beer!
