                               Psi4 1.4a3.dev225

  ==> Input File <==

--------------------------------------------------------------------------
#psi4
#
memory 32 gb

molecule  {
0 1
  N        1.0430420     0.8835120     0.3262100
  C       -2.6393802    -0.0703608    -0.1897428
  C       -0.4170680    -1.0145740    -0.0079460
  C       -1.3683020    -0.3105490    -1.0112920
  C       -2.2166740     0.1783740     1.1559530
  C       -1.0996000    -0.8433070     1.3811970
  C       -3.6002280     0.9375310    -0.8724950
  C        0.9620280    -0.4146880    -0.0398380
  C        2.0893310    -1.1495780    -0.4236340
  C        3.3396130    -0.5322390    -0.4347340
  C        2.2533150     1.4653640     0.3147880
  C        3.4262710     0.8062240    -0.0568370
  H       -3.2284890    -1.0854330    -0.2500270
  H       -0.3333030    -2.0805640    -0.2540920
  H       -0.9618110     0.6780590    -1.2570810
  H       -1.4754410    -0.8694270    -1.9482280
  H       -3.0167220     0.1138590     1.9027270
  H       -1.8007770     1.1928100     1.1867420
  H       -0.3855780    -0.5294870     2.1482020
  H       -1.5277920    -1.8013410     1.6997400
  H       -3.8772320     0.6843320    -1.9011880
  H       -4.5228040     1.0497910    -0.2936460
  H       -3.0892320     1.9062640    -0.8879070
  H        1.9842510    -2.1936970    -0.7089060
  H        4.2276210    -1.0857940    -0.7310670
  H        2.2780980     2.5111560     0.6184940
  H        4.3773590     1.3311980    -0.0481150
units angstrom
no_reorient  #important for SAPT in psi4, default
symmetry c1  #important for SAPT in psi4, default
}

set PROPERTIES_ORIGIN ["COM"]
properties('MP2/aug-cc-pvtz', properties = ['dipole'])
--------------------------------------------------------------------------

    Molecular point group: c1
  Charge       = 0
  Multiplicity = 1
  Basis Set: AUG-CC-PVTZ
    Blend: AUG-CC-PVTZ
  Basis Set: (AUG-CC-PVTZ AUX)
    Blend: AUG-CC-PVTZ-JKFIT

    Orbital Energies [Eh]
    ---------------------

    Doubly Occupied:

       1A    -15.557962     2A    -11.275347     3A    -11.274426
       4A    -11.257990     5A    -11.235811     6A    -11.235038
       7A    -11.226247     8A    -11.218653     9A    -11.212860
      10A    -11.210305    11A    -11.206922    12A    -11.200942
      13A     -1.251962    14A     -1.136967    15A     -1.081974
      16A     -1.048645    17A     -0.988055    18A     -0.960578
      19A     -0.895375    20A     -0.855735    21A     -0.840989
      22A     -0.767136    23A     -0.746261    24A     -0.696834
      25A     -0.670072    26A     -0.643546    27A     -0.640874
      28A     -0.611076    29A     -0.583563    30A     -0.577497
      31A     -0.575097    32A     -0.551612    33A     -0.537628
      34A     -0.526758    35A     -0.511165    36A     -0.485383
      37A     -0.471078    38A     -0.463366    39A     -0.453906
      40A     -0.448248    41A     -0.423711    42A     -0.409138
      43A     -0.376849    44A     -0.331761

  @DF-RHF Final Energy:  -479.88330292173725

   => Energetics <=

    Nuclear Repulsion Energy =            687.1013850480645715
    One-Electron Energy =               -2012.6186911730958400
    Two-Electron Energy =                 845.6340032032939007
    Total Energy =                       -479.8833029217372541
  Basis Set: (AUG-CC-PVTZ AUX)
    Blend: AUG-CC-PVTZ-RI
    Molecular point group: c1

    Geometry (in Angstrom), charge = 0, multiplicity = 1:

       Center              X                  Y                   Z               Mass
    ------------   -----------------  -----------------  -----------------  -----------------
         N            0.969080045786     0.878431444908     0.316137081892    14.003074004430
         C           -2.713342154214    -0.075441355092    -0.199815718108    12.000000000000
         C           -0.491029954214    -1.019654555092    -0.018018918108    12.000000000000
         C           -1.442263954214    -0.315629555092    -1.021364918108    12.000000000000
         C           -2.290635954214     0.173293444908     1.145880081892    12.000000000000
         C           -1.173561954214    -0.848387555092     1.371124081892    12.000000000000
         C           -3.674189954214     0.932450444908    -0.882567918108    12.000000000000
         C            0.888066045786    -0.419768555092    -0.049910918108    12.000000000000
         C            2.015369045786    -1.154658555092    -0.433706918108    12.000000000000
         C            3.265651045786    -0.537319555092    -0.444806918108    12.000000000000
         C            2.179353045786     1.460283444908     0.304715081892    12.000000000000
         C            3.352309045786     0.801143444908    -0.066909918108    12.000000000000
         H           -3.302450954214    -1.090513555092    -0.260099918108     1.007825032230
         H           -0.407264954214    -2.085644555092    -0.264164918108     1.007825032230
         H           -1.035772954214     0.672978444908    -1.267153918108     1.007825032230
         H           -1.549402954214    -0.874507555092    -1.958300918108     1.007825032230
         H           -3.090683954214     0.108778444908     1.892654081892     1.007825032230
         H           -1.874738954214     1.187729444908     1.176669081892     1.007825032230
         H           -0.459539954214    -0.534567555092     2.138129081892     1.007825032230
         H           -1.601753954214    -1.806421555092     1.689667081892     1.007825032230
         H           -3.951193954214     0.679251444908    -1.911260918108     1.007825032230
         H           -4.596765954214     1.044710444908    -0.303718918108     1.007825032230
         H           -3.163193954214     1.901183444908    -0.897979918108     1.007825032230
         H            1.910289045786    -2.198777555092    -0.718978918108     1.007825032230
         H            4.153659045786    -1.090874555092    -0.741139918108     1.007825032230
         H            2.204136045786     2.506075444908     0.608421081892     1.007825032230
         H            4.303397045786     1.326117444908    -0.058187918108     1.007825032230

  Basis Set: AUG-CC-PVTZ
    Blend: AUG-CC-PVTZ
  Basis Set: (AUG-CC-PVTZ AUX)
    Blend: AUG-CC-PVTZ-JKFIT
	 Reference Energy          =    -479.8833029217372541 [Eh]
	 Singles Energy            =      -0.0000000000000000 [Eh]
	 Same-Spin Energy          =      -0.5336418753222799 [Eh]
	 Opposite-Spin Energy      =      -1.7467299917667640 [Eh]
	 Correlation Energy        =      -2.2803718670890438 [Eh]
	 Total Energy              =    -482.1636747888263130 [Eh]

	 ================> DF-SCS-MP2 Energies <==================
	-----------------------------------------------------------
	 SCS Same-Spin Scale       =       0.3333333333333333 [-]
	 SCS Opposite-Spin Scale   =       1.2000000000000000 [-]
	 SCS Same-Spin Energy      =      -0.1778806251074266 [Eh]
	 SCS Opposite-Spin Energy  =      -2.0960759901201169 [Eh]
	 SCS Correlation Energy    =      -2.2739566152275437 [Eh]
	 SCS Total Energy          =    -482.1572595369647729 [Eh]
	-----------------------------------------------------------

  Dipole Moment: [D]
     X:     1.3681      Y:    -1.0446      Z:    -0.4701     Total:     1.7843

*** Psi4 exiting successfully. Buy a developer a beer!
