                               Psi4 1.4a3.dev225

  ==> Input File <==

--------------------------------------------------------------------------
#psi4
#
memory 32 gb

molecule  {
0 1
  N        1.1359713     0.8786152     0.3108586
  C       -2.6935940    -0.1236090    -0.2650160
  C       -0.4170680    -1.0145740    -0.0079460
  C       -1.3683020    -0.3105490    -1.0112920
  C       -2.2166740     0.1783740     1.1559530
  C       -1.0996000    -0.8433070     1.3811970
  C       -3.6002280     0.9375310    -0.8724950
  C        0.9620280    -0.4146880    -0.0398380
  C        2.0893310    -1.1495780    -0.4236340
  C        3.3396130    -0.5322390    -0.4347340
  C        2.2533150     1.4653640     0.3147880
  C        3.4262710     0.8062240    -0.0568370
  H       -3.2284890    -1.0854330    -0.2500270
  H       -0.3333030    -2.0805640    -0.2540920
  H       -0.9618110     0.6780590    -1.2570810
  H       -1.4754410    -0.8694270    -1.9482280
  H       -3.0167220     0.1138590     1.9027270
  H       -1.8007770     1.1928100     1.1867420
  H       -0.3855780    -0.5294870     2.1482020
  H       -1.5277920    -1.8013410     1.6997400
  H       -3.8772320     0.6843320    -1.9011880
  H       -4.5228040     1.0497910    -0.2936460
  H       -3.0892320     1.9062640    -0.8879070
  H        1.9842510    -2.1936970    -0.7089060
  H        4.2276210    -1.0857940    -0.7310670
  H        2.2780980     2.5111560     0.6184940
  H        4.3773590     1.3311980    -0.0481150
units angstrom
no_reorient  #important for SAPT in psi4, default
symmetry c1  #important for SAPT in psi4, default
}

set PROPERTIES_ORIGIN ["COM"]
properties('MP2/aug-cc-pvtz', properties = ['dipole'])
--------------------------------------------------------------------------

    Molecular point group: c1
  Charge       = 0
  Multiplicity = 1
  Basis Set: AUG-CC-PVTZ
    Blend: AUG-CC-PVTZ
  Basis Set: (AUG-CC-PVTZ AUX)
    Blend: AUG-CC-PVTZ-JKFIT

    Orbital Energies [Eh]
    ---------------------

    Doubly Occupied:

       1A    -15.545849     2A    -11.275441     3A    -11.263547
       4A    -11.253495     5A    -11.233272     6A    -11.231980
       7A    -11.228964     8A    -11.215911     9A    -11.212928
      10A    -11.211285    11A    -11.206276    12A    -11.205365
      13A     -1.270547    14A     -1.130482    15A     -1.080361
      16A     -1.050541    17A     -0.992302    18A     -0.955977
      19A     -0.894999    20A     -0.851630    21A     -0.842960
      22A     -0.768658    23A     -0.757120    24A     -0.700143
      25A     -0.669205    26A     -0.643541    27A     -0.639421
      28A     -0.608913    29A     -0.587089    30A     -0.580059
      31A     -0.575023    32A     -0.553187    33A     -0.544300
      34A     -0.530954    35A     -0.515032    36A     -0.475130
      37A     -0.470964    38A     -0.462286    39A     -0.455777
      40A     -0.448498    41A     -0.440511    42A     -0.392827
      43A     -0.381906    44A     -0.328826

  @DF-RHF Final Energy:  -479.89354929730342

   => Energetics <=

    Nuclear Repulsion Energy =            686.7281547574303886
    One-Electron Energy =               -2011.8764476603610092
    Two-Electron Energy =                 845.2547436056272545
    Total Energy =                       -479.8935492973034798
  Basis Set: (AUG-CC-PVTZ AUX)
    Blend: AUG-CC-PVTZ-RI
    Molecular point group: c1

    Geometry (in Angstrom), charge = 0, multiplicity = 1:

       Center              X                  Y                   Z               Mass
    ------------   -----------------  -----------------  -----------------  -----------------
         N            1.057970564445     0.877926071664     0.307726111824    14.003074004430
         C           -2.771594735555    -0.124298128336    -0.268148488176    12.000000000000
         C           -0.495068735555    -1.015263128336    -0.011078488176    12.000000000000
         C           -1.446302735555    -0.311238128336    -1.014424488176    12.000000000000
         C           -2.294674735555     0.177684871664     1.152820511824    12.000000000000
         C           -1.177600735555    -0.843996128336     1.378064511824    12.000000000000
         C           -3.678228735555     0.936841871664    -0.875627488176    12.000000000000
         C            0.884027264445    -0.415377128336    -0.042970488176    12.000000000000
         C            2.011330264445    -1.150267128336    -0.426766488176    12.000000000000
         C            3.261612264445    -0.532928128336    -0.437866488176    12.000000000000
         C            2.175314264445     1.464674871664     0.311655511824    12.000000000000
         C            3.348270264445     0.805534871664    -0.059969488176    12.000000000000
         H           -3.306489735555    -1.086122128336    -0.253159488176     1.007825032230
         H           -0.411303735555    -2.081253128336    -0.257224488176     1.007825032230
         H           -1.039811735555     0.677369871664    -1.260213488176     1.007825032230
         H           -1.553441735555    -0.870116128336    -1.951360488176     1.007825032230
         H           -3.094722735555     0.113169871664     1.899594511824     1.007825032230
         H           -1.878777735555     1.192120871664     1.183609511824     1.007825032230
         H           -0.463578735555    -0.530176128336     2.145069511824     1.007825032230
         H           -1.605792735555    -1.802030128336     1.696607511824     1.007825032230
         H           -3.955232735555     0.683642871664    -1.904320488176     1.007825032230
         H           -4.600804735555     1.049101871664    -0.296778488176     1.007825032230
         H           -3.167232735555     1.905574871664    -0.891039488176     1.007825032230
         H            1.906250264445    -2.194386128336    -0.712038488176     1.007825032230
         H            4.149620264445    -1.086483128336    -0.734199488176     1.007825032230
         H            2.200097264445     2.510466871664     0.615361511824     1.007825032230
         H            4.299358264445     1.330508871664    -0.051247488176     1.007825032230

  Basis Set: AUG-CC-PVTZ
    Blend: AUG-CC-PVTZ
  Basis Set: (AUG-CC-PVTZ AUX)
    Blend: AUG-CC-PVTZ-JKFIT
	 Reference Energy          =    -479.8935492973034229 [Eh]
	 Singles Energy            =      -0.0000000000000000 [Eh]
	 Same-Spin Energy          =      -0.5319116080389419 [Eh]
	 Opposite-Spin Energy      =      -1.7429147077186185 [Eh]
	 Correlation Energy        =      -2.2748263157575606 [Eh]
	 Total Energy              =    -482.1683756130609595 [Eh]

	 ================> DF-SCS-MP2 Energies <==================
	-----------------------------------------------------------
	 SCS Same-Spin Scale       =       0.3333333333333333 [-]
	 SCS Opposite-Spin Scale   =       1.2000000000000000 [-]
	 SCS Same-Spin Energy      =      -0.1773038693463140 [Eh]
	 SCS Opposite-Spin Energy  =      -2.0914976492623421 [Eh]
	 SCS Correlation Energy    =      -2.2688015186086559 [Eh]
	 SCS Total Energy          =    -482.1623508159120775 [Eh]
	-----------------------------------------------------------

  Dipole Moment: [D]
     X:     1.0645      Y:    -1.0711      Z:    -0.4581     Total:     1.5780

*** Psi4 exiting successfully. Buy a developer a beer!
