                               Psi4 1.4a3.dev225

  ==> Input File <==

--------------------------------------------------------------------------
#psi4
#
memory 32 gb

molecule  {
0 1
  N        1.0430420     0.8835120     0.3262100
  C       -2.6935940    -0.1236090    -0.2650160
  C       -0.4170680    -1.0145740    -0.0079460
  C       -1.3683020    -0.3105490    -1.0112920
  C       -2.2166740     0.1783740     1.1559530
  C       -1.0996000    -0.8433070     1.3811970
  C       -3.6002280     0.9375310    -0.8724950
  C        0.9620280    -0.4146880    -0.0398380
  C        2.0893310    -1.1495780    -0.4236340
  C        3.3396130    -0.5322390    -0.4347340
  C        2.2533150     1.4653640     0.3147880
  C        3.4262710     0.8062240    -0.0568370
  H       -3.2284890    -1.0854330    -0.2500270
  H       -0.3333030    -2.0805640    -0.2540920
  H       -0.9618110     0.6780590    -1.2570810
  H       -1.4754410    -0.8694270    -1.9482280
  H       -3.0167220     0.1138590     1.9027270
  H       -1.8007770     1.1928100     1.1867420
  H       -0.3529413    -0.5151428     2.1832604
  H       -1.5277920    -1.8013410     1.6997400
  H       -3.8772320     0.6843320    -1.9011880
  H       -4.5228040     1.0497910    -0.2936460
  H       -3.0892320     1.9062640    -0.8879070
  H        1.9842510    -2.1936970    -0.7089060
  H        4.2276210    -1.0857940    -0.7310670
  H        2.2780980     2.5111560     0.6184940
  H        4.3773590     1.3311980    -0.0481150
units angstrom
no_reorient  #important for SAPT in psi4, default
symmetry c1  #important for SAPT in psi4, default
}

set PROPERTIES_ORIGIN ["COM"]
properties('MP2/aug-cc-pvtz', properties = ['dipole'])
--------------------------------------------------------------------------

    Molecular point group: c1
  Charge       = 0
  Multiplicity = 1
  Basis Set: AUG-CC-PVTZ
    Blend: AUG-CC-PVTZ
  Basis Set: (AUG-CC-PVTZ AUX)
    Blend: AUG-CC-PVTZ-JKFIT

    Orbital Energies [Eh]
    ---------------------

    Doubly Occupied:

       1A    -15.557900     2A    -11.275351     3A    -11.274269
       4A    -11.257869     5A    -11.235799     6A    -11.235054
       7A    -11.226683     8A    -11.217333     9A    -11.215029
      10A    -11.210088    11A    -11.205569    12A    -11.204226
      13A     -1.251777    14A     -1.127567    15A     -1.081785
      16A     -1.046555    17A     -0.990420    18A     -0.954372
      19A     -0.893404    20A     -0.855060    21A     -0.835941
      22A     -0.762522    23A     -0.755719    24A     -0.696152
      25A     -0.668146    26A     -0.640589    27A     -0.639335
      28A     -0.606176    29A     -0.584880    30A     -0.577718
      31A     -0.574080    32A     -0.551142    33A     -0.537512
      34A     -0.526952    35A     -0.511203    36A     -0.472087
      37A     -0.468710    38A     -0.461129    39A     -0.452482
      40A     -0.447012    41A     -0.438649    42A     -0.409983
      43A     -0.376822    44A     -0.332084

  @DF-RHF Final Energy:  -479.89433519945055

   => Energetics <=

    Nuclear Repulsion Energy =            685.6366918675729494
    One-Electron Energy =               -2009.7757863260901559
    Two-Electron Energy =                 844.2447592590667682
    Total Energy =                       -479.8943351994505520
  Basis Set: (AUG-CC-PVTZ AUX)
    Blend: AUG-CC-PVTZ-RI
    Molecular point group: c1

    Geometry (in Angstrom), charge = 0, multiplicity = 1:

       Center              X                  Y                   Z               Mass
    ------------   -----------------  -----------------  -----------------  -----------------
         N            0.972913659202     0.882307563416     0.321524018619    14.003074004430
         C           -2.763722340798    -0.124813436584    -0.269701981381    12.000000000000
         C           -0.487196340798    -1.015778436584    -0.012631981381    12.000000000000
         C           -1.438430340798    -0.311753436584    -1.015977981381    12.000000000000
         C           -2.286802340798     0.177169563416     1.151267018619    12.000000000000
         C           -1.169728340798    -0.844511436584     1.376511018619    12.000000000000
         C           -3.670356340798     0.936326563416    -0.877180981381    12.000000000000
         C            0.891899659202    -0.415892436584    -0.044523981381    12.000000000000
         C            2.019202659202    -1.150782436584    -0.428319981381    12.000000000000
         C            3.269484659202    -0.533443436584    -0.439419981381    12.000000000000
         C            2.183186659202     1.464159563416     0.310102018619    12.000000000000
         C            3.356142659202     0.805019563416    -0.061522981381    12.000000000000
         H           -3.298617340798    -1.086637436584    -0.254712981381     1.007825032230
         H           -0.403431340798    -2.081768436584    -0.258777981381     1.007825032230
         H           -1.031939340798     0.676854563416    -1.261766981381     1.007825032230
         H           -1.545569340798    -0.870631436584    -1.952913981381     1.007825032230
         H           -3.086850340798     0.112654563416     1.898041018619     1.007825032230
         H           -1.870905340798     1.191605563416     1.182056018619     1.007825032230
         H           -0.423069640798    -0.516347236584     2.178574418619     1.007825032230
         H           -1.597920340798    -1.802545436584     1.695054018619     1.007825032230
         H           -3.947360340798     0.683127563416    -1.905873981381     1.007825032230
         H           -4.592932340798     1.048586563416    -0.298331981381     1.007825032230
         H           -3.159360340798     1.905059563416    -0.892592981381     1.007825032230
         H            1.914122659202    -2.194901436584    -0.713591981381     1.007825032230
         H            4.157492659202    -1.086998436584    -0.735752981381     1.007825032230
         H            2.207969659202     2.509951563416     0.613808018619     1.007825032230
         H            4.307230659202     1.329993563416    -0.052800981381     1.007825032230

  Basis Set: AUG-CC-PVTZ
    Blend: AUG-CC-PVTZ
  Basis Set: (AUG-CC-PVTZ AUX)
    Blend: AUG-CC-PVTZ-JKFIT
	 Reference Energy          =    -479.8943351994505520 [Eh]
	 Singles Energy            =      -0.0000000000000000 [Eh]
	 Same-Spin Energy          =      -0.5328640596101226 [Eh]
	 Opposite-Spin Energy      =      -1.7459868607577291 [Eh]
	 Correlation Energy        =      -2.2788509203678515 [Eh]
	 Total Energy              =    -482.1731861198184106 [Eh]

	 ================> DF-SCS-MP2 Energies <==================
	-----------------------------------------------------------
	 SCS Same-Spin Scale       =       0.3333333333333333 [-]
	 SCS Opposite-Spin Scale   =       1.2000000000000000 [-]
	 SCS Same-Spin Energy      =      -0.1776213532033742 [Eh]
	 SCS Opposite-Spin Energy  =      -2.0951842329092747 [Eh]
	 SCS Correlation Energy    =      -2.2728055861126490 [Eh]
	 SCS Total Energy          =    -482.1671407855632197 [Eh]
	-----------------------------------------------------------

  Dipole Moment: [D]
     X:     1.3070      Y:    -1.0665      Z:    -0.5240     Total:     1.7665

*** Psi4 exiting successfully. Buy a developer a beer!
