                               Psi4 1.4a3.dev225

  ==> Input File <==

--------------------------------------------------------------------------
#psi4
#
memory 32 gb

molecule  {
0 1
  N        1.0430420     0.8835120     0.3262100
  C       -2.6935940    -0.1236090    -0.2650160
  C       -0.4170680    -1.0145740    -0.0079460
  C       -1.3683020    -0.3105490    -1.0112920
  C       -2.2166740     0.1783740     1.1559530
  C       -1.0996000    -0.8433070     1.3811970
  C       -3.6002280     0.9375310    -0.8724950
  C        0.9620280    -0.4146880    -0.0398380
  C        2.0893310    -1.1495780    -0.4236340
  C        3.3396130    -0.5322390    -0.4347340
  C        2.2533150     1.4653640     0.3147880
  C        3.4293804     0.8542498    -0.0432776
  H       -3.2284890    -1.0854330    -0.2500270
  H       -0.3333030    -2.0805640    -0.2540920
  H       -0.9618110     0.6780590    -1.2570810
  H       -1.4754410    -0.8694270    -1.9482280
  H       -3.0167220     0.1138590     1.9027270
  H       -1.8007770     1.1928100     1.1867420
  H       -0.3855780    -0.5294870     2.1482020
  H       -1.5277920    -1.8013410     1.6997400
  H       -3.8772320     0.6843320    -1.9011880
  H       -4.5228040     1.0497910    -0.2936460
  H       -3.0892320     1.9062640    -0.8879070
  H        1.9842510    -2.1936970    -0.7089060
  H        4.2276210    -1.0857940    -0.7310670
  H        2.2780980     2.5111560     0.6184940
  H        4.3773590     1.3311980    -0.0481150
units angstrom
no_reorient  #important for SAPT in psi4, default
symmetry c1  #important for SAPT in psi4, default
}

set PROPERTIES_ORIGIN ["COM"]
properties('MP2/aug-cc-pvtz', properties = ['dipole'])
--------------------------------------------------------------------------

    Molecular point group: c1
  Charge       = 0
  Multiplicity = 1
  Basis Set: AUG-CC-PVTZ
    Blend: AUG-CC-PVTZ
  Basis Set: (AUG-CC-PVTZ AUX)
    Blend: AUG-CC-PVTZ-JKFIT

    Orbital Energies [Eh]
    ---------------------

    Doubly Occupied:

       1A    -15.556685     2A    -11.277234     3A    -11.270157
       4A    -11.264033     5A    -11.236077     6A    -11.235682
       7A    -11.226856     8A    -11.214915     9A    -11.211884
      10A    -11.210217    11A    -11.205436    12A    -11.203964
      13A     -1.250926    14A     -1.127870    15A     -1.075358
      16A     -1.048406    17A     -0.992594    18A     -0.956002
      19A     -0.895125    20A     -0.852345    21A     -0.837894
      22A     -0.764668    23A     -0.755917    24A     -0.696330
      25A     -0.670880    26A     -0.643044    27A     -0.638568
      28A     -0.608584    29A     -0.584307    30A     -0.580043
      31A     -0.575983    32A     -0.551125    33A     -0.536156
      34A     -0.524212    35A     -0.510774    36A     -0.473053
      37A     -0.468970    38A     -0.461221    39A     -0.453001
      40A     -0.447250    41A     -0.439809    42A     -0.411192
      43A     -0.372654    44A     -0.334703

  @DF-RHF Final Energy:  -479.89349899104479

   => Energetics <=

    Nuclear Repulsion Energy =            685.4011742046720883
    One-Electron Energy =               -2009.2851414813253541
    Two-Electron Energy =                 843.9904682856084719
    Total Energy =                       -479.8934989910447939
  Basis Set: (AUG-CC-PVTZ AUX)
    Blend: AUG-CC-PVTZ-RI
    Molecular point group: c1

    Geometry (in Angstrom), charge = 0, multiplicity = 1:

       Center              X                  Y                   Z               Mass
    ------------   -----------------  -----------------  -----------------  -----------------
         N            0.972886221861     0.878820401122     0.320733429546    14.003074004430
         C           -2.763749778139    -0.128300598878    -0.270492570454    12.000000000000
         C           -0.487223778139    -1.019265598878    -0.013422570454    12.000000000000
         C           -1.438457778139    -0.315240598878    -1.016768570454    12.000000000000
         C           -2.286829778139     0.173682401122     1.150476429546    12.000000000000
         C           -1.169755778139    -0.847998598878     1.375720429546    12.000000000000
         C           -3.670383778139     0.932839401122    -0.877971570454    12.000000000000
         C            0.891872221861    -0.419379598878    -0.045314570454    12.000000000000
         C            2.019175221861    -1.154269598878    -0.429110570454    12.000000000000
         C            3.269457221861    -0.536930598878    -0.440210570454    12.000000000000
         C            2.183159221861     1.460672401122     0.309311429546    12.000000000000
         C            3.359224621861     0.849558201122    -0.048754170454    12.000000000000
         H           -3.298644778139    -1.090124598878    -0.255503570454     1.007825032230
         H           -0.403458778139    -2.085255598878    -0.259568570454     1.007825032230
         H           -1.031966778139     0.673367401122    -1.262557570454     1.007825032230
         H           -1.545596778139    -0.874118598878    -1.953704570454     1.007825032230
         H           -3.086877778139     0.109167401122     1.897250429546     1.007825032230
         H           -1.870932778139     1.188118401122     1.181265429546     1.007825032230
         H           -0.455733778139    -0.534178598878     2.142725429546     1.007825032230
         H           -1.597947778139    -1.806032598878     1.694263429546     1.007825032230
         H           -3.947387778139     0.679640401122    -1.906664570454     1.007825032230
         H           -4.592959778139     1.045099401122    -0.299122570454     1.007825032230
         H           -3.159387778139     1.901572401122    -0.893383570454     1.007825032230
         H            1.914095221861    -2.198388598878    -0.714382570454     1.007825032230
         H            4.157465221861    -1.090485598878    -0.736543570454     1.007825032230
         H            2.207942221861     2.506464401122     0.613017429546     1.007825032230
         H            4.307203221861     1.326506401122    -0.053591570454     1.007825032230

  Basis Set: AUG-CC-PVTZ
    Blend: AUG-CC-PVTZ
  Basis Set: (AUG-CC-PVTZ AUX)
    Blend: AUG-CC-PVTZ-JKFIT
	 Reference Energy          =    -479.8934989910447939 [Eh]
	 Singles Energy            =      -0.0000000000000000 [Eh]
	 Same-Spin Energy          =      -0.5326468733455700 [Eh]
	 Opposite-Spin Energy      =      -1.7456655352309216 [Eh]
	 Correlation Energy        =      -2.2783124085764914 [Eh]
	 Total Energy              =    -482.1718113996212765 [Eh]

	 ================> DF-SCS-MP2 Energies <==================
	-----------------------------------------------------------
	 SCS Same-Spin Scale       =       0.3333333333333333 [-]
	 SCS Opposite-Spin Scale   =       1.2000000000000000 [-]
	 SCS Same-Spin Energy      =      -0.1775489577818567 [Eh]
	 SCS Opposite-Spin Energy  =      -2.0947986422771057 [Eh]
	 SCS Correlation Energy    =      -2.2723476000589624 [Eh]
	 SCS Total Energy          =    -482.1658465911037297 [Eh]
	-----------------------------------------------------------

  Dipole Moment: [D]
     X:     1.3182      Y:    -1.1063      Z:    -0.5051     Total:     1.7935

*** Psi4 exiting successfully. Buy a developer a beer!
