                               Psi4 1.4a3.dev225

  ==> Input File <==

--------------------------------------------------------------------------
#psi4
#
memory 32 gb

molecule  {
0 1
  N        1.0430420     0.8835120     0.3262100
  C       -2.6935940    -0.1236090    -0.2650160
  C       -0.4170680    -1.0145740    -0.0079460
  C       -1.3683020    -0.3105490    -1.0112920
  C       -2.2166740     0.1783740     1.1559530
  C       -1.0996000    -0.8433070     1.3811970
  C       -3.6002280     0.9375310    -0.8724950
  C        0.9620280    -0.4146880    -0.0398380
  C        2.0893310    -1.1495780    -0.4236340
  C        3.3396130    -0.5322390    -0.4347340
  C        2.2533150     1.4653640     0.3147880
  C        3.4262710     0.8062240    -0.0568370
  H       -3.2284890    -1.0854330    -0.2500270
  H       -0.3333030    -2.0805640    -0.2540920
  H       -0.9618110     0.6780590    -1.2570810
  H       -1.4754410    -0.8694270    -1.9482280
  H       -3.0167220     0.1138590     1.9027270
  H       -1.8197363     1.1465653     1.1853384
  H       -0.3855780    -0.5294870     2.1482020
  H       -1.5277920    -1.8013410     1.6997400
  H       -3.8772320     0.6843320    -1.9011880
  H       -4.5228040     1.0497910    -0.2936460
  H       -3.0892320     1.9062640    -0.8879070
  H        1.9842510    -2.1936970    -0.7089060
  H        4.2276210    -1.0857940    -0.7310670
  H        2.2780980     2.5111560     0.6184940
  H        4.3773590     1.3311980    -0.0481150
units angstrom
no_reorient  #important for SAPT in psi4, default
symmetry c1  #important for SAPT in psi4, default
}

set PROPERTIES_ORIGIN ["COM"]
properties('MP2/aug-cc-pvtz', properties = ['dipole'])
--------------------------------------------------------------------------

    Molecular point group: c1
  Charge       = 0
  Multiplicity = 1
  Basis Set: AUG-CC-PVTZ
    Blend: AUG-CC-PVTZ
  Basis Set: (AUG-CC-PVTZ AUX)
    Blend: AUG-CC-PVTZ-JKFIT

    Orbital Energies [Eh]
    ---------------------

    Doubly Occupied:

       1A    -15.558104     2A    -11.275337     3A    -11.274410
       4A    -11.257965     5A    -11.235899     6A    -11.235101
       7A    -11.226003     8A    -11.214127     9A    -11.210915
      10A    -11.209619    11A    -11.205263    12A    -11.197595
      13A     -1.251919    14A     -1.128020    15A     -1.081889
      16A     -1.046694    17A     -0.991173    18A     -0.956377
      19A     -0.893990    20A     -0.855275    21A     -0.837663
      22A     -0.766534    23A     -0.757036    24A     -0.696814
      25A     -0.668037    26A     -0.640606    27A     -0.640243
      28A     -0.608816    29A     -0.584933    30A     -0.579967
      31A     -0.574030    32A     -0.551822    33A     -0.538889
      34A     -0.527275    35A     -0.513144    36A     -0.472995
      37A     -0.468925    38A     -0.461059    39A     -0.454534
      40A     -0.447892    41A     -0.439131    42A     -0.410256
      43A     -0.377031    44A     -0.332113

  @DF-RHF Final Energy:  -479.89575556895181

   => Energetics <=

    Nuclear Repulsion Energy =            686.0897978243023090
    One-Electron Energy =               -2010.6602593240047554
    Two-Electron Energy =                 844.6747059307507470
    Total Energy =                       -479.8957555689518131
  Basis Set: (AUG-CC-PVTZ AUX)
    Blend: AUG-CC-PVTZ-RI
    Molecular point group: c1

    Geometry (in Angstrom), charge = 0, multiplicity = 1:

       Center              X                  Y                   Z               Mass
    ------------   -----------------  -----------------  -----------------  -----------------
         N            0.973236397505     0.882686553235     0.321752092191    14.003074004430
         C           -2.763399602495    -0.124434446765    -0.269473907809    12.000000000000
         C           -0.486873602495    -1.015399446765    -0.012403907809    12.000000000000
         C           -1.438107602495    -0.311374446765    -1.015749907809    12.000000000000
         C           -2.286479602495     0.177548553235     1.151495092191    12.000000000000
         C           -1.169405602495    -0.844132446765     1.376739092191    12.000000000000
         C           -3.670033602495     0.936705553235    -0.876952907809    12.000000000000
         C            0.892222397505    -0.415513446765    -0.044295907809    12.000000000000
         C            2.019525397505    -1.150403446765    -0.428091907809    12.000000000000
         C            3.269807397505    -0.533064446765    -0.439191907809    12.000000000000
         C            2.183509397505     1.464538553235     0.310330092191    12.000000000000
         C            3.356465397505     0.805398553235    -0.061294907809    12.000000000000
         H           -3.298294602495    -1.086258446765    -0.254484907809     1.007825032230
         H           -0.403108602495    -2.081389446765    -0.258549907809     1.007825032230
         H           -1.031616602495     0.677233553235    -1.261538907809     1.007825032230
         H           -1.545246602495    -0.870252446765    -1.952685907809     1.007825032230
         H           -3.086527602495     0.113033553235     1.898269092191     1.007825032230
         H           -1.889541902495     1.145739853235     1.180880492191     1.007825032230
         H           -0.455383602495    -0.530312446765     2.143744092191     1.007825032230
         H           -1.597597602495    -1.802166446765     1.695282092191     1.007825032230
         H           -3.947037602495     0.683506553235    -1.905645907809     1.007825032230
         H           -4.592609602495     1.048965553235    -0.298103907809     1.007825032230
         H           -3.159037602495     1.905438553235    -0.892364907809     1.007825032230
         H            1.914445397505    -2.194522446765    -0.713363907809     1.007825032230
         H            4.157815397505    -1.086619446765    -0.735524907809     1.007825032230
         H            2.208292397505     2.510330553235     0.614036092191     1.007825032230
         H            4.307553397505     1.330372553235    -0.052572907809     1.007825032230

  Basis Set: AUG-CC-PVTZ
    Blend: AUG-CC-PVTZ
  Basis Set: (AUG-CC-PVTZ AUX)
    Blend: AUG-CC-PVTZ-JKFIT
	 Reference Energy          =    -479.8957555689518131 [Eh]
	 Singles Energy            =      -0.0000000000000000 [Eh]
	 Same-Spin Energy          =      -0.5327269514283468 [Eh]
	 Opposite-Spin Energy      =      -1.7452001906545647 [Eh]
	 Correlation Energy        =      -2.2779271420829117 [Eh]
	 Total Energy              =    -482.1736827110347008 [Eh]

	 ================> DF-SCS-MP2 Energies <==================
	-----------------------------------------------------------
	 SCS Same-Spin Scale       =       0.3333333333333333 [-]
	 SCS Opposite-Spin Scale   =       1.2000000000000000 [-]
	 SCS Same-Spin Energy      =      -0.1775756504761156 [Eh]
	 SCS Opposite-Spin Energy  =      -2.0942402287854773 [Eh]
	 SCS Correlation Energy    =      -2.2718158792615930 [Eh]
	 SCS Total Energy          =    -482.1675714482133799 [Eh]
	-----------------------------------------------------------

  Dipole Moment: [D]
     X:     1.3319      Y:    -1.0476      Z:    -0.4912     Total:     1.7643

*** Psi4 exiting successfully. Buy a developer a beer!
