                               Psi4 1.4a3.dev225

  ==> Input File <==

--------------------------------------------------------------------------
#psi4
#
memory 32 gb

molecule  {
0 1
  N        1.0430420     0.8835120     0.3262100
  C       -2.6935940    -0.1236090    -0.2650160
  C       -0.4170680    -1.0145740    -0.0079460
  C       -1.3683020    -0.3105490    -1.0112920
  C       -2.2166740     0.1783740     1.1559530
  C       -1.0996000    -0.8433070     1.3811970
  C       -3.6002280     0.9375310    -0.8724950
  C        0.9620280    -0.4146880    -0.0398380
  C        2.0893310    -1.1495780    -0.4236340
  C        3.3396130    -0.5322390    -0.4347340
  C        2.2533150     1.4653640     0.3147880
  C        3.4262710     0.8062240    -0.0568370
  H       -3.2284890    -1.0854330    -0.2500270
  H       -0.3333030    -2.0805640    -0.2540920
  H       -0.9618110     0.6780590    -1.2570810
  H       -1.4754410    -0.8694270    -1.9482280
  H       -3.0167220     0.1138590     1.9027270
  H       -1.8007770     1.1928100     1.1867420
  H       -0.3855780    -0.5294870     2.1482020
  H       -1.5277920    -1.8013410     1.6997400
  H       -3.8772320     0.6843320    -1.9011880
  H       -4.5228040     1.0497910    -0.2936460
  H       -3.1825345     1.7293835    -0.8850929
  H        1.9842510    -2.1936970    -0.7089060
  H        4.2276210    -1.0857940    -0.7310670
  H        2.2780980     2.5111560     0.6184940
  H        4.3773590     1.3311980    -0.0481150
units angstrom
no_reorient  #important for SAPT in psi4, default
symmetry c1  #important for SAPT in psi4, default
}

set PROPERTIES_ORIGIN ["COM"]
properties('MP2/aug-cc-pvtz', properties = ['dipole'])
--------------------------------------------------------------------------

    Molecular point group: c1
  Charge       = 0
  Multiplicity = 1
  Basis Set: AUG-CC-PVTZ
    Blend: AUG-CC-PVTZ
  Basis Set: (AUG-CC-PVTZ AUX)
    Blend: AUG-CC-PVTZ-JKFIT

    Orbital Energies [Eh]
    ---------------------

    Doubly Occupied:

       1A    -15.558035     2A    -11.275313     3A    -11.274392
       4A    -11.257954     5A    -11.235894     6A    -11.235092
       7A    -11.226019     8A    -11.212736     9A    -11.211234
      10A    -11.209578    11A    -11.203532    12A    -11.179908
      13A     -1.251889    14A     -1.128107    15A     -1.081903
      16A     -1.048726    17A     -0.999900    18A     -0.954629
      19A     -0.906905    20A     -0.855490    21A     -0.837896
      22A     -0.765134    23A     -0.760633    24A     -0.697029
      25A     -0.668334    26A     -0.643816    27A     -0.640039
      28A     -0.609325    29A     -0.593322    30A     -0.577108
      31A     -0.573888    32A     -0.552509    33A     -0.545458
      34A     -0.532997    35A     -0.521003    36A     -0.472999
      37A     -0.468792    38A     -0.459670    39A     -0.452648
      40A     -0.448393    41A     -0.438702    42A     -0.409961
      43A     -0.377006    44A     -0.332095

  @DF-RHF Final Energy:  -479.86282181927913

   => Energetics <=

    Nuclear Repulsion Energy =            686.7639220373536091
    One-Electron Energy =               -2011.8815041114125961
    Two-Electron Energy =                 845.2547602547799670
    Total Energy =                       -479.8628218192791337
  Basis Set: (AUG-CC-PVTZ AUX)
    Blend: AUG-CC-PVTZ-RI
    Molecular point group: c1

    Geometry (in Angstrom), charge = 0, multiplicity = 1:

       Center              X                  Y                   Z               Mass
    ------------   -----------------  -----------------  -----------------  -----------------
         N            0.973701421890     0.883503693640     0.321725710042    14.003074004430
         C           -2.762934578110    -0.123617306360    -0.269500289958    12.000000000000
         C           -0.486408578110    -1.014582306360    -0.012430289958    12.000000000000
         C           -1.437642578110    -0.310557306360    -1.015776289958    12.000000000000
         C           -2.286014578110     0.178365693640     1.151468710042    12.000000000000
         C           -1.168940578110    -0.843315306360     1.376712710042    12.000000000000
         C           -3.669568578110     0.937522693640    -0.876979289958    12.000000000000
         C            0.892687421890    -0.414696306360    -0.044322289958    12.000000000000
         C            2.019990421890    -1.149586306360    -0.428118289958    12.000000000000
         C            3.270272421890    -0.532247306360    -0.439218289958    12.000000000000
         C            2.183974421890     1.465355693640     0.310303710042    12.000000000000
         C            3.356930421890     0.806215693640    -0.061321289958    12.000000000000
         H           -3.297829578110    -1.085441306360    -0.254511289958     1.007825032230
         H           -0.402643578110    -2.080572306360    -0.258576289958     1.007825032230
         H           -1.031151578110     0.678050693640    -1.261565289958     1.007825032230
         H           -1.544781578110    -0.869435306360    -1.952712289958     1.007825032230
         H           -3.086062578110     0.113850693640     1.898242710042     1.007825032230
         H           -1.870117578110     1.192801693640     1.182257710042     1.007825032230
         H           -0.454918578110    -0.529495306360     2.143717710042     1.007825032230
         H           -1.597132578110    -1.801349306360     1.695255710042     1.007825032230
         H           -3.946572578110     0.684323693640    -1.905672289958     1.007825032230
         H           -4.592144578110     1.049782693640    -0.298130289958     1.007825032230
         H           -3.251875078110     1.729375193640    -0.889577189958     1.007825032230
         H            1.914910421890    -2.193705306360    -0.713390289958     1.007825032230
         H            4.158280421890    -1.085802306360    -0.735551289958     1.007825032230
         H            2.208757421890     2.511147693640     0.614009710042     1.007825032230
         H            4.308018421890     1.331189693640    -0.052599289958     1.007825032230

  Basis Set: AUG-CC-PVTZ
    Blend: AUG-CC-PVTZ
  Basis Set: (AUG-CC-PVTZ AUX)
    Blend: AUG-CC-PVTZ-JKFIT
	 Reference Energy          =    -479.8628218192791337 [Eh]
	 Singles Energy            =      -0.0000000000000000 [Eh]
	 Same-Spin Energy          =      -0.5328658386557761 [Eh]
	 Opposite-Spin Energy      =      -1.7449310279020658 [Eh]
	 Correlation Energy        =      -2.2777968665578419 [Eh]
	 Total Energy              =    -482.1406186858369551 [Eh]

	 ================> DF-SCS-MP2 Energies <==================
	-----------------------------------------------------------
	 SCS Same-Spin Scale       =       0.3333333333333333 [-]
	 SCS Opposite-Spin Scale   =       1.2000000000000000 [-]
	 SCS Same-Spin Energy      =      -0.1776219462185920 [Eh]
	 SCS Opposite-Spin Energy  =      -2.0939172334824789 [Eh]
	 SCS Correlation Energy    =      -2.2715391797010711 [Eh]
	 SCS Total Energy          =    -482.1343609989801848 [Eh]
	-----------------------------------------------------------

  Dipole Moment: [D]
     X:     1.3486      Y:    -0.9811      Z:    -0.5086     Total:     1.7435

*** Psi4 exiting successfully. Buy a developer a beer!
