                               Psi4 1.4a3.dev225

  ==> Input File <==

--------------------------------------------------------------------------
#psi4
#
memory 32 gb

molecule  {
0 1
  N        1.0430420     0.8835120     0.3262100
  C       -2.7182949    -0.1505910    -0.3040396
  C       -0.4170680    -1.0145740    -0.0079460
  C       -1.3683020    -0.3105490    -1.0112920
  C       -2.2166740     0.1783740     1.1559530
  C       -1.0996000    -0.8433070     1.3811970
  C       -3.6002280     0.9375310    -0.8724950
  C        0.9620280    -0.4146880    -0.0398380
  C        2.0893310    -1.1495780    -0.4236340
  C        3.3396130    -0.5322390    -0.4347340
  C        2.2533150     1.4653640     0.3147880
  C        3.4262710     0.8062240    -0.0568370
  H       -3.2284890    -1.0854330    -0.2500270
  H       -0.3333030    -2.0805640    -0.2540920
  H       -0.9618110     0.6780590    -1.2570810
  H       -1.4754410    -0.8694270    -1.9482280
  H       -3.0167220     0.1138590     1.9027270
  H       -1.8007770     1.1928100     1.1867420
  H       -0.3855780    -0.5294870     2.1482020
  H       -1.5277920    -1.8013410     1.6997400
  H       -3.8772320     0.6843320    -1.9011880
  H       -4.5228040     1.0497910    -0.2936460
  H       -3.0892320     1.9062640    -0.8879070
  H        1.9842510    -2.1936970    -0.7089060
  H        4.2276210    -1.0857940    -0.7310670
  H        2.2780980     2.5111560     0.6184940
  H        4.3773590     1.3311980    -0.0481150
units angstrom
no_reorient  #important for SAPT in psi4, default
symmetry c1  #important for SAPT in psi4, default
}

set PROPERTIES_ORIGIN ["COM"]
properties('MP2/aug-cc-pvtz', properties = ['dipole'])
--------------------------------------------------------------------------

    Molecular point group: c1
  Charge       = 0
  Multiplicity = 1
  Basis Set: AUG-CC-PVTZ
    Blend: AUG-CC-PVTZ
  Basis Set: (AUG-CC-PVTZ AUX)
    Blend: AUG-CC-PVTZ-JKFIT

    Orbital Energies [Eh]
    ---------------------

    Doubly Occupied:

       1A    -15.558094     2A    -11.275385     3A    -11.274372
       4A    -11.257967     5A    -11.235967     6A    -11.235194
       7A    -11.226173     8A    -11.213556     9A    -11.210798
      10A    -11.209934    11A    -11.204943    12A    -11.204804
      13A     -1.251895    14A     -1.124023    15A     -1.081859
      16A     -1.045798    17A     -0.992659    18A     -0.952521
      19A     -0.893171    20A     -0.855088    21A     -0.834845
      22A     -0.764807    23A     -0.759476    24A     -0.696823
      25A     -0.667380    26A     -0.640533    27A     -0.638452
      28A     -0.606816    29A     -0.585840    30A     -0.577590
      31A     -0.573422    32A     -0.551963    33A     -0.538542
      34A     -0.527706    35A     -0.513117    36A     -0.471408
      37A     -0.469187    38A     -0.466422    39A     -0.454499
      40A     -0.451213    41A     -0.424961    42A     -0.409949
      43A     -0.377051    44A     -0.332319

  @DF-RHF Final Energy:  -479.89414603618224

   => Energetics <=

    Nuclear Repulsion Energy =            685.2688128434746204
    One-Electron Energy =               -2009.0488833005920242
    Two-Electron Energy =                 843.8859244209349981
    Total Energy =                       -479.8941460361822919
  Basis Set: (AUG-CC-PVTZ AUX)
    Blend: AUG-CC-PVTZ-RI
    Molecular point group: c1

    Geometry (in Angstrom), charge = 0, multiplicity = 1:

       Center              X                  Y                   Z               Mass
    ------------   -----------------  -----------------  -----------------  -----------------
         N            0.974957489667     0.884406865180     0.324649729444    14.003074004430
         C           -2.786379410333    -0.149696134820    -0.305599870556    12.000000000000
         C           -0.485152510333    -1.013679134820    -0.009506270556    12.000000000000
         C           -1.436386510333    -0.309654134820    -1.012852270556    12.000000000000
         C           -2.284758510333     0.179268865180     1.154392729444    12.000000000000
         C           -1.167684510333    -0.842412134820     1.379636729444    12.000000000000
         C           -3.668312510333     0.938425865180    -0.874055270556    12.000000000000
         C            0.893943489667    -0.413793134820    -0.041398270556    12.000000000000
         C            2.021246489667    -1.148683134820    -0.425194270556    12.000000000000
         C            3.271528489667    -0.531344134820    -0.436294270556    12.000000000000
         C            2.185230489667     1.466258865180     0.313227729444    12.000000000000
         C            3.358186489667     0.807118865180    -0.058397270556    12.000000000000
         H           -3.296573510333    -1.084538134820    -0.251587270556     1.007825032230
         H           -0.401387510333    -2.079669134820    -0.255652270556     1.007825032230
         H           -1.029895510333     0.678953865180    -1.258641270556     1.007825032230
         H           -1.543525510333    -0.868532134820    -1.949788270556     1.007825032230
         H           -3.084806510333     0.114753865180     1.901166729444     1.007825032230
         H           -1.868861510333     1.193704865180     1.185181729444     1.007825032230
         H           -0.453662510333    -0.528592134820     2.146641729444     1.007825032230
         H           -1.595876510333    -1.800446134820     1.698179729444     1.007825032230
         H           -3.945316510333     0.685226865180    -1.902748270556     1.007825032230
         H           -4.590888510333     1.050685865180    -0.295206270556     1.007825032230
         H           -3.157316510333     1.907158865180    -0.889467270556     1.007825032230
         H            1.916166489667    -2.192802134820    -0.710466270556     1.007825032230
         H            4.159536489667    -1.084899134820    -0.732627270556     1.007825032230
         H            2.210013489667     2.512050865180     0.616933729444     1.007825032230
         H            4.309274489667     1.332092865180    -0.049675270556     1.007825032230

  Basis Set: AUG-CC-PVTZ
    Blend: AUG-CC-PVTZ
  Basis Set: (AUG-CC-PVTZ AUX)
    Blend: AUG-CC-PVTZ-JKFIT
	 Reference Energy          =    -479.8941460361822351 [Eh]
	 Singles Energy            =      -0.0000000000000000 [Eh]
	 Same-Spin Energy          =      -0.5326768801098606 [Eh]
	 Opposite-Spin Energy      =      -1.7455781583846086 [Eh]
	 Correlation Energy        =      -2.2782550384944691 [Eh]
	 Total Energy              =    -482.1724010746767135 [Eh]

	 ================> DF-SCS-MP2 Energies <==================
	-----------------------------------------------------------
	 SCS Same-Spin Scale       =       0.3333333333333333 [-]
	 SCS Opposite-Spin Scale   =       1.2000000000000000 [-]
	 SCS Same-Spin Energy      =      -0.1775589600366202 [Eh]
	 SCS Opposite-Spin Energy  =      -2.0946937900615303 [Eh]
	 SCS Correlation Energy    =      -2.2722527500981506 [Eh]
	 SCS Total Energy          =    -482.1663987862804106 [Eh]
	-----------------------------------------------------------

  Dipole Moment: [D]
     X:     1.3228      Y:    -1.0771      Z:    -0.5042     Total:     1.7788

*** Psi4 exiting successfully. Buy a developer a beer!
