                               Psi4 1.4a3.dev225

  ==> Input File <==

--------------------------------------------------------------------------
#psi4
#
memory 32 gb

molecule  {
0 1
  N        1.0430420     0.8835120     0.3262100
  C       -2.6935940    -0.1236090    -0.2650160
  C       -0.4170680    -1.0145740    -0.0079460
  C       -1.3178972    -0.2912722    -0.9189431
  C       -2.2166740     0.1783740     1.1559530
  C       -1.0996000    -0.8433070     1.3811970
  C       -3.6002280     0.9375310    -0.8724950
  C        0.9620280    -0.4146880    -0.0398380
  C        2.0893310    -1.1495780    -0.4236340
  C        3.3396130    -0.5322390    -0.4347340
  C        2.2533150     1.4653640     0.3147880
  C        3.4262710     0.8062240    -0.0568370
  H       -3.2284890    -1.0854330    -0.2500270
  H       -0.3333030    -2.0805640    -0.2540920
  H       -0.9618110     0.6780590    -1.2570810
  H       -1.4754410    -0.8694270    -1.9482280
  H       -3.0167220     0.1138590     1.9027270
  H       -1.8007770     1.1928100     1.1867420
  H       -0.3855780    -0.5294870     2.1482020
  H       -1.5277920    -1.8013410     1.6997400
  H       -3.8772320     0.6843320    -1.9011880
  H       -4.5228040     1.0497910    -0.2936460
  H       -3.0892320     1.9062640    -0.8879070
  H        1.9842510    -2.1936970    -0.7089060
  H        4.2276210    -1.0857940    -0.7310670
  H        2.2780980     2.5111560     0.6184940
  H        4.3773590     1.3311980    -0.0481150
units angstrom
no_reorient  #important for SAPT in psi4, default
symmetry c1  #important for SAPT in psi4, default
}

set PROPERTIES_ORIGIN ["COM"]
properties('MP2/aug-cc-pvtz', properties = ['dipole'])
--------------------------------------------------------------------------

    Molecular point group: c1
  Charge       = 0
  Multiplicity = 1
  Basis Set: AUG-CC-PVTZ
    Blend: AUG-CC-PVTZ
  Basis Set: (AUG-CC-PVTZ AUX)
    Blend: AUG-CC-PVTZ-JKFIT

    Orbital Energies [Eh]
    ---------------------

    Doubly Occupied:

       1A    -15.558804     2A    -11.276096     3A    -11.275008
       4A    -11.258505     5A    -11.236510     6A    -11.235818
       7A    -11.223693     8A    -11.214735     9A    -11.213018
      10A    -11.211627    11A    -11.206717    12A    -11.203102
      13A     -1.253200    14A     -1.136885    15A     -1.082520
      16A     -1.048267    17A     -0.993066    18A     -0.957504
      19A     -0.893830    20A     -0.856106    21A     -0.837391
      22A     -0.765345    23A     -0.754444    24A     -0.699132
      25A     -0.667555    26A     -0.644037    27A     -0.638290
      28A     -0.611837    29A     -0.588827    30A     -0.576905
      31A     -0.574852    32A     -0.550952    33A     -0.538387
      34A     -0.525525    35A     -0.514006    36A     -0.483820
      37A     -0.470072    38A     -0.457466    39A     -0.451822
      40A     -0.447527    41A     -0.426746    42A     -0.410618
      43A     -0.377320    44A     -0.333548

  @DF-RHF Final Energy:  -479.88385895266862

   => Energetics <=

    Nuclear Repulsion Energy =            687.6283292283512765
    One-Electron Energy =               -2013.6615036208668243
    Two-Electron Energy =                 846.1493154398468732
    Total Energy =                       -479.8838589526686746
  Basis Set: (AUG-CC-PVTZ AUX)
    Blend: AUG-CC-PVTZ-RI
    Molecular point group: c1

    Geometry (in Angstrom), charge = 0, multiplicity = 1:

       Center              X                  Y                   Z               Mass
    ------------   -----------------  -----------------  -----------------  -----------------
         N            0.969363734170     0.880961581842     0.314865310365    14.003074004430
         C           -2.767272265830    -0.126159418158    -0.276360689635    12.000000000000
         C           -0.490746265830    -1.017124418158    -0.019290689635    12.000000000000
         C           -1.391575465830    -0.293822618158    -0.930287789635    12.000000000000
         C           -2.290352265830     0.175823581842     1.144608310365    12.000000000000
         C           -1.173278265830    -0.845857418158     1.369852310365    12.000000000000
         C           -3.673906265830     0.934980581842    -0.883839689635    12.000000000000
         C            0.888349734170    -0.417238418158    -0.051182689635    12.000000000000
         C            2.015652734170    -1.152128418158    -0.434978689635    12.000000000000
         C            3.265934734170    -0.534789418158    -0.446078689635    12.000000000000
         C            2.179636734170     1.462813581842     0.303443310365    12.000000000000
         C            3.352592734170     0.803673581842    -0.068181689635    12.000000000000
         H           -3.302167265830    -1.087983418158    -0.261371689635     1.007825032230
         H           -0.406981265830    -2.083114418158    -0.265436689635     1.007825032230
         H           -1.035489265830     0.675508581842    -1.268425689635     1.007825032230
         H           -1.549119265830    -0.871977418158    -1.959572689635     1.007825032230
         H           -3.090400265830     0.111308581842     1.891382310365     1.007825032230
         H           -1.874455265830     1.190259581842     1.175397310365     1.007825032230
         H           -0.459256265830    -0.532037418158     2.136857310365     1.007825032230
         H           -1.601470265830    -1.803891418158     1.688395310365     1.007825032230
         H           -3.950910265830     0.681781581842    -1.912532689635     1.007825032230
         H           -4.596482265830     1.047240581842    -0.304990689635     1.007825032230
         H           -3.162910265830     1.903713581842    -0.899251689635     1.007825032230
         H            1.910572734170    -2.196247418158    -0.720250689635     1.007825032230
         H            4.153942734170    -1.088344418158    -0.742411689635     1.007825032230
         H            2.204419734170     2.508605581842     0.607149310365     1.007825032230
         H            4.303680734170     1.328647581842    -0.059459689635     1.007825032230

  Basis Set: AUG-CC-PVTZ
    Blend: AUG-CC-PVTZ
  Basis Set: (AUG-CC-PVTZ AUX)
    Blend: AUG-CC-PVTZ-JKFIT
	 Reference Energy          =    -479.8838589526686178 [Eh]
	 Singles Energy            =      -0.0000000000000000 [Eh]
	 Same-Spin Energy          =      -0.5337684530738145 [Eh]
	 Opposite-Spin Energy      =      -1.7467407845779563 [Eh]
	 Correlation Energy        =      -2.2805092376517706 [Eh]
	 Total Energy              =    -482.1643681903203742 [Eh]

	 ================> DF-SCS-MP2 Energies <==================
	-----------------------------------------------------------
	 SCS Same-Spin Scale       =       0.3333333333333333 [-]
	 SCS Opposite-Spin Scale   =       1.2000000000000000 [-]
	 SCS Same-Spin Energy      =      -0.1779228176912715 [Eh]
	 SCS Opposite-Spin Energy  =      -2.0960889414935475 [Eh]
	 SCS Correlation Energy    =      -2.2740117591848188 [Eh]
	 SCS Total Energy          =    -482.1578707118534339 [Eh]
	-----------------------------------------------------------

  Dipole Moment: [D]
     X:     1.3643      Y:    -1.0122      Z:    -0.4294     Total:     1.7522

*** Psi4 exiting successfully. Buy a developer a beer!
