                               Psi4 1.4a3.dev225

  ==> Input File <==

--------------------------------------------------------------------------
#psi4
#
memory 32 gb

molecule  {
0 1
  N        1.0430420     0.8835120     0.3262100
  C       -2.6935940    -0.1236090    -0.2650160
  C       -0.4170680    -1.0145740    -0.0079460
  C       -1.3683020    -0.3105490    -1.0112920
  C       -2.2166740     0.1783740     1.1559530
  C       -1.0996000    -0.8433070     1.3811970
  C       -3.6300088     0.9723869    -0.8924492
  C        0.9620280    -0.4146880    -0.0398380
  C        2.0893310    -1.1495780    -0.4236340
  C        3.3396130    -0.5322390    -0.4347340
  C        2.2533150     1.4653640     0.3147880
  C        3.4262710     0.8062240    -0.0568370
  H       -3.2284890    -1.0854330    -0.2500270
  H       -0.3333030    -2.0805640    -0.2540920
  H       -0.9618110     0.6780590    -1.2570810
  H       -1.4754410    -0.8694270    -1.9482280
  H       -3.0167220     0.1138590     1.9027270
  H       -1.8007770     1.1928100     1.1867420
  H       -0.3855780    -0.5294870     2.1482020
  H       -1.5277920    -1.8013410     1.6997400
  H       -3.8772320     0.6843320    -1.9011880
  H       -4.5228040     1.0497910    -0.2936460
  H       -3.0892320     1.9062640    -0.8879070
  H        1.9842510    -2.1936970    -0.7089060
  H        4.2276210    -1.0857940    -0.7310670
  H        2.2780980     2.5111560     0.6184940
  H        4.3773590     1.3311980    -0.0481150
units angstrom
no_reorient  #important for SAPT in psi4, default
symmetry c1  #important for SAPT in psi4, default
}

set PROPERTIES_ORIGIN ["COM"]
properties('MP2/aug-cc-pvtz', properties = ['dipole'])
--------------------------------------------------------------------------

    Molecular point group: c1
  Charge       = 0
  Multiplicity = 1
  Basis Set: AUG-CC-PVTZ
    Blend: AUG-CC-PVTZ
  Basis Set: (AUG-CC-PVTZ AUX)
    Blend: AUG-CC-PVTZ-JKFIT

    Orbital Energies [Eh]
    ---------------------

    Doubly Occupied:

       1A    -15.557965     2A    -11.275285     3A    -11.274321
       4A    -11.257906     5A    -11.235843     6A    -11.235065
       7A    -11.226078     8A    -11.216711     9A    -11.211342
      10A    -11.209574    11A    -11.203582    12A    -11.203227
      13A     -1.251823    14A     -1.125738    15A     -1.081769
      16A     -1.044595    17A     -0.987764    18A     -0.954465
      19A     -0.896071    20A     -0.855232    21A     -0.836933
      22A     -0.763993    23A     -0.754590    24A     -0.696570
      25A     -0.667950    26A     -0.640195    27A     -0.639228
      28A     -0.605734    29A     -0.585048    30A     -0.577827
      31A     -0.573866    32A     -0.556487    33A     -0.537502
      34A     -0.528605    35A     -0.516141    36A     -0.472972
      37A     -0.468766    38A     -0.452611    39A     -0.451005
      40A     -0.448176    41A     -0.441886    42A     -0.409778
      43A     -0.376945    44A     -0.332020

  @DF-RHF Final Energy:  -479.89487393987594

   => Energetics <=

    Nuclear Repulsion Energy =            684.9982446601934498
    One-Electron Energy =               -2008.5078626307299601
    Two-Electron Energy =                 843.6147440306605176
    Total Energy =                       -479.8948739398759926
  Basis Set: (AUG-CC-PVTZ AUX)
    Blend: AUG-CC-PVTZ-RI
    Molecular point group: c1

    Geometry (in Angstrom), charge = 0, multiplicity = 1:

       Center              X                  Y                   Z               Mass
    ------------   -----------------  -----------------  -----------------  -----------------
         N            0.975335832703     0.879801274751     0.323229470249    14.003074004430
         C           -2.761300167297    -0.127319725249    -0.267996529751    12.000000000000
         C           -0.484774167297    -1.018284725249    -0.010926529751    12.000000000000
         C           -1.436008167297    -0.314259725249    -1.014272529751    12.000000000000
         C           -2.284380167297     0.174663274751     1.152972470249    12.000000000000
         C           -1.167306167297    -0.847017725249     1.378216470249    12.000000000000
         C           -3.697714967297     0.968676174751    -0.895429729751    12.000000000000
         C            0.894321832703    -0.418398725249    -0.042818529751    12.000000000000
         C            2.021624832703    -1.153288725249    -0.426614529751    12.000000000000
         C            3.271906832703    -0.535949725249    -0.437714529751    12.000000000000
         C            2.185608832703     1.461653274751     0.311807470249    12.000000000000
         C            3.358564832703     0.802513274751    -0.059817529751    12.000000000000
         H           -3.296195167297    -1.089143725249    -0.253007529751     1.007825032230
         H           -0.401009167297    -2.084274725249    -0.257072529751     1.007825032230
         H           -1.029517167297     0.674348274751    -1.260061529751     1.007825032230
         H           -1.543147167297    -0.873137725249    -1.951208529751     1.007825032230
         H           -3.084428167297     0.110148274751     1.899746470249     1.007825032230
         H           -1.868483167297     1.189099274751     1.183761470249     1.007825032230
         H           -0.453284167297    -0.533197725249     2.145221470249     1.007825032230
         H           -1.595498167297    -1.805051725249     1.696759470249     1.007825032230
         H           -3.944938167297     0.680621274751    -1.904168529751     1.007825032230
         H           -4.590510167297     1.046080274751    -0.296626529751     1.007825032230
         H           -3.156938167297     1.902553274751    -0.890887529751     1.007825032230
         H            1.916544832703    -2.197407725249    -0.711886529751     1.007825032230
         H            4.159914832703    -1.089504725249    -0.734047529751     1.007825032230
         H            2.210391832703     2.507445274751     0.615513470249     1.007825032230
         H            4.309652832703     1.327487274751    -0.051095529751     1.007825032230

  Basis Set: AUG-CC-PVTZ
    Blend: AUG-CC-PVTZ
  Basis Set: (AUG-CC-PVTZ AUX)
    Blend: AUG-CC-PVTZ-JKFIT
	 Reference Energy          =    -479.8948739398759358 [Eh]
	 Singles Energy            =      -0.0000000000000000 [Eh]
	 Same-Spin Energy          =      -0.5325690846191699 [Eh]
	 Opposite-Spin Energy      =      -1.7454483526465163 [Eh]
	 Correlation Energy        =      -2.2780174372656861 [Eh]
	 Total Energy              =    -482.1728913771416387 [Eh]

	 ================> DF-SCS-MP2 Energies <==================
	-----------------------------------------------------------
	 SCS Same-Spin Scale       =       0.3333333333333333 [-]
	 SCS Opposite-Spin Scale   =       1.2000000000000000 [-]
	 SCS Same-Spin Energy      =      -0.1775230282063899 [Eh]
	 SCS Opposite-Spin Energy  =      -2.0945380231758195 [Eh]
	 SCS Correlation Energy    =      -2.2720610513822095 [Eh]
	 SCS Total Energy          =    -482.1669349912581310 [Eh]
	-----------------------------------------------------------

  Dipole Moment: [D]
     X:     1.3336      Y:    -1.0746      Z:    -0.4923     Total:     1.7820

*** Psi4 exiting successfully. Buy a developer a beer!
