                               Psi4 1.4a3.dev225

  ==> Input File <==

--------------------------------------------------------------------------
#psi4
#
memory 32 gb

molecule  {
0 1
  N        1.0430420     0.8835120     0.3262100
  C       -2.6935940    -0.1236090    -0.2650160
  C       -0.4170680    -1.0145740    -0.0079460
  C       -1.3683020    -0.3105490    -1.0112920
  C       -2.2166740     0.1783740     1.1559530
  C       -1.0996000    -0.8433070     1.3811970
  C       -3.6002280     0.9375310    -0.8724950
  C        1.0522566    -0.3009202    -0.0206064
  C        2.0893310    -1.1495780    -0.4236340
  C        3.3396130    -0.5322390    -0.4347340
  C        2.2533150     1.4653640     0.3147880
  C        3.4262710     0.8062240    -0.0568370
  H       -3.2284890    -1.0854330    -0.2500270
  H       -0.3333030    -2.0805640    -0.2540920
  H       -0.9618110     0.6780590    -1.2570810
  H       -1.4754410    -0.8694270    -1.9482280
  H       -3.0167220     0.1138590     1.9027270
  H       -1.8007770     1.1928100     1.1867420
  H       -0.3855780    -0.5294870     2.1482020
  H       -1.5277920    -1.8013410     1.6997400
  H       -3.8772320     0.6843320    -1.9011880
  H       -4.5228040     1.0497910    -0.2936460
  H       -3.0892320     1.9062640    -0.8879070
  H        1.9842510    -2.1936970    -0.7089060
  H        4.2276210    -1.0857940    -0.7310670
  H        2.2780980     2.5111560     0.6184940
  H        4.3773590     1.3311980    -0.0481150
units angstrom
no_reorient  #important for SAPT in psi4, default
symmetry c1  #important for SAPT in psi4, default
}

set PROPERTIES_ORIGIN ["COM"]
properties('MP2/aug-cc-pvtz', properties = ['dipole'])
--------------------------------------------------------------------------

    Molecular point group: c1
  Charge       = 0
  Multiplicity = 1
  Basis Set: AUG-CC-PVTZ
    Blend: AUG-CC-PVTZ
  Basis Set: (AUG-CC-PVTZ AUX)
    Blend: AUG-CC-PVTZ-JKFIT

    Orbital Energies [Eh]
    ---------------------

    Doubly Occupied:

       1A    -15.554141     2A    -11.277680     3A    -11.269266
       4A    -11.258943     5A    -11.237827     6A    -11.237076
       7A    -11.223696     8A    -11.211499     9A    -11.206536
      10A    -11.204872    11A    -11.203077    12A    -11.200976
      13A     -1.293989    14A     -1.120067    15A     -1.094476
      16A     -1.037641    17A     -0.989256    18A     -0.948621
      19A     -0.885302    20A     -0.869318    21A     -0.834524
      22A     -0.757890    23A     -0.750703    24A     -0.705032
      25A     -0.666039    26A     -0.647254    27A     -0.638184
      28A     -0.604076    29A     -0.585472    30A     -0.577842
      31A     -0.573361    32A     -0.554336    33A     -0.549532
      34A     -0.529917    35A     -0.507737    36A     -0.470009
      37A     -0.462890    38A     -0.457442    39A     -0.450647
      40A     -0.443158    41A     -0.436718    42A     -0.392945
      43A     -0.390659    44A     -0.336778

  @DF-RHF Final Energy:  -479.87572428389973

   => Energetics <=

    Nuclear Repulsion Energy =            686.6374935437725071
    One-Electron Energy =               -2011.7316307342694017
    Two-Electron Energy =                 845.2184129065972229
    Total Energy =                       -479.8757242838996717
  Basis Set: (AUG-CC-PVTZ AUX)
    Blend: AUG-CC-PVTZ-RI
    Molecular point group: c1

    Geometry (in Angstrom), charge = 0, multiplicity = 1:

       Center              X                  Y                   Z               Mass
    ------------   -----------------  -----------------  -----------------  -----------------
         N            0.966397719605     0.873924039410     0.320310972929    14.003074004430
         C           -2.770238280395    -0.133196960590    -0.270915027071    12.000000000000
         C           -0.493712280395    -1.024161960590    -0.013845027071    12.000000000000
         C           -1.444946280395    -0.320136960590    -1.017191027071    12.000000000000
         C           -2.293318280395     0.168786039410     1.150053972929    12.000000000000
         C           -1.176244280395    -0.852894960590     1.375297972929    12.000000000000
         C           -3.676872280395     0.927943039410    -0.878394027071    12.000000000000
         C            0.975612319605    -0.310508160590    -0.026505427071    12.000000000000
         C            2.012686719605    -1.159165960590    -0.429533027071    12.000000000000
         C            3.262968719605    -0.541826960590    -0.440633027071    12.000000000000
         C            2.176670719605     1.455776039410     0.308888972929    12.000000000000
         C            3.349626719605     0.796636039410    -0.062736027071    12.000000000000
         H           -3.305133280395    -1.095020960590    -0.255926027071     1.007825032230
         H           -0.409947280395    -2.090151960590    -0.259991027071     1.007825032230
         H           -1.038455280395     0.668471039410    -1.262980027071     1.007825032230
         H           -1.552085280395    -0.879014960590    -1.954127027071     1.007825032230
         H           -3.093366280395     0.104271039410     1.896827972929     1.007825032230
         H           -1.877421280395     1.183222039410     1.180842972929     1.007825032230
         H           -0.462222280395    -0.539074960590     2.142302972929     1.007825032230
         H           -1.604436280395    -1.810928960590     1.693840972929     1.007825032230
         H           -3.953876280395     0.674744039410    -1.907087027071     1.007825032230
         H           -4.599448280395     1.040203039410    -0.299545027071     1.007825032230
         H           -3.165876280395     1.896676039410    -0.893806027071     1.007825032230
         H            1.907606719605    -2.203284960590    -0.714805027071     1.007825032230
         H            4.150976719605    -1.095381960590    -0.736966027071     1.007825032230
         H            2.201453719605     2.501568039410     0.612594972929     1.007825032230
         H            4.300714719605     1.321610039410    -0.054014027071     1.007825032230

  Basis Set: AUG-CC-PVTZ
    Blend: AUG-CC-PVTZ
  Basis Set: (AUG-CC-PVTZ AUX)
    Blend: AUG-CC-PVTZ-JKFIT
	 Reference Energy          =    -479.8757242838997286 [Eh]
	 Singles Energy            =      -0.0000000000000000 [Eh]
	 Same-Spin Energy          =      -0.5313746237335222 [Eh]
	 Opposite-Spin Energy      =      -1.7435643703625225 [Eh]
	 Correlation Energy        =      -2.2749389940960447 [Eh]
	 Total Energy              =    -482.1506632779957613 [Eh]

	 ================> DF-SCS-MP2 Energies <==================
	-----------------------------------------------------------
	 SCS Same-Spin Scale       =       0.3333333333333333 [-]
	 SCS Opposite-Spin Scale   =       1.2000000000000000 [-]
	 SCS Same-Spin Energy      =      -0.1771248745778407 [Eh]
	 SCS Opposite-Spin Energy  =      -2.0922772444350271 [Eh]
	 SCS Correlation Energy    =      -2.2694021190128679 [Eh]
	 SCS Total Energy          =    -482.1451264029125809 [Eh]
	-----------------------------------------------------------

  Dipole Moment: [D]
     X:     1.7547      Y:    -0.9726      Z:    -0.5091     Total:     2.0698

*** Psi4 exiting successfully. Buy a developer a beer!
