                               Psi4 1.4a3.dev225

  ==> Input File <==

--------------------------------------------------------------------------
#psi4
#
memory 32 gb

molecule  {
0 1
  N        1.0430420     0.8835120     0.3262100
  C       -2.6935940    -0.1236090    -0.2650160
  C       -0.4170680    -1.0145740    -0.0079460
  C       -1.3683020    -0.3105490    -1.0112920
  C       -2.2166740     0.1783740     1.1559530
  C       -1.0996000    -0.8433070     1.3811970
  C       -3.6002280     0.9375310    -0.8724950
  C        0.9620280    -0.4146880    -0.0398380
  C        2.0893310    -1.1495780    -0.4236340
  C        3.3396130    -0.5322390    -0.4347340
  C        2.2533150     1.4653640     0.3147880
  C        3.4262710     0.8062240    -0.0568370
  H       -3.2284890    -1.0854330    -0.2500270
  H       -0.3333030    -2.0805640    -0.2540920
  H       -0.9618110     0.6780590    -1.2570810
  H       -1.4754410    -0.8694270    -1.9482280
  H       -3.0167220     0.1138590     1.9027270
  H       -1.7628583     1.2852994     1.1895491
  H       -0.3855780    -0.5294870     2.1482020
  H       -1.5277920    -1.8013410     1.6997400
  H       -3.8772320     0.6843320    -1.9011880
  H       -4.5228040     1.0497910    -0.2936460
  H       -3.0892320     1.9062640    -0.8879070
  H        1.9842510    -2.1936970    -0.7089060
  H        4.2276210    -1.0857940    -0.7310670
  H        2.2780980     2.5111560     0.6184940
  H        4.3773590     1.3311980    -0.0481150
units angstrom
no_reorient  #important for SAPT in psi4, default
symmetry c1  #important for SAPT in psi4, default
}

set PROPERTIES_ORIGIN ["COM"]
properties('MP2/aug-cc-pvtz', properties = ['dipole'])
--------------------------------------------------------------------------

    Molecular point group: c1
  Charge       = 0
  Multiplicity = 1
  Basis Set: AUG-CC-PVTZ
    Blend: AUG-CC-PVTZ
  Basis Set: (AUG-CC-PVTZ AUX)
    Blend: AUG-CC-PVTZ-JKFIT

    Orbital Energies [Eh]
    ---------------------

    Doubly Occupied:

       1A    -15.557796     2A    -11.275322     3A    -11.274230
       4A    -11.257897     5A    -11.235850     6A    -11.235135
       7A    -11.226484     8A    -11.215928     9A    -11.215269
      10A    -11.212489    11A    -11.209950    12A    -11.205236
      13A     -1.251768    14A     -1.127050    15A     -1.081802
      16A     -1.046220    17A     -0.991440    18A     -0.952629
      19A     -0.893541    20A     -0.855099    21A     -0.835451
      22A     -0.762746    23A     -0.751571    24A     -0.696767
      25A     -0.668282    26A     -0.640934    27A     -0.639851
      28A     -0.606863    29A     -0.585151    30A     -0.574137
      31A     -0.573278    32A     -0.551737    33A     -0.536598
      34A     -0.526679    35A     -0.509039    36A     -0.473802
      37A     -0.469258    38A     -0.461282    39A     -0.451004
      40A     -0.441648    41A     -0.440570    42A     -0.409207
      43A     -0.376891    44A     -0.332147

  @DF-RHF Final Energy:  -479.89003259624246

   => Energetics <=

    Nuclear Repulsion Energy =            685.4470419871307740
    One-Electron Energy =               -2009.4020915786350088
    Two-Electron Energy =                 844.0650169952616579
    Total Energy =                       -479.8900325962424631
  Basis Set: (AUG-CC-PVTZ AUX)
    Blend: AUG-CC-PVTZ-RI
    Molecular point group: c1

    Geometry (in Angstrom), charge = 0, multiplicity = 1:

       Center              X                  Y                   Z               Mass
    ------------   -----------------  -----------------  -----------------  -----------------
         N            0.972880619747     0.881818757129     0.321725753828    14.003074004430
         C           -2.763755380253    -0.125302242871    -0.269500246172    12.000000000000
         C           -0.487229380253    -1.016267242871    -0.012430246172    12.000000000000
         C           -1.438463380253    -0.312242242871    -1.015776246172    12.000000000000
         C           -2.286835380253     0.176680757129     1.151468753828    12.000000000000
         C           -1.169761380253    -0.845000242871     1.376712753828    12.000000000000
         C           -3.670389380253     0.935837757129    -0.876979246172    12.000000000000
         C            0.891866619747    -0.416381242871    -0.044322246172    12.000000000000
         C            2.019169619747    -1.151271242871    -0.428118246172    12.000000000000
         C            3.269451619747    -0.533932242871    -0.439218246172    12.000000000000
         C            2.183153619747     1.463670757129     0.310303753828    12.000000000000
         C            3.356109619747     0.804530757129    -0.061321246172    12.000000000000
         H           -3.298650380253    -1.087126242871    -0.254511246172     1.007825032230
         H           -0.403464380253    -2.082257242871    -0.258576246172     1.007825032230
         H           -1.031972380253     0.676365757129    -1.261565246172     1.007825032230
         H           -1.545602380253    -0.871120242871    -1.952712246172     1.007825032230
         H           -3.086883380253     0.112165757129     1.898242753828     1.007825032230
         H           -1.833019680253     1.283606157129     1.185064853828     1.007825032230
         H           -0.455739380253    -0.531180242871     2.143717753828     1.007825032230
         H           -1.597953380253    -1.803034242871     1.695255753828     1.007825032230
         H           -3.947393380253     0.682638757129    -1.905672246172     1.007825032230
         H           -4.592965380253     1.048097757129    -0.298130246172     1.007825032230
         H           -3.159393380253     1.904570757129    -0.892391246172     1.007825032230
         H            1.914089619747    -2.195390242871    -0.713390246172     1.007825032230
         H            4.157459619747    -1.087487242871    -0.735551246172     1.007825032230
         H            2.207936619747     2.509462757129     0.614009753828     1.007825032230
         H            4.307197619747     1.329504757129    -0.052599246172     1.007825032230

  Basis Set: AUG-CC-PVTZ
    Blend: AUG-CC-PVTZ
  Basis Set: (AUG-CC-PVTZ AUX)
    Blend: AUG-CC-PVTZ-JKFIT
	 Reference Energy          =    -479.8900325962424631 [Eh]
	 Singles Energy            =      -0.0000000000000000 [Eh]
	 Same-Spin Energy          =      -0.5329281061201617 [Eh]
	 Opposite-Spin Energy      =      -1.7463954297847890 [Eh]
	 Correlation Energy        =      -2.2793235359049508 [Eh]
	 Total Energy              =    -482.1693561321474135 [Eh]

	 ================> DF-SCS-MP2 Energies <==================
	-----------------------------------------------------------
	 SCS Same-Spin Scale       =       0.3333333333333333 [-]
	 SCS Opposite-Spin Scale   =       1.2000000000000000 [-]
	 SCS Same-Spin Energy      =      -0.1776427020400539 [Eh]
	 SCS Opposite-Spin Energy  =      -2.0956745157417469 [Eh]
	 SCS Correlation Energy    =      -2.2733172177818006 [Eh]
	 SCS Total Energy          =    -482.1633498140242864 [Eh]
	-----------------------------------------------------------

  Dipole Moment: [D]
     X:     1.3268      Y:    -1.1272      Z:    -0.5047     Total:     1.8126

*** Psi4 exiting successfully. Buy a developer a beer!
