                               Psi4 1.4a3.dev225

  ==> Input File <==

--------------------------------------------------------------------------
#psi4
#
memory 32 gb

molecule  {
0 1
  N        1.0430420     0.8835120     0.3262100
  C       -2.6935940    -0.1236090    -0.2650160
  C       -0.4170680    -1.0145740    -0.0079460
  C       -1.3683020    -0.3105490    -1.0112920
  C       -2.2166740     0.1783740     1.1559530
  C       -1.0996000    -0.8433070     1.3811970
  C       -3.6002280     0.9375310    -0.8724950
  C        0.9620280    -0.4146880    -0.0398380
  C        2.0893310    -1.1495780    -0.4236340
  C        3.3396130    -0.5322390    -0.4347340
  C        2.2533150     1.4653640     0.3147880
  C        3.4262710     0.8062240    -0.0568370
  H       -3.2284890    -1.0854330    -0.2500270
  H       -0.3333030    -2.0805640    -0.2540920
  H       -0.9618110     0.6780590    -1.2570810
  H       -1.4754410    -0.8694270    -1.9482280
  H       -3.0167220     0.1138590     1.9027270
  H       -1.8007770     1.1928100     1.1867420
  H       -0.3855780    -0.5294870     2.1482020
  H       -1.5277920    -1.8013410     1.6997400
  H       -3.8772320     0.6843320    -1.9011880
  H       -4.5228040     1.0497910    -0.2936460
  H       -3.0892320     1.9062640    -0.8879070
  H        1.9823185    -2.2128996    -0.7141525
  H        4.2276210    -1.0857940    -0.7310670
  H        2.2780980     2.5111560     0.6184940
  H        4.3773590     1.3311980    -0.0481150
units angstrom
no_reorient  #important for SAPT in psi4, default
symmetry c1  #important for SAPT in psi4, default
}

set PROPERTIES_ORIGIN ["COM"]
properties('MP2/aug-cc-pvtz', properties = ['dipole'])
--------------------------------------------------------------------------

    Molecular point group: c1
  Charge       = 0
  Multiplicity = 1
  Basis Set: AUG-CC-PVTZ
    Blend: AUG-CC-PVTZ
  Basis Set: (AUG-CC-PVTZ AUX)
    Blend: AUG-CC-PVTZ-JKFIT

    Orbital Energies [Eh]
    ---------------------

    Doubly Occupied:

       1A    -15.558197     2A    -11.275532     3A    -11.274457
       4A    -11.258151     5A    -11.237429     6A    -11.236038
       7A    -11.226108     8A    -11.214594     9A    -11.211383
      10A    -11.209696    11A    -11.205241    12A    -11.203707
      13A     -1.252010    14A     -1.127545    15A     -1.081722
      16A     -1.046263    17A     -0.991104    18A     -0.954722
      19A     -0.893763    20A     -0.854475    21A     -0.836579
      22A     -0.764424    23A     -0.755605    24A     -0.695984
      25A     -0.668056    26A     -0.640172    27A     -0.638746
      28A     -0.607394    29A     -0.584875    30A     -0.577260
      31A     -0.573949    32A     -0.551744    33A     -0.537904
      34A     -0.526725    35A     -0.511703    36A     -0.473075
      37A     -0.468905    38A     -0.461014    39A     -0.452709
      40A     -0.447016    41A     -0.439526    42A     -0.410067
      43A     -0.377129    44A     -0.332232

  @DF-RHF Final Energy:  -479.89594640320126

   => Energetics <=

    Nuclear Repulsion Energy =            685.7610093919716974
    One-Electron Energy =               -2010.0240477805120918
    Two-Electron Energy =                 844.3670919853390160
    Total Energy =                       -479.8959464032012647
  Basis Set: (AUG-CC-PVTZ AUX)
    Blend: AUG-CC-PVTZ-RI
    Molecular point group: c1

    Geometry (in Angstrom), charge = 0, multiplicity = 1:

       Center              X                  Y                   Z               Mass
    ------------   -----------------  -----------------  -----------------  -----------------
         N            0.973129893114     0.882517402110     0.321776129927    14.003074004430
         C           -2.763506106886    -0.124603597890    -0.269449870073    12.000000000000
         C           -0.486980106886    -1.015568597890    -0.012379870073    12.000000000000
         C           -1.438214106886    -0.311543597890    -1.015725870073    12.000000000000
         C           -2.286586106886     0.177379402110     1.151519129927    12.000000000000
         C           -1.169512106886    -0.844301597890     1.376763129927    12.000000000000
         C           -3.670140106886     0.936536402110    -0.876928870073    12.000000000000
         C            0.892115893114    -0.415682597890    -0.044271870073    12.000000000000
         C            2.019418893114    -1.150572597890    -0.428067870073    12.000000000000
         C            3.269700893114    -0.533233597890    -0.439167870073    12.000000000000
         C            2.183402893114     1.464369402110     0.310354129927    12.000000000000
         C            3.356358893114     0.805229402110    -0.061270870073    12.000000000000
         H           -3.298401106886    -1.086427597890    -0.254460870073     1.007825032230
         H           -0.403215106886    -2.081558597890    -0.258525870073     1.007825032230
         H           -1.031723106886     0.677064402110    -1.261514870073     1.007825032230
         H           -1.545353106886    -0.870421597890    -1.952661870073     1.007825032230
         H           -3.086634106886     0.112864402110     1.898293129927     1.007825032230
         H           -1.870689106886     1.191815402110     1.182308129927     1.007825032230
         H           -0.455490106886    -0.530481597890     2.143768129927     1.007825032230
         H           -1.597704106886    -1.802335597890     1.695306129927     1.007825032230
         H           -3.947144106886     0.683337402110    -1.905621870073     1.007825032230
         H           -4.592716106886     1.048796402110    -0.298079870073     1.007825032230
         H           -3.159144106886     1.905269402110    -0.892340870073     1.007825032230
         H            1.912406393114    -2.213894197890    -0.718586370073     1.007825032230
         H            4.157708893114    -1.086788597890    -0.735500870073     1.007825032230
         H            2.208185893114     2.510161402110     0.614060129927     1.007825032230
         H            4.307446893114     1.330203402110    -0.052548870073     1.007825032230

  Basis Set: AUG-CC-PVTZ
    Blend: AUG-CC-PVTZ
  Basis Set: (AUG-CC-PVTZ AUX)
    Blend: AUG-CC-PVTZ-JKFIT
	 Reference Energy          =    -479.8959464032012647 [Eh]
	 Singles Energy            =      -0.0000000000000000 [Eh]
	 Same-Spin Energy          =      -0.5328381178386357 [Eh]
	 Opposite-Spin Energy      =      -1.7457163614307878 [Eh]
	 Correlation Energy        =      -2.2785544792694234 [Eh]
	 Total Energy              =    -482.1745008824706815 [Eh]

	 ================> DF-SCS-MP2 Energies <==================
	-----------------------------------------------------------
	 SCS Same-Spin Scale       =       0.3333333333333333 [-]
	 SCS Opposite-Spin Scale   =       1.2000000000000000 [-]
	 SCS Same-Spin Energy      =      -0.1776127059462119 [Eh]
	 SCS Opposite-Spin Energy  =      -2.0948596337169452 [Eh]
	 SCS Correlation Energy    =      -2.2724723396631572 [Eh]
	 SCS Total Energy          =    -482.1684187428644464 [Eh]
	-----------------------------------------------------------

  Dipole Moment: [D]
     X:     1.3322      Y:    -1.0643      Z:    -0.4933     Total:     1.7751

*** Psi4 exiting successfully. Buy a developer a beer!
