                               Psi4 1.4a3.dev225

  ==> Input File <==

--------------------------------------------------------------------------
#psi4
#
memory 32 gb

molecule  {
0 1
  N        1.0430420     0.8835120     0.3262100
  C       -2.6935940    -0.1236090    -0.2650160
  C       -0.4170680    -1.0145740    -0.0079460
  C       -1.4836762    -0.4130168    -0.9606665
  C       -2.2166740     0.1783740     1.1559530
  C       -1.0996000    -0.8433070     1.3811970
  C       -3.6002280     0.9375310    -0.8724950
  C        0.9620280    -0.4146880    -0.0398380
  C        2.0893310    -1.1495780    -0.4236340
  C        3.3396130    -0.5322390    -0.4347340
  C        2.2533150     1.4653640     0.3147880
  C        3.4262710     0.8062240    -0.0568370
  H       -3.2284890    -1.0854330    -0.2500270
  H       -0.3333030    -2.0805640    -0.2540920
  H       -0.9618110     0.6780590    -1.2570810
  H       -1.4754410    -0.8694270    -1.9482280
  H       -3.0167220     0.1138590     1.9027270
  H       -1.8007770     1.1928100     1.1867420
  H       -0.3855780    -0.5294870     2.1482020
  H       -1.5277920    -1.8013410     1.6997400
  H       -3.8772320     0.6843320    -1.9011880
  H       -4.5228040     1.0497910    -0.2936460
  H       -3.0892320     1.9062640    -0.8879070
  H        1.9842510    -2.1936970    -0.7089060
  H        4.2276210    -1.0857940    -0.7310670
  H        2.2780980     2.5111560     0.6184940
  H        4.3773590     1.3311980    -0.0481150
units angstrom
no_reorient  #important for SAPT in psi4, default
symmetry c1  #important for SAPT in psi4, default
}

set PROPERTIES_ORIGIN ["COM"]
properties('MP2/aug-cc-pvtz', properties = ['dipole'])
--------------------------------------------------------------------------

    Molecular point group: c1
  Charge       = 0
  Multiplicity = 1
  Basis Set: AUG-CC-PVTZ
    Blend: AUG-CC-PVTZ
  Basis Set: (AUG-CC-PVTZ AUX)
    Blend: AUG-CC-PVTZ-JKFIT

    Orbital Energies [Eh]
    ---------------------

    Doubly Occupied:

       1A    -15.558915     2A    -11.276954     3A    -11.274452
       4A    -11.258416     5A    -11.236947     6A    -11.236625
       7A    -11.227484     8A    -11.217538     9A    -11.211762
      10A    -11.210367    11A    -11.207064    12A    -11.205081
      13A     -1.252181    14A     -1.138809    15A     -1.082713
      16A     -1.049751    17A     -0.994740    18A     -0.953780
      19A     -0.899899    20A     -0.855644    21A     -0.838005
      22A     -0.770652    23A     -0.746880    24A     -0.698292
      25A     -0.670976    26A     -0.646046    27A     -0.643044
      28A     -0.611754    29A     -0.584918    30A     -0.575676
      31A     -0.570387    32A     -0.554657    33A     -0.538505
      34A     -0.521129    35A     -0.509967    36A     -0.485081
      37A     -0.473674    38A     -0.467573    39A     -0.450960
      40A     -0.446595    41A     -0.415555    42A     -0.406652
      43A     -0.376271    44A     -0.333414

  @DF-RHF Final Energy:  -479.87017202261529

   => Energetics <=

    Nuclear Repulsion Energy =            686.2469691635460549
    One-Electron Energy =               -2010.8627097281234910
    Two-Electron Energy =                 844.7455685419621432
    Total Energy =                       -479.8701720226152929
  Basis Set: (AUG-CC-PVTZ AUX)
    Blend: AUG-CC-PVTZ-RI
    Molecular point group: c1

    Geometry (in Angstrom), charge = 0, multiplicity = 1:

       Center              X                  Y                   Z               Mass
    ------------   -----------------  -----------------  -----------------  -----------------
         N            0.981710695753     0.890028929932     0.317972804179    14.003074004430
         C           -2.754925304247    -0.117092070068    -0.273253195821    12.000000000000
         C           -0.478399304247    -1.008057070068    -0.016183195821    12.000000000000
         C           -1.545007504247    -0.406499870068    -0.968903695821    12.000000000000
         C           -2.278005304247     0.184890929932     1.147715804179    12.000000000000
         C           -1.160931304247    -0.836790070068     1.372959804179    12.000000000000
         C           -3.661559304247     0.944047929932    -0.880732195821    12.000000000000
         C            0.900696695753    -0.408171070068    -0.048075195821    12.000000000000
         C            2.027999695753    -1.143061070068    -0.431871195821    12.000000000000
         C            3.278281695753    -0.525722070068    -0.442971195821    12.000000000000
         C            2.191983695753     1.471880929932     0.306550804179    12.000000000000
         C            3.364939695753     0.812740929932    -0.065074195821    12.000000000000
         H           -3.289820304247    -1.078916070068    -0.258264195821     1.007825032230
         H           -0.394634304247    -2.074047070068    -0.262329195821     1.007825032230
         H           -1.023142304247     0.684575929932    -1.265318195821     1.007825032230
         H           -1.536772304247    -0.862910070068    -1.956465195821     1.007825032230
         H           -3.078053304247     0.120375929932     1.894489804179     1.007825032230
         H           -1.862108304247     1.199326929932     1.178504804179     1.007825032230
         H           -0.446909304247    -0.522970070068     2.139964804179     1.007825032230
         H           -1.589123304247    -1.794824070068     1.691502804179     1.007825032230
         H           -3.938563304247     0.690848929932    -1.909425195821     1.007825032230
         H           -4.584135304247     1.056307929932    -0.301883195821     1.007825032230
         H           -3.150563304247     1.912780929932    -0.896144195821     1.007825032230
         H            1.922919695753    -2.187180070068    -0.717143195821     1.007825032230
         H            4.166289695753    -1.079277070068    -0.739304195821     1.007825032230
         H            2.216766695753     2.517672929932     0.610256804179     1.007825032230
         H            4.316027695753     1.337714929932    -0.056352195821     1.007825032230

  Basis Set: AUG-CC-PVTZ
    Blend: AUG-CC-PVTZ
  Basis Set: (AUG-CC-PVTZ AUX)
    Blend: AUG-CC-PVTZ-JKFIT
	 Reference Energy          =    -479.8701720226152929 [Eh]
	 Singles Energy            =      -0.0000000000000000 [Eh]
	 Same-Spin Energy          =      -0.5344889515626090 [Eh]
	 Opposite-Spin Energy      =      -1.7480192994043926 [Eh]
	 Correlation Energy        =      -2.2825082509670018 [Eh]
	 Total Energy              =    -482.1526802735822912 [Eh]

	 ================> DF-SCS-MP2 Energies <==================
	-----------------------------------------------------------
	 SCS Same-Spin Scale       =       0.3333333333333333 [-]
	 SCS Opposite-Spin Scale   =       1.2000000000000000 [-]
	 SCS Same-Spin Energy      =      -0.1781629838542030 [Eh]
	 SCS Opposite-Spin Energy  =      -2.0976231592852712 [Eh]
	 SCS Correlation Energy    =      -2.2757861431394741 [Eh]
	 SCS Total Energy          =    -482.1459581657547915 [Eh]
	-----------------------------------------------------------

  Dipole Moment: [D]
     X:     1.3586      Y:    -1.0976      Z:    -0.4526     Total:     1.8043

*** Psi4 exiting successfully. Buy a developer a beer!
