                               Psi4 1.4a3.dev225

  ==> Input File <==

--------------------------------------------------------------------------
#psi4
#
memory 32 gb

molecule  {
0 1
  N        1.0430420     0.8835120     0.3262100
  C       -2.6935940    -0.1236090    -0.2650160
  C       -0.4170680    -1.0145740    -0.0079460
  C       -1.3683020    -0.3105490    -1.0112920
  C       -2.1945804     0.2093933     1.1934171
  C       -1.0996000    -0.8433070     1.3811970
  C       -3.6002280     0.9375310    -0.8724950
  C        0.9620280    -0.4146880    -0.0398380
  C        2.0893310    -1.1495780    -0.4236340
  C        3.3396130    -0.5322390    -0.4347340
  C        2.2533150     1.4653640     0.3147880
  C        3.4262710     0.8062240    -0.0568370
  H       -3.2284890    -1.0854330    -0.2500270
  H       -0.3333030    -2.0805640    -0.2540920
  H       -0.9618110     0.6780590    -1.2570810
  H       -1.4754410    -0.8694270    -1.9482280
  H       -3.0167220     0.1138590     1.9027270
  H       -1.8007770     1.1928100     1.1867420
  H       -0.3855780    -0.5294870     2.1482020
  H       -1.5277920    -1.8013410     1.6997400
  H       -3.8772320     0.6843320    -1.9011880
  H       -4.5228040     1.0497910    -0.2936460
  H       -3.0892320     1.9062640    -0.8879070
  H        1.9842510    -2.1936970    -0.7089060
  H        4.2276210    -1.0857940    -0.7310670
  H        2.2780980     2.5111560     0.6184940
  H        4.3773590     1.3311980    -0.0481150
units angstrom
no_reorient  #important for SAPT in psi4, default
symmetry c1  #important for SAPT in psi4, default
}

set PROPERTIES_ORIGIN ["COM"]
properties('MP2/aug-cc-pvtz', properties = ['dipole'])
--------------------------------------------------------------------------

    Molecular point group: c1
  Charge       = 0
  Multiplicity = 1
  Basis Set: AUG-CC-PVTZ
    Blend: AUG-CC-PVTZ
  Basis Set: (AUG-CC-PVTZ AUX)
    Blend: AUG-CC-PVTZ-JKFIT

    Orbital Energies [Eh]
    ---------------------

    Doubly Occupied:

       1A    -15.558121     2A    -11.275369     3A    -11.274436
       4A    -11.257987     5A    -11.235914     6A    -11.235130
       7A    -11.226213     8A    -11.216357     9A    -11.211501
      10A    -11.209411    11A    -11.204688    12A    -11.202397
      13A     -1.251922    14A     -1.123768    15A     -1.081827
      16A     -1.044851    17A     -0.990704    18A     -0.955346
      19A     -0.892488    20A     -0.855114    21A     -0.836284
      22A     -0.766365    23A     -0.754852    24A     -0.696860
      25A     -0.667697    26A     -0.640209    27A     -0.639071
      28A     -0.607043    29A     -0.584734    30A     -0.579702
      31A     -0.573679    32A     -0.551305    33A     -0.539029
      34A     -0.527597    35A     -0.513568    36A     -0.473272
      37A     -0.469774    38A     -0.463923    39A     -0.455957
      40A     -0.448350    41A     -0.426811    42A     -0.410129
      43A     -0.377039    44A     -0.332183

  @DF-RHF Final Energy:  -479.89430577890153

   => Energetics <=

    Nuclear Repulsion Energy =            685.3386754405406691
    One-Electron Energy =               -2009.1880050296654190
    Two-Electron Energy =                 843.9550238102233379
    Total Energy =                       -479.8943057789015256
  Basis Set: (AUG-CC-PVTZ AUX)
    Blend: AUG-CC-PVTZ-RI
    Molecular point group: c1

    Geometry (in Angstrom), charge = 0, multiplicity = 1:

       Center              X                  Y                   Z               Mass
    ------------   -----------------  -----------------  -----------------  -----------------
         N            0.971472308228     0.880087018741     0.318953044741    14.003074004430
         C           -2.765163691772    -0.127033981259    -0.272272955259    12.000000000000
         C           -0.488637691772    -1.017998981259    -0.015202955259    12.000000000000
         C           -1.439871691772    -0.313973981259    -1.018548955259    12.000000000000
         C           -2.266150091772     0.205968318741     1.186160144741    12.000000000000
         C           -1.171169691772    -0.846731981259     1.373940044741    12.000000000000
         C           -3.671797691772     0.934106018741    -0.879751955259    12.000000000000
         C            0.890458308228    -0.418112981259    -0.047094955259    12.000000000000
         C            2.017761308228    -1.153002981259    -0.430890955259    12.000000000000
         C            3.268043308228    -0.535663981259    -0.441990955259    12.000000000000
         C            2.181745308228     1.461939018741     0.307531044741    12.000000000000
         C            3.354701308228     0.802799018741    -0.064093955259    12.000000000000
         H           -3.300058691772    -1.088857981259    -0.257283955259     1.007825032230
         H           -0.404872691772    -2.083988981259    -0.261348955259     1.007825032230
         H           -1.033380691772     0.674634018741    -1.264337955259     1.007825032230
         H           -1.547010691772    -0.872851981259    -1.955484955259     1.007825032230
         H           -3.088291691772     0.110434018741     1.895470044741     1.007825032230
         H           -1.872346691772     1.189385018741     1.179485044741     1.007825032230
         H           -0.457147691772    -0.532911981259     2.140945044741     1.007825032230
         H           -1.599361691772    -1.804765981259     1.692483044741     1.007825032230
         H           -3.948801691772     0.680907018741    -1.908444955259     1.007825032230
         H           -4.594373691772     1.046366018741    -0.300902955259     1.007825032230
         H           -3.160801691772     1.902839018741    -0.895163955259     1.007825032230
         H            1.912681308228    -2.197121981259    -0.716162955259     1.007825032230
         H            4.156051308228    -1.089218981259    -0.738323955259     1.007825032230
         H            2.206528308228     2.507731018741     0.611237044741     1.007825032230
         H            4.305789308228     1.327773018741    -0.055371955259     1.007825032230

  Basis Set: AUG-CC-PVTZ
    Blend: AUG-CC-PVTZ
  Basis Set: (AUG-CC-PVTZ AUX)
    Blend: AUG-CC-PVTZ-JKFIT
	 Reference Energy          =    -479.8943057789015256 [Eh]
	 Singles Energy            =      -0.0000000000000000 [Eh]
	 Same-Spin Energy          =      -0.5325943521033609 [Eh]
	 Opposite-Spin Energy      =      -1.7455311696997344 [Eh]
	 Correlation Energy        =      -2.2781255218030951 [Eh]
	 Total Energy              =    -482.1724313007046021 [Eh]

	 ================> DF-SCS-MP2 Energies <==================
	-----------------------------------------------------------
	 SCS Same-Spin Scale       =       0.3333333333333333 [-]
	 SCS Opposite-Spin Scale   =       1.2000000000000000 [-]
	 SCS Same-Spin Energy      =      -0.1775314507011203 [Eh]
	 SCS Opposite-Spin Energy  =      -2.0946374036396813 [Eh]
	 SCS Correlation Energy    =      -2.2721688543408014 [Eh]
	 SCS Total Energy          =    -482.1664746332423306 [Eh]
	-----------------------------------------------------------

  Dipole Moment: [D]
     X:     1.3317      Y:    -1.0669      Z:    -0.4951     Total:     1.7767

*** Psi4 exiting successfully. Buy a developer a beer!
