                               Psi4 1.4a3.dev225

  ==> Input File <==

--------------------------------------------------------------------------
#psi4
#
memory 32 gb

molecule  {
0 1
  N        1.0430420     0.8835120     0.3262100
  C       -2.6935940    -0.1236090    -0.2650160
  C       -0.4170680    -1.0145740    -0.0079460
  C       -1.3683020    -0.3105490    -1.0112920
  C       -2.2166740     0.1783740     1.1559530
  C       -1.0996000    -0.8433070     1.3811970
  C       -3.6002280     0.9375310    -0.8724950
  C        0.9620280    -0.4146880    -0.0398380
  C        2.0893310    -1.1495780    -0.4236340
  C        3.3396130    -0.5322390    -0.4347340
  C        2.2533150     1.4653640     0.3147880
  C        3.4262710     0.8062240    -0.0568370
  H       -3.2284890    -1.0854330    -0.2500270
  H       -0.3333030    -2.0805640    -0.2540920
  H       -0.9618110     0.6780590    -1.2570810
  H       -1.4754410    -0.8694270    -1.9482280
  H       -3.0167220     0.1138590     1.9027270
  H       -1.8007770     1.1928100     1.1867420
  H       -0.3855780    -0.5294870     2.1482020
  H       -1.5277920    -1.8013410     1.6997400
  H       -3.9025289     0.6612090    -1.9951316
  H       -4.5228040     1.0497910    -0.2936460
  H       -3.0892320     1.9062640    -0.8879070
  H        1.9842510    -2.1936970    -0.7089060
  H        4.2276210    -1.0857940    -0.7310670
  H        2.2780980     2.5111560     0.6184940
  H        4.3773590     1.3311980    -0.0481150
units angstrom
no_reorient  #important for SAPT in psi4, default
symmetry c1  #important for SAPT in psi4, default
}

set PROPERTIES_ORIGIN ["COM"]
properties('MP2/aug-cc-pvtz', properties = ['dipole'])
--------------------------------------------------------------------------

    Molecular point group: c1
  Charge       = 0
  Multiplicity = 1
  Basis Set: AUG-CC-PVTZ
    Blend: AUG-CC-PVTZ
  Basis Set: (AUG-CC-PVTZ AUX)
    Blend: AUG-CC-PVTZ-JKFIT

    Orbital Energies [Eh]
    ---------------------

    Doubly Occupied:

       1A    -15.558254     2A    -11.275566     3A    -11.274564
       4A    -11.258133     5A    -11.236078     6A    -11.235316
       7A    -11.226454     8A    -11.217565     9A    -11.215731
      10A    -11.212087    11A    -11.209974    12A    -11.204821
      13A     -1.252108    14A     -1.127989    15A     -1.082058
      16A     -1.046402    17A     -0.989322    18A     -0.955288
      19A     -0.889599    20A     -0.855278    21A     -0.836290
      22A     -0.764883    23A     -0.755178    24A     -0.697006
      25A     -0.668369    26A     -0.641072    27A     -0.640266
      28A     -0.607984    29A     -0.584193    30A     -0.576780
      31A     -0.572149    32A     -0.545154    33A     -0.538039
      34A     -0.524811    35A     -0.511345    36A     -0.473655
      37A     -0.469312    38A     -0.461815    39A     -0.453227
      40A     -0.447596    41A     -0.436058    42A     -0.410263
      43A     -0.377201    44A     -0.332348

  @DF-RHF Final Energy:  -479.89024764467626

   => Energetics <=

    Nuclear Repulsion Energy =            685.4389313866614657
    One-Electron Energy =               -2009.3631928867921488
    Two-Electron Energy =                 844.0340138554545319
    Total Energy =                       -479.8902476446762648
  Basis Set: (AUG-CC-PVTZ AUX)
    Blend: AUG-CC-PVTZ-RI
    Molecular point group: c1

    Geometry (in Angstrom), charge = 0, multiplicity = 1:

       Center              X                  Y                   Z               Mass
    ------------   -----------------  -----------------  -----------------  -----------------
         N            0.973276039846     0.882541924617     0.322330939437    14.003074004430
         C           -2.763359960154    -0.124579075383    -0.268895060563    12.000000000000
         C           -0.486833960154    -1.015544075383    -0.011825060563    12.000000000000
         C           -1.438067960154    -0.311519075383    -1.015171060563    12.000000000000
         C           -2.286439960154     0.177403924617     1.152073939437    12.000000000000
         C           -1.169365960154    -0.844277075383     1.377317939437    12.000000000000
         C           -3.669993960154     0.936560924617    -0.876374060563    12.000000000000
         C            0.892262039846    -0.415658075383    -0.043717060563    12.000000000000
         C            2.019565039846    -1.150548075383    -0.427513060563    12.000000000000
         C            3.269847039846    -0.533209075383    -0.438613060563    12.000000000000
         C            2.183549039846     1.464393924617     0.310908939437    12.000000000000
         C            3.356505039846     0.805253924617    -0.060716060563    12.000000000000
         H           -3.298254960154    -1.086403075383    -0.253906060563     1.007825032230
         H           -0.403068960154    -2.081534075383    -0.257971060563     1.007825032230
         H           -1.031576960154     0.677088924617    -1.260960060563     1.007825032230
         H           -1.545206960154    -0.870397075383    -1.952107060563     1.007825032230
         H           -3.086487960154     0.112888924617     1.898847939437     1.007825032230
         H           -1.870542960154     1.191839924617     1.182862939437     1.007825032230
         H           -0.455343960154    -0.530457075383     2.144322939437     1.007825032230
         H           -1.597557960154    -1.802311075383     1.695860939437     1.007825032230
         H           -3.972294860154     0.660238924617    -1.999010660563     1.007825032230
         H           -4.592569960154     1.048820924617    -0.297525060563     1.007825032230
         H           -3.158997960154     1.905293924617    -0.891786060563     1.007825032230
         H            1.914485039846    -2.194667075383    -0.712785060563     1.007825032230
         H            4.157855039846    -1.086764075383    -0.734946060563     1.007825032230
         H            2.208332039846     2.510185924617     0.614614939437     1.007825032230
         H            4.307593039846     1.330227924617    -0.051994060563     1.007825032230

  Basis Set: AUG-CC-PVTZ
    Blend: AUG-CC-PVTZ
  Basis Set: (AUG-CC-PVTZ AUX)
    Blend: AUG-CC-PVTZ-JKFIT
	 Reference Energy          =    -479.8902476446762648 [Eh]
	 Singles Energy            =      -0.0000000000000000 [Eh]
	 Same-Spin Energy          =      -0.5327460855479036 [Eh]
	 Opposite-Spin Energy      =      -1.7462342943173930 [Eh]
	 Correlation Energy        =      -2.2789803798652963 [Eh]
	 Total Energy              =    -482.1692280245415532 [Eh]

	 ================> DF-SCS-MP2 Energies <==================
	-----------------------------------------------------------
	 SCS Same-Spin Scale       =       0.3333333333333333 [-]
	 SCS Opposite-Spin Scale   =       1.2000000000000000 [-]
	 SCS Same-Spin Energy      =      -0.1775820285159679 [Eh]
	 SCS Opposite-Spin Energy  =      -2.0954811531808715 [Eh]
	 SCS Correlation Energy    =      -2.2730631816968394 [Eh]
	 SCS Total Energy          =    -482.1633108263731060 [Eh]
	-----------------------------------------------------------

  Dipole Moment: [D]
     X:     1.3779      Y:    -1.0731      Z:    -0.4160     Total:     1.7953

*** Psi4 exiting successfully. Buy a developer a beer!
