                               Psi4 1.4a3.dev225

  ==> Input File <==

--------------------------------------------------------------------------
#psi4
#
memory 32 gb

molecule  {
0 1
  N        1.0430420     0.8835120     0.3262100
  C       -2.6935940    -0.1236090    -0.2650160
  C       -0.4170680    -1.0145740    -0.0079460
  C       -1.3683020    -0.3105490    -1.0112920
  C       -2.2166740     0.1783740     1.1559530
  C       -1.0996000    -0.8433070     1.3811970
  C       -3.6002280     0.9375310    -0.8724950
  C        0.9620280    -0.4146880    -0.0398380
  C        2.0893310    -1.1495780    -0.4236340
  C        3.3396130    -0.5322390    -0.4347340
  C        2.2533150     1.4653640     0.3147880
  C        3.4262710     0.8062240    -0.0568370
  H       -3.2284890    -1.0854330    -0.2500270
  H       -0.3333030    -2.0805640    -0.2540920
  H       -0.9618110     0.6780590    -1.2570810
  H       -1.4754410    -0.8694270    -1.9482280
  H       -3.0167220     0.1138590     1.9027270
  H       -1.8007770     1.1928100     1.1867420
  H       -0.3855780    -0.5294870     2.1482020
  H       -1.5277920    -1.8013410     1.6997400
  H       -3.8519351     0.7074550    -1.8072444
  H       -4.5228040     1.0497910    -0.2936460
  H       -3.0892320     1.9062640    -0.8879070
  H        1.9842510    -2.1936970    -0.7089060
  H        4.2276210    -1.0857940    -0.7310670
  H        2.2780980     2.5111560     0.6184940
  H        4.3773590     1.3311980    -0.0481150
units angstrom
no_reorient  #important for SAPT in psi4, default
symmetry c1  #important for SAPT in psi4, default
}

set PROPERTIES_ORIGIN ["COM"]
properties('MP2/aug-cc-pvtz', properties = ['dipole'])
--------------------------------------------------------------------------

    Molecular point group: c1
  Charge       = 0
  Multiplicity = 1
  Basis Set: AUG-CC-PVTZ
    Blend: AUG-CC-PVTZ
  Basis Set: (AUG-CC-PVTZ AUX)
    Blend: AUG-CC-PVTZ-JKFIT

    Orbital Energies [Eh]
    ---------------------

    Doubly Occupied:

       1A    -15.557829     2A    -11.275158     3A    -11.274202
       4A    -11.257805     5A    -11.235740     6A    -11.234957
       7A    -11.225912     8A    -11.213659     9A    -11.210847
      10A    -11.209534    11A    -11.202852    12A    -11.192459
      13A     -1.251698    14A     -1.127366    15A     -1.081719
      16A     -1.046998    17A     -0.994617    18A     -0.954410
      19A     -0.899819    20A     -0.855205    21A     -0.837367
      22A     -0.764036    23A     -0.756531    24A     -0.696663
      25A     -0.667927    26A     -0.640570    27A     -0.640093
      28A     -0.609035    29A     -0.589950    30A     -0.579366
      31A     -0.574989    32A     -0.557226    33A     -0.537890
      34A     -0.528066    35A     -0.511773    36A     -0.472823
      37A     -0.468688    38A     -0.460499    39A     -0.452319
      40A     -0.446753    41A     -0.441764    42A     -0.409806
      43A     -0.376833    44A     -0.331953

  @DF-RHF Final Energy:  -479.89055340869896

   => Energetics <=

    Nuclear Repulsion Energy =            686.3421360779117322
    One-Electron Energy =               -2011.1539659174425196
    Two-Electron Energy =                 844.9212764308316537
    Total Energy =                       -479.8905534086990201
  Basis Set: (AUG-CC-PVTZ AUX)
    Blend: AUG-CC-PVTZ-RI
    Molecular point group: c1

    Geometry (in Angstrom), charge = 0, multiplicity = 1:

       Center              X                  Y                   Z               Mass
    ------------   -----------------  -----------------  -----------------  -----------------
         N            0.972959570408     0.882252651116     0.321155685619    14.003074004430
         C           -2.763676429592    -0.124868348884    -0.270070314381    12.000000000000
         C           -0.487150429592    -1.015833348884    -0.013000314381    12.000000000000
         C           -1.438384429592    -0.311808348884    -1.016346314381    12.000000000000
         C           -2.286756429592     0.177114651116     1.150898685619    12.000000000000
         C           -1.169682429592    -0.844566348884     1.376142685619    12.000000000000
         C           -3.670310429592     0.936271651116    -0.877549314381    12.000000000000
         C            0.891945570408    -0.415947348884    -0.044892314381    12.000000000000
         C            2.019248570408    -1.150837348884    -0.428688314381    12.000000000000
         C            3.269530570408    -0.533498348884    -0.439788314381    12.000000000000
         C            2.183232570408     1.464104651116     0.309733685619    12.000000000000
         C            3.356188570408     0.804964651116    -0.061891314381    12.000000000000
         H           -3.298571429592    -1.086692348884    -0.255081314381     1.007825032230
         H           -0.403385429592    -2.081823348884    -0.259146314381     1.007825032230
         H           -1.031893429592     0.676799651116    -1.262135314381     1.007825032230
         H           -1.545523429592    -0.870686348884    -1.953282314381     1.007825032230
         H           -3.086804429592     0.112599651116     1.897672685619     1.007825032230
         H           -1.870859429592     1.191550651116     1.181687685619     1.007825032230
         H           -0.455660429592    -0.530746348884     2.143147685619     1.007825032230
         H           -1.597874429592    -1.802600348884     1.694685685619     1.007825032230
         H           -3.922017529592     0.706195651116    -1.812298714381     1.007825032230
         H           -4.592886429592     1.048531651116    -0.298700314381     1.007825032230
         H           -3.159314429592     1.905004651116    -0.892961314381     1.007825032230
         H            1.914168570408    -2.194956348884    -0.713960314381     1.007825032230
         H            4.157538570408    -1.087053348884    -0.736121314381     1.007825032230
         H            2.208015570408     2.509896651116     0.613439685619     1.007825032230
         H            4.307276570408     1.329938651116    -0.053169314381     1.007825032230

  Basis Set: AUG-CC-PVTZ
    Blend: AUG-CC-PVTZ
  Basis Set: (AUG-CC-PVTZ AUX)
    Blend: AUG-CC-PVTZ-JKFIT
	 Reference Energy          =    -479.8905534086989633 [Eh]
	 Singles Energy            =      -0.0000000000000000 [Eh]
	 Same-Spin Energy          =      -0.5328467327881390 [Eh]
	 Opposite-Spin Energy      =      -1.7450777385552021 [Eh]
	 Correlation Energy        =      -2.2779244713433409 [Eh]
	 Total Energy              =    -482.1684778800423032 [Eh]

	 ================> DF-SCS-MP2 Energies <==================
	-----------------------------------------------------------
	 SCS Same-Spin Scale       =       0.3333333333333333 [-]
	 SCS Opposite-Spin Scale   =       1.2000000000000000 [-]
	 SCS Same-Spin Energy      =      -0.1776155775960463 [Eh]
	 SCS Opposite-Spin Energy  =      -2.0940932862662422 [Eh]
	 SCS Correlation Energy    =      -2.2717088638622887 [Eh]
	 SCS Total Energy          =    -482.1622622725612359 [Eh]
	-----------------------------------------------------------

  Dipole Moment: [D]
     X:     1.2937      Y:    -1.0674      Z:    -0.5562     Total:     1.7670

*** Psi4 exiting successfully. Buy a developer a beer!
