                               Psi4 1.4a3.dev225

  ==> Input File <==

--------------------------------------------------------------------------
#psi4
#
memory 32 gb

molecule  {
0 1
  N        1.0430420     0.8835120     0.3262100
  C       -2.6960488    -0.1501793    -0.2631990
  C       -0.4170680    -1.0145740    -0.0079460
  C       -1.3683020    -0.3105490    -1.0112920
  C       -2.2166740     0.1783740     1.1559530
  C       -1.0996000    -0.8433070     1.3811970
  C       -3.6002280     0.9375310    -0.8724950
  C        0.9620280    -0.4146880    -0.0398380
  C        2.0893310    -1.1495780    -0.4236340
  C        3.3396130    -0.5322390    -0.4347340
  C        2.2533150     1.4653640     0.3147880
  C        3.4262710     0.8062240    -0.0568370
  H       -3.2284890    -1.0854330    -0.2500270
  H       -0.3333030    -2.0805640    -0.2540920
  H       -0.9618110     0.6780590    -1.2570810
  H       -1.4754410    -0.8694270    -1.9482280
  H       -3.0167220     0.1138590     1.9027270
  H       -1.8007770     1.1928100     1.1867420
  H       -0.3855780    -0.5294870     2.1482020
  H       -1.5277920    -1.8013410     1.6997400
  H       -3.8772320     0.6843320    -1.9011880
  H       -4.5228040     1.0497910    -0.2936460
  H       -3.0892320     1.9062640    -0.8879070
  H        1.9842510    -2.1936970    -0.7089060
  H        4.2276210    -1.0857940    -0.7310670
  H        2.2780980     2.5111560     0.6184940
  H        4.3773590     1.3311980    -0.0481150
units angstrom
no_reorient  #important for SAPT in psi4, default
symmetry c1  #important for SAPT in psi4, default
}

set PROPERTIES_ORIGIN ["COM"]
properties('MP2/aug-cc-pvtz', properties = ['dipole'])
--------------------------------------------------------------------------

    Molecular point group: c1
  Charge       = 0
  Multiplicity = 1
  Basis Set: AUG-CC-PVTZ
    Blend: AUG-CC-PVTZ
  Basis Set: (AUG-CC-PVTZ AUX)
    Blend: AUG-CC-PVTZ-JKFIT

    Orbital Energies [Eh]
    ---------------------

    Doubly Occupied:

       1A    -15.557955     2A    -11.275211     3A    -11.274309
       4A    -11.257884     5A    -11.235817     6A    -11.235017
       7A    -11.225805     8A    -11.213632     9A    -11.211027
      10A    -11.209700    11A    -11.205449    12A    -11.203744
      13A     -1.251811    14A     -1.127131    15A     -1.081784
      16A     -1.045677    17A     -0.989224    18A     -0.954551
      19A     -0.892708    20A     -0.855132    21A     -0.836365
      22A     -0.764466    23A     -0.759207    24A     -0.696619
      25A     -0.667977    26A     -0.641045    27A     -0.639424
      28A     -0.607206    29A     -0.584597    30A     -0.577725
      31A     -0.573515    32A     -0.550355    33A     -0.537833
      34A     -0.527111    35A     -0.512318    36A     -0.473104
      37A     -0.468818    38A     -0.458057    39A     -0.453401
      40A     -0.451761    41A     -0.437518    42A     -0.409808
      43A     -0.376982    44A     -0.331997

  @DF-RHF Final Energy:  -479.89605598024696

   => Energetics <=

    Nuclear Repulsion Energy =            685.7361853721599800
    One-Electron Energy =               -2009.9829320038677452
    Two-Electron Energy =                 844.3506906514608090
    Total Energy =                       -479.8960559802469561
  Basis Set: (AUG-CC-PVTZ AUX)
    Blend: AUG-CC-PVTZ-RI
    Molecular point group: c1

    Geometry (in Angstrom), charge = 0, multiplicity = 1:

       Center              X                  Y                   Z               Mass
    ------------   -----------------  -----------------  -----------------  -----------------
         N            0.973300634806     0.884376202405     0.321607985199    14.003074004430
         C           -2.765790165194    -0.149315097595    -0.267801014801    12.000000000000
         C           -0.486809365194    -1.013709797595    -0.012548014801    12.000000000000
         C           -1.438043365194    -0.309684797595    -1.015894014801    12.000000000000
         C           -2.286415365194     0.179238202405     1.151350985199    12.000000000000
         C           -1.169341365194    -0.842442797595     1.376594985199    12.000000000000
         C           -3.669969365194     0.938395202405    -0.877097014801    12.000000000000
         C            0.892286634806    -0.413823797595    -0.044440014801    12.000000000000
         C            2.019589634806    -1.148713797595    -0.428236014801    12.000000000000
         C            3.269871634806    -0.531374797595    -0.439336014801    12.000000000000
         C            2.183573634806     1.466228202405     0.310185985199    12.000000000000
         C            3.356529634806     0.807088202405    -0.061439014801    12.000000000000
         H           -3.298230365194    -1.084568797595    -0.254629014801     1.007825032230
         H           -0.403044365194    -2.079699797595    -0.258694014801     1.007825032230
         H           -1.031552365194     0.678923202405    -1.261683014801     1.007825032230
         H           -1.545182365194    -0.868562797595    -1.952830014801     1.007825032230
         H           -3.086463365194     0.114723202405     1.898124985199     1.007825032230
         H           -1.870518365194     1.193674202405     1.182139985199     1.007825032230
         H           -0.455319365194    -0.528622797595     2.143599985199     1.007825032230
         H           -1.597533365194    -1.800476797595     1.695137985199     1.007825032230
         H           -3.946973365194     0.685196202405    -1.905790014801     1.007825032230
         H           -4.592545365194     1.050655202405    -0.298248014801     1.007825032230
         H           -3.158973365194     1.907128202405    -0.892509014801     1.007825032230
         H            1.914509634806    -2.192832797595    -0.713508014801     1.007825032230
         H            4.157879634806    -1.084929797595    -0.735669014801     1.007825032230
         H            2.208356634806     2.512020202405     0.613891985199     1.007825032230
         H            4.307617634806     1.332062202405    -0.052717014801     1.007825032230

  Basis Set: AUG-CC-PVTZ
    Blend: AUG-CC-PVTZ
  Basis Set: (AUG-CC-PVTZ AUX)
    Blend: AUG-CC-PVTZ-JKFIT
	 Reference Energy          =    -479.8960559802469561 [Eh]
	 Singles Energy            =      -0.0000000000000000 [Eh]
	 Same-Spin Energy          =      -0.5326851823196241 [Eh]
	 Opposite-Spin Energy      =      -1.7454464680608044 [Eh]
	 Correlation Energy        =      -2.2781316503804288 [Eh]
	 Total Energy              =    -482.1741876306273866 [Eh]

	 ================> DF-SCS-MP2 Energies <==================
	-----------------------------------------------------------
	 SCS Same-Spin Scale       =       0.3333333333333333 [-]
	 SCS Opposite-Spin Scale   =       1.2000000000000000 [-]
	 SCS Same-Spin Energy      =      -0.1775617274398747 [Eh]
	 SCS Opposite-Spin Energy  =      -2.0945357616729652 [Eh]
	 SCS Correlation Energy    =      -2.2720974891128400 [Eh]
	 SCS Total Energy          =    -482.1681534693598223 [Eh]
	-----------------------------------------------------------

  Dipole Moment: [D]
     X:     1.3247      Y:    -1.0882      Z:    -0.4920     Total:     1.7836

*** Psi4 exiting successfully. Buy a developer a beer!
