                               Psi4 1.4a3.dev225

  ==> Input File <==

--------------------------------------------------------------------------
#psi4
#
memory 32 gb

molecule  {
0 1
  N        1.0430420     0.8835120     0.3262100
  C       -2.6935940    -0.1236090    -0.2650160
  C       -0.3233616    -0.9853720     0.0387470
  C       -1.3683020    -0.3105490    -1.0112920
  C       -2.2166740     0.1783740     1.1559530
  C       -1.0996000    -0.8433070     1.3811970
  C       -3.6002280     0.9375310    -0.8724950
  C        0.9620280    -0.4146880    -0.0398380
  C        2.0893310    -1.1495780    -0.4236340
  C        3.3396130    -0.5322390    -0.4347340
  C        2.2533150     1.4653640     0.3147880
  C        3.4262710     0.8062240    -0.0568370
  H       -3.2284890    -1.0854330    -0.2500270
  H       -0.3333030    -2.0805640    -0.2540920
  H       -0.9618110     0.6780590    -1.2570810
  H       -1.4754410    -0.8694270    -1.9482280
  H       -3.0167220     0.1138590     1.9027270
  H       -1.8007770     1.1928100     1.1867420
  H       -0.3855780    -0.5294870     2.1482020
  H       -1.5277920    -1.8013410     1.6997400
  H       -3.8772320     0.6843320    -1.9011880
  H       -4.5228040     1.0497910    -0.2936460
  H       -3.0892320     1.9062640    -0.8879070
  H        1.9842510    -2.1936970    -0.7089060
  H        4.2276210    -1.0857940    -0.7310670
  H        2.2780980     2.5111560     0.6184940
  H        4.3773590     1.3311980    -0.0481150
units angstrom
no_reorient  #important for SAPT in psi4, default
symmetry c1  #important for SAPT in psi4, default
}

set PROPERTIES_ORIGIN ["COM"]
properties('MP2/aug-cc-pvtz', properties = ['dipole'])
--------------------------------------------------------------------------

    Molecular point group: c1
  Charge       = 0
  Multiplicity = 1
  Basis Set: AUG-CC-PVTZ
    Blend: AUG-CC-PVTZ
  Basis Set: (AUG-CC-PVTZ AUX)
    Blend: AUG-CC-PVTZ-JKFIT

    Orbital Energies [Eh]
    ---------------------

    Doubly Occupied:

       1A    -15.557667     2A    -11.274395     3A    -11.270904
       4A    -11.257956     5A    -11.236001     6A    -11.235165
       7A    -11.226068     8A    -11.215491     9A    -11.214427
      10A    -11.213341    11A    -11.206138    12A    -11.204585
      13A     -1.255129    14A     -1.124619    15A     -1.082246
      16A     -1.055517    17A     -0.991061    18A     -0.949705
      19A     -0.897637    20A     -0.857126    21A     -0.840648
      22A     -0.766525    23A     -0.754469    24A     -0.695369
      25A     -0.669421    26A     -0.643795    27A     -0.638356
      28A     -0.607417    29A     -0.583994    30A     -0.578039
      31A     -0.574162    32A     -0.552769    33A     -0.540343
      34A     -0.526829    35A     -0.514852    36A     -0.480059
      37A     -0.464731    38A     -0.460770    39A     -0.450394
      40A     -0.443586    41A     -0.436201    42A     -0.411515
      43A     -0.377111    44A     -0.328086

  @DF-RHF Final Energy:  -479.88370361286132

   => Energetics <=

    Nuclear Repulsion Energy =            686.4671961780420588
    One-Electron Energy =               -2011.3725561994167492
    Two-Electron Energy =                 845.0216564085134223
    Total Energy =                       -479.8837036128612681
  Basis Set: (AUG-CC-PVTZ AUX)
    Blend: AUG-CC-PVTZ-RI
    Molecular point group: c1

    Geometry (in Angstrom), charge = 0, multiplicity = 1:

       Center              X                  Y                   Z               Mass
    ------------   -----------------  -----------------  -----------------  -----------------
         N            0.966138698480     0.880222368413     0.318265690651    14.003074004430
         C           -2.770497301520    -0.126898631587    -0.272960309349    12.000000000000
         C           -0.400264901520    -0.988661631587     0.030802690651    12.000000000000
         C           -1.445205301520    -0.313838631587    -1.019236309349    12.000000000000
         C           -2.293577301520     0.175084368413     1.148008690651    12.000000000000
         C           -1.176503301520    -0.846596631587     1.373252690651    12.000000000000
         C           -3.677131301520     0.934241368413    -0.880439309349    12.000000000000
         C            0.885124698480    -0.417977631587    -0.047782309349    12.000000000000
         C            2.012427698480    -1.152867631587    -0.431578309349    12.000000000000
         C            3.262709698480    -0.535528631587    -0.442678309349    12.000000000000
         C            2.176411698480     1.462074368413     0.306843690651    12.000000000000
         C            3.349367698480     0.802934368413    -0.064781309349    12.000000000000
         H           -3.305392301520    -1.088722631587    -0.257971309349     1.007825032230
         H           -0.410206301520    -2.083853631587    -0.262036309349     1.007825032230
         H           -1.038714301520     0.674769368413    -1.265025309349     1.007825032230
         H           -1.552344301520    -0.872716631587    -1.956172309349     1.007825032230
         H           -3.093625301520     0.110569368413     1.894782690651     1.007825032230
         H           -1.877680301520     1.189520368413     1.178797690651     1.007825032230
         H           -0.462481301520    -0.532776631587     2.140257690651     1.007825032230
         H           -1.604695301520    -1.804630631587     1.691795690651     1.007825032230
         H           -3.954135301520     0.681042368413    -1.909132309349     1.007825032230
         H           -4.599707301520     1.046501368413    -0.301590309349     1.007825032230
         H           -3.166135301520     1.902974368413    -0.895851309349     1.007825032230
         H            1.907347698480    -2.196986631587    -0.716850309349     1.007825032230
         H            4.150717698480    -1.089083631587    -0.739011309349     1.007825032230
         H            2.201194698480     2.507866368413     0.610549690651     1.007825032230
         H            4.300455698480     1.327908368413    -0.056059309349     1.007825032230

  Basis Set: AUG-CC-PVTZ
    Blend: AUG-CC-PVTZ
  Basis Set: (AUG-CC-PVTZ AUX)
    Blend: AUG-CC-PVTZ-JKFIT
	 Reference Energy          =    -479.8837036128613249 [Eh]
	 Singles Energy            =      -0.0000000000000000 [Eh]
	 Same-Spin Energy          =      -0.5338954234666746 [Eh]
	 Opposite-Spin Energy      =      -1.7473314669105584 [Eh]
	 Correlation Energy        =      -2.2812268903772330 [Eh]
	 Total Energy              =    -482.1649305032385655 [Eh]

	 ================> DF-SCS-MP2 Energies <==================
	-----------------------------------------------------------
	 SCS Same-Spin Scale       =       0.3333333333333333 [-]
	 SCS Opposite-Spin Scale   =       1.2000000000000000 [-]
	 SCS Same-Spin Energy      =      -0.1779651411555582 [Eh]
	 SCS Opposite-Spin Energy  =      -2.0967977602926702 [Eh]
	 SCS Correlation Energy    =      -2.2747629014482285 [Eh]
	 SCS Total Energy          =    -482.1584665143095663 [Eh]
	-----------------------------------------------------------

  Dipole Moment: [D]
     X:     1.2552      Y:    -1.0500      Z:    -0.4870     Total:     1.7074

*** Psi4 exiting successfully. Buy a developer a beer!
