                               Psi4 1.4a3.dev225

  ==> Input File <==

--------------------------------------------------------------------------
#psi4
#
memory 32 gb

molecule  {
0 1
  N        1.0430420     0.8835120     0.3262100
  C       -2.6935940    -0.1236090    -0.2650160
  C       -0.4170680    -1.0145740    -0.0079460
  C       -1.3683020    -0.3105490    -1.0112920
  C       -2.2166740     0.1783740     1.1559530
  C       -1.0996000    -0.8433070     1.3811970
  C       -3.6002280     0.9375310    -0.8724950
  C        0.9620280    -0.4146880    -0.0398380
  C        2.0893310    -1.1495780    -0.4236340
  C        3.3396130    -0.5322390    -0.4347340
  C        2.2533150     1.4653640     0.3147880
  C        3.4262710     0.8062240    -0.0568370
  H       -3.2284890    -1.0854330    -0.2500270
  H       -0.3333030    -2.0805640    -0.2540920
  H       -0.9618110     0.6780590    -1.2570810
  H       -1.4754410    -0.8694270    -1.9482280
  H       -3.0167220     0.1138590     1.9027270
  H       -1.8007770     1.1928100     1.1867420
  H       -0.3855780    -0.5294870     2.1482020
  H       -1.5277920    -1.8013410     1.6997400
  H       -3.8772320     0.6843320    -1.9011880
  H       -4.5228040     1.0497910    -0.2936460
  H       -3.0892320     1.9062640    -0.8879070
  H        1.9939137    -2.0976840    -0.6826735
  H        4.2276210    -1.0857940    -0.7310670
  H        2.2780980     2.5111560     0.6184940
  H        4.3773590     1.3311980    -0.0481150
units angstrom
no_reorient  #important for SAPT in psi4, default
symmetry c1  #important for SAPT in psi4, default
}

set PROPERTIES_ORIGIN ["COM"]
properties('MP2/aug-cc-pvtz', properties = ['dipole'])
--------------------------------------------------------------------------

    Molecular point group: c1
  Charge       = 0
  Multiplicity = 1
  Basis Set: AUG-CC-PVTZ
    Blend: AUG-CC-PVTZ
  Basis Set: (AUG-CC-PVTZ AUX)
    Blend: AUG-CC-PVTZ-JKFIT

    Orbital Energies [Eh]
    ---------------------

    Doubly Occupied:

       1A    -15.557188     2A    -11.274500     3A    -11.273970
       4A    -11.257096     5A    -11.235206     6A    -11.226299
       7A    -11.223140     8A    -11.214636     9A    -11.211464
      10A    -11.209779    11A    -11.205261    12A    -11.203732
      13A     -1.251321    14A     -1.127562    15A     -1.083172
      16A     -1.047876    17A     -0.991999    18A     -0.955247
      19A     -0.893955    20A     -0.860242    21A     -0.837465
      22A     -0.764329    23A     -0.755682    24A     -0.702706
      25A     -0.668818    26A     -0.650382    27A     -0.639953
      28A     -0.610199    29A     -0.585544    30A     -0.578640
      31A     -0.574120    32A     -0.551930    33A     -0.538896
      34A     -0.528240    35A     -0.512312    36A     -0.473635
      37A     -0.469158    38A     -0.461149    39A     -0.452720
      40A     -0.447064    41A     -0.439660    42A     -0.409732
      43A     -0.376427    44A     -0.331704

  @DF-RHF Final Energy:  -479.89087021876958

   => Energetics <=

    Nuclear Repulsion Energy =            686.4154921680229791
    One-Electron Energy =               -2011.2845034339679842
    Two-Electron Energy =                 844.9781410471755407
    Total Energy =                       -479.8908702187695781
  Basis Set: (AUG-CC-PVTZ AUX)
    Blend: AUG-CC-PVTZ-RI
    Molecular point group: c1

    Geometry (in Angstrom), charge = 0, multiplicity = 1:

       Center              X                  Y                   Z               Mass
    ------------   -----------------  -----------------  -----------------  -----------------
         N            0.973057363942     0.881796716647     0.321579225534    14.003074004430
         C           -2.763578636058    -0.125324283353    -0.269646774466    12.000000000000
         C           -0.487052636058    -1.016289283353    -0.012576774466    12.000000000000
         C           -1.438286636058    -0.312264283353    -1.015922774466    12.000000000000
         C           -2.286658636058     0.176658716647     1.151322225534    12.000000000000
         C           -1.169584636058    -0.845022283353     1.376566225534    12.000000000000
         C           -3.670212636058     0.935815716647    -0.877125774466    12.000000000000
         C            0.892043363942    -0.416403283353    -0.044468774466    12.000000000000
         C            2.019346363942    -1.151293283353    -0.428264774466    12.000000000000
         C            3.269628363942    -0.533954283353    -0.439364774466    12.000000000000
         C            2.183330363942     1.463648716647     0.310157225534    12.000000000000
         C            3.356286363942     0.804508716647    -0.061467774466    12.000000000000
         H           -3.298473636058    -1.087148283353    -0.254657774466     1.007825032230
         H           -0.403287636058    -2.082279283353    -0.258722774466     1.007825032230
         H           -1.031795636058     0.676343716647    -1.261711774466     1.007825032230
         H           -1.545425636058    -0.871142283353    -1.952858774466     1.007825032230
         H           -3.086706636058     0.112143716647     1.898096225534     1.007825032230
         H           -1.870761636058     1.191094716647     1.182111225534     1.007825032230
         H           -0.455562636058    -0.531202283353     2.143571225534     1.007825032230
         H           -1.597776636058    -1.803056283353     1.695109225534     1.007825032230
         H           -3.947216636058     0.682616716647    -1.905818774466     1.007825032230
         H           -4.592788636058     1.048075716647    -0.298276774466     1.007825032230
         H           -3.159216636058     1.904548716647    -0.892537774466     1.007825032230
         H            1.923929063942    -2.099399283353    -0.687304274466     1.007825032230
         H            4.157636363942    -1.087509283353    -0.735697774466     1.007825032230
         H            2.208113363942     2.509440716647     0.613863225534     1.007825032230
         H            4.307374363942     1.329482716647    -0.052745774466     1.007825032230

  Basis Set: AUG-CC-PVTZ
    Blend: AUG-CC-PVTZ
  Basis Set: (AUG-CC-PVTZ AUX)
    Blend: AUG-CC-PVTZ-JKFIT
	 Reference Energy          =    -479.8908702187695781 [Eh]
	 Singles Energy            =      -0.0000000000000000 [Eh]
	 Same-Spin Energy          =      -0.5325860891243880 [Eh]
	 Opposite-Spin Energy      =      -1.7449578161615769 [Eh]
	 Correlation Energy        =      -2.2775439052859650 [Eh]
	 Total Energy              =    -482.1684141240555164 [Eh]

	 ================> DF-SCS-MP2 Energies <==================
	-----------------------------------------------------------
	 SCS Same-Spin Scale       =       0.3333333333333333 [-]
	 SCS Opposite-Spin Scale   =       1.2000000000000000 [-]
	 SCS Same-Spin Energy      =      -0.1775286963747960 [Eh]
	 SCS Opposite-Spin Energy  =      -2.0939493793938921 [Eh]
	 SCS Correlation Energy    =      -2.2714780757686883 [Eh]
	 SCS Total Energy          =    -482.1623482945382761 [Eh]
	-----------------------------------------------------------

  Dipole Moment: [D]
     X:     1.3235      Y:    -1.0935      Z:    -0.5005     Total:     1.7882

*** Psi4 exiting successfully. Buy a developer a beer!
