                               Psi4 1.4a3.dev225

  ==> Input File <==

--------------------------------------------------------------------------
#psi4
#
memory 32 gb

molecule  {
0 1
  N        1.0430420     0.8835120     0.3262100
  C       -2.6935940    -0.1236090    -0.2650160
  C       -0.4170680    -1.0145740    -0.0079460
  C       -1.2951941    -0.2813215    -0.8715452
  C       -2.2166740     0.1783740     1.1559530
  C       -1.0996000    -0.8433070     1.3811970
  C       -3.6002280     0.9375310    -0.8724950
  C        0.9620280    -0.4146880    -0.0398380
  C        2.0893310    -1.1495780    -0.4236340
  C        3.3396130    -0.5322390    -0.4347340
  C        2.2533150     1.4653640     0.3147880
  C        3.4262710     0.8062240    -0.0568370
  H       -3.2284890    -1.0854330    -0.2500270
  H       -0.3333030    -2.0805640    -0.2540920
  H       -0.9618110     0.6780590    -1.2570810
  H       -1.4754410    -0.8694270    -1.9482280
  H       -3.0167220     0.1138590     1.9027270
  H       -1.8007770     1.1928100     1.1867420
  H       -0.3855780    -0.5294870     2.1482020
  H       -1.5277920    -1.8013410     1.6997400
  H       -3.8772320     0.6843320    -1.9011880
  H       -4.5228040     1.0497910    -0.2936460
  H       -3.0892320     1.9062640    -0.8879070
  H        1.9842510    -2.1936970    -0.7089060
  H        4.2276210    -1.0857940    -0.7310670
  H        2.2780980     2.5111560     0.6184940
  H        4.3773590     1.3311980    -0.0481150
units angstrom
no_reorient  #important for SAPT in psi4, default
symmetry c1  #important for SAPT in psi4, default
}

set PROPERTIES_ORIGIN ["COM"]
properties('MP2/aug-cc-pvtz', properties = ['dipole'])
--------------------------------------------------------------------------

    Molecular point group: c1
  Charge       = 0
  Multiplicity = 1
  Basis Set: AUG-CC-PVTZ
    Blend: AUG-CC-PVTZ
  Basis Set: (AUG-CC-PVTZ AUX)
    Blend: AUG-CC-PVTZ-JKFIT

    Orbital Energies [Eh]
    ---------------------

    Doubly Occupied:

       1A    -15.559288     2A    -11.276625     3A    -11.275394
       4A    -11.258833     5A    -11.236874     6A    -11.236241
       7A    -11.222602     8A    -11.216042     9A    -11.215088
      10A    -11.212076    11A    -11.207567    12A    -11.203156
      13A     -1.254045    14A     -1.142667    15A     -1.082915
      16A     -1.049484    17A     -0.994628    18A     -0.958962
      19A     -0.894100    20A     -0.856652    21A     -0.837983
      22A     -0.766332    23A     -0.753960    24A     -0.700517
      25A     -0.667937    26A     -0.646143    27A     -0.638369
      28A     -0.614105    29A     -0.591521    30A     -0.576298
      31A     -0.575298    32A     -0.551165    33A     -0.538714
      34A     -0.524884    35A     -0.515967    36A     -0.490898
      37A     -0.471135    38A     -0.457256    39A     -0.452545
      40A     -0.443743    41A     -0.417864    42A     -0.408461
      43A     -0.377361    44A     -0.334108

  @DF-RHF Final Energy:  -479.86918138267998

   => Energetics <=

    Nuclear Repulsion Energy =            688.5279817395564805
    One-Electron Energy =               -2015.3827178259800803
    Two-Electron Energy =                 846.9855547037435599
    Total Energy =                       -479.8691813826800399
  Basis Set: (AUG-CC-PVTZ AUX)
    Blend: AUG-CC-PVTZ-RI
    Molecular point group: c1

    Geometry (in Angstrom), charge = 0, multiplicity = 1:

       Center              X                  Y                   Z               Mass
    ------------   -----------------  -----------------  -----------------  -----------------
         N            0.967672842661     0.880220469212     0.311335188635    14.003074004430
         C           -2.768963157339    -0.126900530788    -0.279890811365    12.000000000000
         C           -0.492437157339    -1.017865530788    -0.022820811365    12.000000000000
         C           -1.370563257339    -0.284613030788    -0.886420011365    12.000000000000
         C           -2.292043157339     0.175082469212     1.141078188635    12.000000000000
         C           -1.174969157339    -0.846598530788     1.366322188635    12.000000000000
         C           -3.675597157339     0.934239469212    -0.887369811365    12.000000000000
         C            0.886658842661    -0.417979530788    -0.054712811365    12.000000000000
         C            2.013961842661    -1.152869530788    -0.438508811365    12.000000000000
         C            3.264243842661    -0.535530530788    -0.449608811365    12.000000000000
         C            2.177945842661     1.462072469212     0.299913188635    12.000000000000
         C            3.350901842661     0.802932469212    -0.071711811365    12.000000000000
         H           -3.303858157339    -1.088724530788    -0.264901811365     1.007825032230
         H           -0.408672157339    -2.083855530788    -0.268966811365     1.007825032230
         H           -1.037180157339     0.674767469212    -1.271955811365     1.007825032230
         H           -1.550810157339    -0.872718530788    -1.963102811365     1.007825032230
         H           -3.092091157339     0.110567469212     1.887852188635     1.007825032230
         H           -1.876146157339     1.189518469212     1.171867188635     1.007825032230
         H           -0.460947157339    -0.532778530788     2.133327188635     1.007825032230
         H           -1.603161157339    -1.804632530788     1.684865188635     1.007825032230
         H           -3.952601157339     0.681040469212    -1.916062811365     1.007825032230
         H           -4.598173157339     1.046499469212    -0.308520811365     1.007825032230
         H           -3.164601157339     1.902972469212    -0.902781811365     1.007825032230
         H            1.908881842661    -2.196988530788    -0.723780811365     1.007825032230
         H            4.152251842661    -1.089085530788    -0.745941811365     1.007825032230
         H            2.202728842661     2.507864469212     0.603619188635     1.007825032230
         H            4.301989842661     1.327906469212    -0.062989811365     1.007825032230

  Basis Set: AUG-CC-PVTZ
    Blend: AUG-CC-PVTZ
  Basis Set: (AUG-CC-PVTZ AUX)
    Blend: AUG-CC-PVTZ-JKFIT
	 Reference Energy          =    -479.8691813826799830 [Eh]
	 Singles Energy            =      -0.0000000000000000 [Eh]
	 Same-Spin Energy          =      -0.5345717905940511 [Eh]
	 Opposite-Spin Energy      =      -1.7479080656054464 [Eh]
	 Correlation Energy        =      -2.2824798561994974 [Eh]
	 Total Energy              =    -482.1516612388794556 [Eh]

	 ================> DF-SCS-MP2 Energies <==================
	-----------------------------------------------------------
	 SCS Same-Spin Scale       =       0.3333333333333333 [-]
	 SCS Opposite-Spin Scale   =       1.2000000000000000 [-]
	 SCS Same-Spin Energy      =      -0.1781905968646837 [Eh]
	 SCS Opposite-Spin Energy  =      -2.0974896787265358 [Eh]
	 SCS Correlation Energy    =      -2.2756802755912195 [Eh]
	 SCS Total Energy          =    -482.1448616582712248 [Eh]
	-----------------------------------------------------------

  Dipole Moment: [D]
     X:     1.3840      Y:    -0.9792      Z:    -0.3761     Total:     1.7366

*** Psi4 exiting successfully. Buy a developer a beer!
