                               Psi4 1.4a3.dev225

  ==> Input File <==

--------------------------------------------------------------------------
#psi4
#
memory 32 gb

molecule  {
0 1
  N        1.0197324     0.8837441     0.3297861
  C       -2.6935940    -0.1236090    -0.2650160
  C       -0.4170680    -1.0145740    -0.0079460
  C       -1.3683020    -0.3105490    -1.0112920
  C       -2.2166740     0.1783740     1.1559530
  C       -1.0996000    -0.8433070     1.3811970
  C       -3.6002280     0.9375310    -0.8724950
  C        0.9620280    -0.4146880    -0.0398380
  C        2.0893310    -1.1495780    -0.4236340
  C        3.3396130    -0.5322390    -0.4347340
  C        2.2533150     1.4653640     0.3147880
  C        3.4262710     0.8062240    -0.0568370
  H       -3.2284890    -1.0854330    -0.2500270
  H       -0.3333030    -2.0805640    -0.2540920
  H       -0.9618110     0.6780590    -1.2570810
  H       -1.4754410    -0.8694270    -1.9482280
  H       -3.0167220     0.1138590     1.9027270
  H       -1.8007770     1.1928100     1.1867420
  H       -0.3855780    -0.5294870     2.1482020
  H       -1.5277920    -1.8013410     1.6997400
  H       -3.8772320     0.6843320    -1.9011880
  H       -4.5228040     1.0497910    -0.2936460
  H       -3.0892320     1.9062640    -0.8879070
  H        1.9842510    -2.1936970    -0.7089060
  H        4.2276210    -1.0857940    -0.7310670
  H        2.2780980     2.5111560     0.6184940
  H        4.3773590     1.3311980    -0.0481150
units angstrom
no_reorient  #important for SAPT in psi4, default
symmetry c1  #important for SAPT in psi4, default
}

set PROPERTIES_ORIGIN ["COM"]
properties('MP2/aug-cc-pvtz', properties = ['dipole'])
--------------------------------------------------------------------------

    Molecular point group: c1
  Charge       = 0
  Multiplicity = 1
  Basis Set: AUG-CC-PVTZ
    Blend: AUG-CC-PVTZ
  Basis Set: (AUG-CC-PVTZ AUX)
    Blend: AUG-CC-PVTZ-JKFIT

    Orbital Energies [Eh]
    ---------------------

    Doubly Occupied:

       1A    -15.560883     2A    -11.276883     3A    -11.275387
       4A    -11.259011     5A    -11.236825     6A    -11.235611
       7A    -11.225443     8A    -11.214282     9A    -11.211013
      10A    -11.209314    11A    -11.204998    12A    -11.203312
      13A     -1.247820    14A     -1.126843    15A     -1.082458
      16A     -1.045185    17A     -0.990980    18A     -0.954497
      19A     -0.893464    20A     -0.856486    21A     -0.834777
      22A     -0.763332    23A     -0.755232    24A     -0.696200
      25A     -0.667708    26A     -0.640955    27A     -0.639277
      28A     -0.607807    29A     -0.584549    30A     -0.576994
      31A     -0.573763    32A     -0.551455    33A     -0.536809
      34A     -0.525853    35A     -0.510875    36A     -0.472838
      37A     -0.468488    38A     -0.460746    39A     -0.451900
      40A     -0.446670    41A     -0.439390    42A     -0.413559
      43A     -0.375856    44A     -0.332858

  @DF-RHF Final Energy:  -479.89465073607431

   => Energetics <=

    Nuclear Repulsion Energy =            685.6815530726067891
    One-Electron Energy =               -2009.8752396617678642
    Two-Electron Energy =                 844.2990358530869344
    Total Energy =                       -479.8946507360742544
  Basis Set: (AUG-CC-PVTZ AUX)
    Blend: AUG-CC-PVTZ-RI
    Molecular point group: c1

    Geometry (in Angstrom), charge = 0, multiplicity = 1:

       Center              X                  Y                   Z               Mass
    ------------   -----------------  -----------------  -----------------  -----------------
         N            0.951834056314     0.882609215918     0.325008611552    14.003074004430
         C           -2.761492343686    -0.124743884082    -0.269793488448    12.000000000000
         C           -0.484966343686    -1.015708884082    -0.012723488448    12.000000000000
         C           -1.436200343686    -0.311683884082    -1.016069488448    12.000000000000
         C           -2.284572343686     0.177239115918     1.151175511552    12.000000000000
         C           -1.167498343686    -0.844441884082     1.376419511552    12.000000000000
         C           -3.668126343686     0.936396115918    -0.877272488448    12.000000000000
         C            0.894129656314    -0.415822884082    -0.044615488448    12.000000000000
         C            2.021432656314    -1.150712884082    -0.428411488448    12.000000000000
         C            3.271714656314    -0.533373884082    -0.439511488448    12.000000000000
         C            2.185416656314     1.464229115918     0.310010511552    12.000000000000
         C            3.358372656314     0.805089115918    -0.061614488448    12.000000000000
         H           -3.296387343686    -1.086567884082    -0.254804488448     1.007825032230
         H           -0.401201343686    -2.081698884082    -0.258869488448     1.007825032230
         H           -1.029709343686     0.676924115918    -1.261858488448     1.007825032230
         H           -1.543339343686    -0.870561884082    -1.953005488448     1.007825032230
         H           -3.084620343686     0.112724115918     1.897949511552     1.007825032230
         H           -1.868675343686     1.191675115918     1.181964511552     1.007825032230
         H           -0.453476343686    -0.530621884082     2.143424511552     1.007825032230
         H           -1.595690343686    -1.802475884082     1.694962511552     1.007825032230
         H           -3.945130343686     0.683197115918    -1.905965488448     1.007825032230
         H           -4.590702343686     1.048656115918    -0.298423488448     1.007825032230
         H           -3.157130343686     1.905129115918    -0.892684488448     1.007825032230
         H            1.916352656314    -2.194831884082    -0.713683488448     1.007825032230
         H            4.159722656314    -1.086928884082    -0.735844488448     1.007825032230
         H            2.210199656314     2.510021115918     0.613716511552     1.007825032230
         H            4.309460656314     1.330063115918    -0.052892488448     1.007825032230

  Basis Set: AUG-CC-PVTZ
    Blend: AUG-CC-PVTZ
  Basis Set: (AUG-CC-PVTZ AUX)
    Blend: AUG-CC-PVTZ-JKFIT
	 Reference Energy          =    -479.8946507360743112 [Eh]
	 Singles Energy            =      -0.0000000000000000 [Eh]
	 Same-Spin Energy          =      -0.5330534933171680 [Eh]
	 Opposite-Spin Energy      =      -1.7463928160020750 [Eh]
	 Correlation Energy        =      -2.2794463093192432 [Eh]
	 Total Energy              =    -482.1740970453935802 [Eh]

	 ================> DF-SCS-MP2 Energies <==================
	-----------------------------------------------------------
	 SCS Same-Spin Scale       =       0.3333333333333333 [-]
	 SCS Opposite-Spin Scale   =       1.2000000000000000 [-]
	 SCS Same-Spin Energy      =      -0.1776844977723893 [Eh]
	 SCS Opposite-Spin Energy  =      -2.0956713792024897 [Eh]
	 SCS Correlation Energy    =      -2.2733558769748790 [Eh]
	 SCS Total Energy          =    -482.1680066130492150 [Eh]
	-----------------------------------------------------------

  Dipole Moment: [D]
     X:     1.3875      Y:    -1.0714      Z:    -0.5031     Total:     1.8237

*** Psi4 exiting successfully. Buy a developer a beer!
