                               Psi4 1.4a3.dev225

  ==> Input File <==

--------------------------------------------------------------------------
#psi4
#
memory 32 gb

molecule  {
0 1
  N        0.9964052     0.8835806     0.3332497
  C       -2.6935940    -0.1236090    -0.2650160
  C       -0.4170680    -1.0145740    -0.0079460
  C       -1.3683020    -0.3105490    -1.0112920
  C       -2.2166740     0.1783740     1.1559530
  C       -1.0996000    -0.8433070     1.3811970
  C       -3.6002280     0.9375310    -0.8724950
  C        0.9620280    -0.4146880    -0.0398380
  C        2.0893310    -1.1495780    -0.4236340
  C        3.3396130    -0.5322390    -0.4347340
  C        2.2533150     1.4653640     0.3147880
  C        3.4262710     0.8062240    -0.0568370
  H       -3.2284890    -1.0854330    -0.2500270
  H       -0.3333030    -2.0805640    -0.2540920
  H       -0.9618110     0.6780590    -1.2570810
  H       -1.4754410    -0.8694270    -1.9482280
  H       -3.0167220     0.1138590     1.9027270
  H       -1.8007770     1.1928100     1.1867420
  H       -0.3855780    -0.5294870     2.1482020
  H       -1.5277920    -1.8013410     1.6997400
  H       -3.8772320     0.6843320    -1.9011880
  H       -4.5228040     1.0497910    -0.2936460
  H       -3.0892320     1.9062640    -0.8879070
  H        1.9842510    -2.1936970    -0.7089060
  H        4.2276210    -1.0857940    -0.7310670
  H        2.2780980     2.5111560     0.6184940
  H        4.3773590     1.3311980    -0.0481150
units angstrom
no_reorient  #important for SAPT in psi4, default
symmetry c1  #important for SAPT in psi4, default
}

set PROPERTIES_ORIGIN ["COM"]
properties('MP2/aug-cc-pvtz', properties = ['dipole'])
--------------------------------------------------------------------------

    Molecular point group: c1
  Charge       = 0
  Multiplicity = 1
  Basis Set: AUG-CC-PVTZ
    Blend: AUG-CC-PVTZ
  Basis Set: (AUG-CC-PVTZ AUX)
    Blend: AUG-CC-PVTZ-JKFIT

    Orbital Energies [Eh]
    ---------------------

    Doubly Occupied:

       1A    -15.563676     2A    -11.279316     3A    -11.275475
       4A    -11.260058     5A    -11.237750     6A    -11.236123
       7A    -11.224756     8A    -11.213969     9A    -11.210633
      10A    -11.208921    11A    -11.204759    12A    -11.202922
      13A     -1.244028    14A     -1.126164    15A     -1.083109
      16A     -1.043822    17A     -0.990753    18A     -0.954206
      19A     -0.893150    20A     -0.857797    21A     -0.832804
      22A     -0.762277    23A     -0.754843    24A     -0.695705
      25A     -0.667256    26A     -0.641257    27A     -0.638467
      28A     -0.607654    29A     -0.584150    30A     -0.576522
      31A     -0.573474    32A     -0.551131    33A     -0.535645
      34A     -0.524606    35A     -0.509829    36A     -0.472588
      37A     -0.468022    38A     -0.460461    39A     -0.451088
      40A     -0.446320    41A     -0.439276    42A     -0.416733
      43A     -0.374788    44A     -0.333542

  @DF-RHF Final Energy:  -479.89174533055279

   => Energetics <=

    Nuclear Repulsion Energy =            685.5131347144283609
    One-Electron Energy =               -2009.5501108651376398
    Two-Electron Energy =                 844.1452308201564847
    Total Energy =                       -479.8917453305527943
  Basis Set: (AUG-CC-PVTZ AUX)
    Blend: AUG-CC-PVTZ-RI
    Molecular point group: c1

    Geometry (in Angstrom), charge = 0, multiplicity = 1:

       Center              X                  Y                   Z               Mass
    ------------   -----------------  -----------------  -----------------  -----------------
         N            0.930534237127     0.882459925800     0.328171188018    14.003074004430
         C           -2.759464962873    -0.124729674200    -0.270094511982    12.000000000000
         C           -0.482938962873    -1.015694674200    -0.013024511982    12.000000000000
         C           -1.434172962873    -0.311669674200    -1.016370511982    12.000000000000
         C           -2.282544962873     0.177253325800     1.150874488018    12.000000000000
         C           -1.165470962873    -0.844427674200     1.376118488018    12.000000000000
         C           -3.666098962873     0.936410325800    -0.877573511982    12.000000000000
         C            0.896157037127    -0.415808674200    -0.044916511982    12.000000000000
         C            2.023460037127    -1.150698674200    -0.428712511982    12.000000000000
         C            3.273742037127    -0.533359674200    -0.439812511982    12.000000000000
         C            2.187444037127     1.464243325800     0.309709488018    12.000000000000
         C            3.360400037127     0.805103325800    -0.061915511982    12.000000000000
         H           -3.294359962873    -1.086553674200    -0.255105511982     1.007825032230
         H           -0.399173962873    -2.081684674200    -0.259170511982     1.007825032230
         H           -1.027681962873     0.676938325800    -1.262159511982     1.007825032230
         H           -1.541311962873    -0.870547674200    -1.953306511982     1.007825032230
         H           -3.082592962873     0.112738325800     1.897648488018     1.007825032230
         H           -1.866647962873     1.191689325800     1.181663488018     1.007825032230
         H           -0.451448962873    -0.530607674200     2.143123488018     1.007825032230
         H           -1.593662962873    -1.802461674200     1.694661488018     1.007825032230
         H           -3.943102962873     0.683211325800    -1.906266511982     1.007825032230
         H           -4.588674962873     1.048670325800    -0.298724511982     1.007825032230
         H           -3.155102962873     1.905143325800    -0.892985511982     1.007825032230
         H            1.918380037127    -2.194817674200    -0.713984511982     1.007825032230
         H            4.161750037127    -1.086914674200    -0.736145511982     1.007825032230
         H            2.212227037127     2.510035325800     0.613415488018     1.007825032230
         H            4.311488037127     1.330077325800    -0.053193511982     1.007825032230

  Basis Set: AUG-CC-PVTZ
    Blend: AUG-CC-PVTZ
  Basis Set: (AUG-CC-PVTZ AUX)
    Blend: AUG-CC-PVTZ-JKFIT
	 Reference Energy          =    -479.8917453305527943 [Eh]
	 Singles Energy            =      -0.0000000000000000 [Eh]
	 Same-Spin Energy          =      -0.5333364800515119 [Eh]
	 Opposite-Spin Energy      =      -1.7473126296524621 [Eh]
	 Correlation Energy        =      -2.2806491097039743 [Eh]
	 Total Energy              =    -482.1723944402567668 [Eh]

	 ================> DF-SCS-MP2 Energies <==================
	-----------------------------------------------------------
	 SCS Same-Spin Scale       =       0.3333333333333333 [-]
	 SCS Opposite-Spin Scale   =       1.2000000000000000 [-]
	 SCS Same-Spin Energy      =      -0.1777788266838373 [Eh]
	 SCS Opposite-Spin Energy  =      -2.0967751555829546 [Eh]
	 SCS Correlation Energy    =      -2.2745539822667920 [Eh]
	 SCS Total Energy          =    -482.1662993128196035 [Eh]
	-----------------------------------------------------------

  Dipole Moment: [D]
     X:     1.4406      Y:    -1.0722      Z:    -0.5107     Total:     1.8670

*** Psi4 exiting successfully. Buy a developer a beer!
