                               Psi4 1.4a3.dev225

  ==> Input File <==

--------------------------------------------------------------------------
#psi4
#
memory 32 gb

molecule  {
0 1
  N        1.0430420     0.8835120     0.3262100
  C       -2.6935940    -0.1236090    -0.2650160
  C       -0.4170680    -1.0145740    -0.0079460
  C       -1.3683020    -0.3105490    -1.0112920
  C       -2.2166740     0.1783740     1.1559530
  C       -1.0996000    -0.8433070     1.3811970
  C       -3.6002280     0.9375310    -0.8724950
  C        0.9620280    -0.4146880    -0.0398380
  C        2.0893310    -1.1495780    -0.4236340
  C        3.3396130    -0.5322390    -0.4347340
  C        2.2533150     1.4653640     0.3147880
  C        3.4262710     0.8062240    -0.0568370
  H       -3.2284890    -1.0854330    -0.2500270
  H       -0.3333030    -2.0805640    -0.2540920
  H       -0.9618110     0.6780590    -1.2570810
  H       -1.4754410    -0.8694270    -1.9482280
  H       -3.0167220     0.1138590     1.9027270
  H       -1.8386957     1.1003206     1.1839349
  H       -0.3855780    -0.5294870     2.1482020
  H       -1.5277920    -1.8013410     1.6997400
  H       -3.8772320     0.6843320    -1.9011880
  H       -4.5228040     1.0497910    -0.2936460
  H       -3.0892320     1.9062640    -0.8879070
  H        1.9842510    -2.1936970    -0.7089060
  H        4.2276210    -1.0857940    -0.7310670
  H        2.2780980     2.5111560     0.6184940
  H        4.3773590     1.3311980    -0.0481150
units angstrom
no_reorient  #important for SAPT in psi4, default
symmetry c1  #important for SAPT in psi4, default
}

set PROPERTIES_ORIGIN ["COM"]
properties('MP2/aug-cc-pvtz', properties = ['dipole'])
--------------------------------------------------------------------------

    Molecular point group: c1
  Charge       = 0
  Multiplicity = 1
  Basis Set: AUG-CC-PVTZ
    Blend: AUG-CC-PVTZ
  Basis Set: (AUG-CC-PVTZ AUX)
    Blend: AUG-CC-PVTZ-JKFIT

    Orbital Energies [Eh]
    ---------------------

    Doubly Occupied:

       1A    -15.558187     2A    -11.275344     3A    -11.274457
       4A    -11.257984     5A    -11.235913     6A    -11.235095
       7A    -11.225892     8A    -11.213720     9A    -11.210502
      10A    -11.209550    11A    -11.205293    12A    -11.191365
      13A     -1.251962    14A     -1.128678    15A     -1.081919
      16A     -1.046986    17A     -0.991180    18A     -0.958378
      19A     -0.894273    20A     -0.855366    21A     -0.838828
      22A     -0.769684    23A     -0.757862    24A     -0.696850
      25A     -0.667982    26A     -0.640580    27A     -0.640437
      28A     -0.609889    29A     -0.584954    30A     -0.582484
      31A     -0.574008    32A     -0.551879    33A     -0.539722
      34A     -0.527478    35A     -0.514331    36A     -0.472913
      37A     -0.468980    38A     -0.461235    39A     -0.456271
      40A     -0.448206    41A     -0.438783    42A     -0.410445
      43A     -0.377068    44A     -0.332106

  @DF-RHF Final Energy:  -479.89090504796957

   => Energetics <=

    Nuclear Repulsion Energy =            686.3295813996014658
    One-Electron Energy =               -2011.1109357893567449
    Two-Electron Energy =                 844.8904493417857111
    Total Energy =                       -479.8909050479695679
  Basis Set: (AUG-CC-PVTZ AUX)
    Blend: AUG-CC-PVTZ-RI
    Molecular point group: c1

    Geometry (in Angstrom), charge = 0, multiplicity = 1:

       Center              X                  Y                   Z               Mass
    ------------   -----------------  -----------------  -----------------  -----------------
         N            0.973354990507     0.882975818604     0.321760871228    14.003074004430
         C           -2.763281009493    -0.124145181396    -0.269465128772    12.000000000000
         C           -0.486755009493    -1.015110181396    -0.012395128772    12.000000000000
         C           -1.437989009493    -0.311085181396    -1.015741128772    12.000000000000
         C           -2.286361009493     0.177837818604     1.151503871228    12.000000000000
         C           -1.169287009493    -0.843843181396     1.376747871228    12.000000000000
         C           -3.669915009493     0.936994818604    -0.876944128772    12.000000000000
         C            0.892340990507    -0.415224181396    -0.044287128772    12.000000000000
         C            2.019643990507    -1.150114181396    -0.428083128772    12.000000000000
         C            3.269925990507    -0.532775181396    -0.439183128772    12.000000000000
         C            2.183627990507     1.464827818604     0.310338871228    12.000000000000
         C            3.356583990507     0.805687818604    -0.061286128772    12.000000000000
         H           -3.298176009493    -1.085969181396    -0.254476128772     1.007825032230
         H           -0.402990009493    -2.081100181396    -0.258541128772     1.007825032230
         H           -1.031498009493     0.677522818604    -1.261530128772     1.007825032230
         H           -1.545128009493    -0.869963181396    -1.952677128772     1.007825032230
         H           -3.086409009493     0.113322818604     1.898277871228     1.007825032230
         H           -1.908382709493     1.099784418604     1.179485771228     1.007825032230
         H           -0.455265009493    -0.530023181396     2.143752871228     1.007825032230
         H           -1.597479009493    -1.801877181396     1.695290871228     1.007825032230
         H           -3.946919009493     0.683795818604    -1.905637128772     1.007825032230
         H           -4.592491009493     1.049254818604    -0.298095128772     1.007825032230
         H           -3.158919009493     1.905727818604    -0.892356128772     1.007825032230
         H            1.914563990507    -2.194233181396    -0.713355128772     1.007825032230
         H            4.157933990507    -1.086330181396    -0.735516128772     1.007825032230
         H            2.208410990507     2.510619818604     0.614044871228     1.007825032230
         H            4.307671990507     1.330661818604    -0.052564128772     1.007825032230

  Basis Set: AUG-CC-PVTZ
    Blend: AUG-CC-PVTZ
  Basis Set: (AUG-CC-PVTZ AUX)
    Blend: AUG-CC-PVTZ-JKFIT
	 Reference Energy          =    -479.8909050479695679 [Eh]
	 Singles Energy            =      -0.0000000000000000 [Eh]
	 Same-Spin Energy          =      -0.5326778186308303 [Eh]
	 Opposite-Spin Energy      =      -1.7449285731966313 [Eh]
	 Correlation Energy        =      -2.2776063918274616 [Eh]
	 Total Energy              =    -482.1685114397970437 [Eh]

	 ================> DF-SCS-MP2 Energies <==================
	-----------------------------------------------------------
	 SCS Same-Spin Scale       =       0.3333333333333333 [-]
	 SCS Opposite-Spin Scale   =       1.2000000000000000 [-]
	 SCS Same-Spin Energy      =      -0.1775592728769434 [Eh]
	 SCS Opposite-Spin Energy  =      -2.0939142878359576 [Eh]
	 SCS Correlation Energy    =      -2.2714735607129009 [Eh]
	 SCS Total Energy          =    -482.1623786086824452 [Eh]
	-----------------------------------------------------------

  Dipole Moment: [D]
     X:     1.3324      Y:    -1.0281      Z:    -0.4882     Total:     1.7523

*** Psi4 exiting successfully. Buy a developer a beer!
