                               Psi4 1.4a3.dev225

  ==> Input File <==

--------------------------------------------------------------------------
#psi4
#
memory 32 gb

molecule  {
0 1
  N        1.0430420     0.8835120     0.3262100
  C       -2.6935940    -0.1236090    -0.2650160
  C       -0.4170680    -1.0145740    -0.0079460
  C       -1.3683020    -0.3105490    -1.0112920
  C       -2.2166740     0.1783740     1.1559530
  C       -1.0996000    -0.8433070     1.3811970
  C       -3.6002280     0.9375310    -0.8724950
  C        0.9346515    -0.4544641    -0.0471947
  C        2.0893310    -1.1495780    -0.4236340
  C        3.3396130    -0.5322390    -0.4347340
  C        2.2533150     1.4653640     0.3147880
  C        3.4262710     0.8062240    -0.0568370
  H       -3.2284890    -1.0854330    -0.2500270
  H       -0.3333030    -2.0805640    -0.2540920
  H       -0.9618110     0.6780590    -1.2570810
  H       -1.4754410    -0.8694270    -1.9482280
  H       -3.0167220     0.1138590     1.9027270
  H       -1.8007770     1.1928100     1.1867420
  H       -0.3855780    -0.5294870     2.1482020
  H       -1.5277920    -1.8013410     1.6997400
  H       -3.8772320     0.6843320    -1.9011880
  H       -4.5228040     1.0497910    -0.2936460
  H       -3.0892320     1.9062640    -0.8879070
  H        1.9842510    -2.1936970    -0.7089060
  H        4.2276210    -1.0857940    -0.7310670
  H        2.2780980     2.5111560     0.6184940
  H        4.3773590     1.3311980    -0.0481150
units angstrom
no_reorient  #important for SAPT in psi4, default
symmetry c1  #important for SAPT in psi4, default
}

set PROPERTIES_ORIGIN ["COM"]
properties('MP2/aug-cc-pvtz', properties = ['dipole'])
--------------------------------------------------------------------------

    Molecular point group: c1
  Charge       = 0
  Multiplicity = 1
  Basis Set: AUG-CC-PVTZ
    Blend: AUG-CC-PVTZ
  Basis Set: (AUG-CC-PVTZ AUX)
    Blend: AUG-CC-PVTZ-JKFIT

    Orbital Energies [Eh]
    ---------------------

    Doubly Occupied:

       1A    -15.559086     2A    -11.277662     3A    -11.273432
       4A    -11.257756     5A    -11.235495     6A    -11.235152
       7A    -11.225851     8A    -11.215581     9A    -11.213052
      10A    -11.211364    11A    -11.205928    12A    -11.204590
      13A     -1.240730    14A     -1.130345    15A     -1.078242
      16A     -1.050209    17A     -0.991575    18A     -0.956765
      19A     -0.896787    20A     -0.852290    21A     -0.835821
      22A     -0.766798    23A     -0.756977    24A     -0.694816
      25A     -0.669596    26A     -0.642128    27A     -0.637162
      28A     -0.608967    29A     -0.584751    30A     -0.578177
      31A     -0.573876    32A     -0.552256    33A     -0.534713
      34A     -0.525180    35A     -0.513051    36A     -0.476329
      37A     -0.471033    38A     -0.462344    39A     -0.454622
      40A     -0.448696    41A     -0.440535    42A     -0.407613
      43A     -0.373630    44A     -0.329852

  @DF-RHF Final Energy:  -479.89139791304433

   => Energetics <=

    Nuclear Repulsion Energy =            685.6509853206010803
    One-Electron Energy =               -2009.7831426335787910
    Two-Electron Energy =                 844.2407593999332676
    Total Energy =                       -479.8913979130443295
  Basis Set: (AUG-CC-PVTZ AUX)
    Blend: AUG-CC-PVTZ-RI
    Molecular point group: c1

    Geometry (in Angstrom), charge = 0, multiplicity = 1:

       Center              X                  Y                   Z               Mass
    ------------   -----------------  -----------------  -----------------  -----------------
         N            0.975156764186     0.885359749810     0.322291228080    14.003074004430
         C           -2.761479235814    -0.121761250190    -0.268934771920    12.000000000000
         C           -0.484953235814    -1.012726250190    -0.011864771920    12.000000000000
         C           -1.436187235814    -0.308701250190    -1.015210771920    12.000000000000
         C           -2.284559235814     0.180221749810     1.152034228080    12.000000000000
         C           -1.167485235814    -0.841459250190     1.377278228080    12.000000000000
         C           -3.668113235814     0.939378749810    -0.876413771920    12.000000000000
         C            0.866766264186    -0.452616350190    -0.051113471920    12.000000000000
         C            2.021445764186    -1.147730250190    -0.427552771920    12.000000000000
         C            3.271727764186    -0.530391250190    -0.438652771920    12.000000000000
         C            2.185429764186     1.467211749810     0.310869228080    12.000000000000
         C            3.358385764186     0.808071749810    -0.060755771920    12.000000000000
         H           -3.296374235814    -1.083585250190    -0.253945771920     1.007825032230
         H           -0.401188235814    -2.078716250190    -0.258010771920     1.007825032230
         H           -1.029696235814     0.679906749810    -1.260999771920     1.007825032230
         H           -1.543326235814    -0.867579250190    -1.952146771920     1.007825032230
         H           -3.084607235814     0.115706749810     1.898808228080     1.007825032230
         H           -1.868662235814     1.194657749810     1.182823228080     1.007825032230
         H           -0.453463235814    -0.527639250190     2.144283228080     1.007825032230
         H           -1.595677235814    -1.799493250190     1.695821228080     1.007825032230
         H           -3.945117235814     0.686179749810    -1.905106771920     1.007825032230
         H           -4.590689235814     1.051638749810    -0.297564771920     1.007825032230
         H           -3.157117235814     1.908111749810    -0.891825771920     1.007825032230
         H            1.916365764186    -2.191849250190    -0.712824771920     1.007825032230
         H            4.159735764186    -1.083946250190    -0.734985771920     1.007825032230
         H            2.210212764186     2.513003749810     0.614575228080     1.007825032230
         H            4.309473764186     1.333045749810    -0.052033771920     1.007825032230

  Basis Set: AUG-CC-PVTZ
    Blend: AUG-CC-PVTZ
  Basis Set: (AUG-CC-PVTZ AUX)
    Blend: AUG-CC-PVTZ-JKFIT
	 Reference Energy          =    -479.8913979130443295 [Eh]
	 Singles Energy            =      -0.0000000000000000 [Eh]
	 Same-Spin Energy          =      -0.5336050239257779 [Eh]
	 Opposite-Spin Energy      =      -1.7471135341227362 [Eh]
	 Correlation Energy        =      -2.2807185580485143 [Eh]
	 Total Energy              =    -482.1721164710928633 [Eh]

	 ================> DF-SCS-MP2 Energies <==================
	-----------------------------------------------------------
	 SCS Same-Spin Scale       =       0.3333333333333333 [-]
	 SCS Opposite-Spin Scale   =       1.2000000000000000 [-]
	 SCS Same-Spin Energy      =      -0.1778683413085926 [Eh]
	 SCS Opposite-Spin Energy  =      -2.0965362409472834 [Eh]
	 SCS Correlation Energy    =      -2.2744045822558761 [Eh]
	 SCS Total Energy          =    -482.1658024953002268 [Eh]
	-----------------------------------------------------------

  Dipole Moment: [D]
     X:     1.1983      Y:    -1.0928      Z:    -0.4884     Total:     1.6937

*** Psi4 exiting successfully. Buy a developer a beer!
