                               Psi4 1.4a3.dev225

  ==> Input File <==

--------------------------------------------------------------------------
#psi4
#
memory 32 gb

molecule  {
0 1
  N        1.0430420     0.8835120     0.3262100
  C       -2.6935940    -0.1236090    -0.2650160
  C       -0.4170680    -1.0145740    -0.0079460
  C       -1.3683020    -0.3105490    -1.0112920
  C       -2.2166740     0.1783740     1.1559530
  C       -1.1360938    -0.8099296     1.3738385
  C       -3.6002280     0.9375310    -0.8724950
  C        0.9620280    -0.4146880    -0.0398380
  C        2.0893310    -1.1495780    -0.4236340
  C        3.3396130    -0.5322390    -0.4347340
  C        2.2533150     1.4653640     0.3147880
  C        3.4262710     0.8062240    -0.0568370
  H       -3.2284890    -1.0854330    -0.2500270
  H       -0.3333030    -2.0805640    -0.2540920
  H       -0.9618110     0.6780590    -1.2570810
  H       -1.4754410    -0.8694270    -1.9482280
  H       -3.0167220     0.1138590     1.9027270
  H       -1.8007770     1.1928100     1.1867420
  H       -0.3855780    -0.5294870     2.1482020
  H       -1.5277920    -1.8013410     1.6997400
  H       -3.8772320     0.6843320    -1.9011880
  H       -4.5228040     1.0497910    -0.2936460
  H       -3.0892320     1.9062640    -0.8879070
  H        1.9842510    -2.1936970    -0.7089060
  H        4.2276210    -1.0857940    -0.7310670
  H        2.2780980     2.5111560     0.6184940
  H        4.3773590     1.3311980    -0.0481150
units angstrom
no_reorient  #important for SAPT in psi4, default
symmetry c1  #important for SAPT in psi4, default
}

set PROPERTIES_ORIGIN ["COM"]
properties('MP2/aug-cc-pvtz', properties = ['dipole'])
--------------------------------------------------------------------------

    Molecular point group: c1
  Charge       = 0
  Multiplicity = 1
  Basis Set: AUG-CC-PVTZ
    Blend: AUG-CC-PVTZ
  Basis Set: (AUG-CC-PVTZ AUX)
    Blend: AUG-CC-PVTZ-JKFIT

    Orbital Energies [Eh]
    ---------------------

    Doubly Occupied:

       1A    -15.558007     2A    -11.275324     3A    -11.274326
       4A    -11.257961     5A    -11.235886     6A    -11.235196
       7A    -11.226525     8A    -11.214953     9A    -11.213140
      10A    -11.209577    11A    -11.205323    12A    -11.201615
      13A     -1.251799    14A     -1.130832    15A     -1.081905
      16A     -1.046673    17A     -0.991930    18A     -0.959330
      19A     -0.892470    20A     -0.855161    21A     -0.835321
      22A     -0.762300    23A     -0.757133    24A     -0.696286
      25A     -0.668405    26A     -0.641757    27A     -0.639857
      28A     -0.609673    29A     -0.584340    30A     -0.577896
      31A     -0.575103    32A     -0.551690    33A     -0.538342
      34A     -0.527005    35A     -0.510125    36A     -0.479233
      37A     -0.464859    38A     -0.462463    39A     -0.450756
      40A     -0.447036    41A     -0.438954    42A     -0.410174
      43A     -0.376865    44A     -0.331687

  @DF-RHF Final Energy:  -479.89367874473845

   => Energetics <=

    Nuclear Repulsion Energy =            686.2356016703834030
    One-Electron Energy =               -2010.9481693079251272
    Two-Electron Energy =                 844.8188888928033293
    Total Energy =                       -479.8936787447383949
  Basis Set: (AUG-CC-PVTZ AUX)
    Blend: AUG-CC-PVTZ-RI
    Molecular point group: c1

    Geometry (in Angstrom), charge = 0, multiplicity = 1:

       Center              X                  Y                   Z               Mass
    ------------   -----------------  -----------------  -----------------  -----------------
         N            0.975835806482     0.879911391127     0.322291362141    14.003074004430
         C           -2.760800193518    -0.127209608873    -0.268934637859    12.000000000000
         C           -0.484274193518    -1.018174608873    -0.011864637859    12.000000000000
         C           -1.435508193518    -0.314149608873    -1.015210637859    12.000000000000
         C           -2.283880193518     0.174773391127     1.152034362141    12.000000000000
         C           -1.203299993518    -0.813530208873     1.369919862141    12.000000000000
         C           -3.667434193518     0.933930391127    -0.876413637859    12.000000000000
         C            0.894821806482    -0.418288608873    -0.043756637859    12.000000000000
         C            2.022124806482    -1.153178608873    -0.427552637859    12.000000000000
         C            3.272406806482    -0.535839608873    -0.438652637859    12.000000000000
         C            2.186108806482     1.461763391127     0.310869362141    12.000000000000
         C            3.359064806482     0.802623391127    -0.060755637859    12.000000000000
         H           -3.295695193518    -1.089033608873    -0.253945637859     1.007825032230
         H           -0.400509193518    -2.084164608873    -0.258010637859     1.007825032230
         H           -1.029017193518     0.674458391127    -1.260999637859     1.007825032230
         H           -1.542647193518    -0.873027608873    -1.952146637859     1.007825032230
         H           -3.083928193518     0.110258391127     1.898808362141     1.007825032230
         H           -1.867983193518     1.189209391127     1.182823362141     1.007825032230
         H           -0.452784193518    -0.533087608873     2.144283362141     1.007825032230
         H           -1.594998193518    -1.804941608873     1.695821362141     1.007825032230
         H           -3.944438193518     0.680731391127    -1.905106637859     1.007825032230
         H           -4.590010193518     1.046190391127    -0.297564637859     1.007825032230
         H           -3.156438193518     1.902663391127    -0.891825637859     1.007825032230
         H            1.917044806482    -2.197297608873    -0.712824637859     1.007825032230
         H            4.160414806482    -1.089394608873    -0.734985637859     1.007825032230
         H            2.210891806482     2.507555391127     0.614575362141     1.007825032230
         H            4.310152806482     1.327597391127    -0.052033637859     1.007825032230

  Basis Set: AUG-CC-PVTZ
    Blend: AUG-CC-PVTZ
  Basis Set: (AUG-CC-PVTZ AUX)
    Blend: AUG-CC-PVTZ-JKFIT
	 Reference Energy          =    -479.8936787447384518 [Eh]
	 Singles Energy            =      -0.0000000000000000 [Eh]
	 Same-Spin Energy          =      -0.5331673885670700 [Eh]
	 Opposite-Spin Energy      =      -1.7458842993177823 [Eh]
	 Correlation Energy        =      -2.2790516878848521 [Eh]
	 Total Energy              =    -482.1727304326233252 [Eh]

	 ================> DF-SCS-MP2 Energies <==================
	-----------------------------------------------------------
	 SCS Same-Spin Scale       =       0.3333333333333333 [-]
	 SCS Opposite-Spin Scale   =       1.2000000000000000 [-]
	 SCS Same-Spin Energy      =      -0.1777224628556900 [Eh]
	 SCS Opposite-Spin Energy  =      -2.0950611591813386 [Eh]
	 SCS Correlation Energy    =      -2.2727836220370286 [Eh]
	 SCS Total Energy          =    -482.1664623667754768 [Eh]
	-----------------------------------------------------------

  Dipole Moment: [D]
     X:     1.3179      Y:    -1.0573      Z:    -0.5010     Total:     1.7623

*** Psi4 exiting successfully. Buy a developer a beer!
