                               Psi4 1.4a3.dev225

  ==> Input File <==

--------------------------------------------------------------------------
#psi4
#
memory 32 gb

molecule  {
0 1
  N        1.0430420     0.8835120     0.3262100
  C       -2.6687704    -0.1195968    -0.2739496
  C       -0.4170680    -1.0145740    -0.0079460
  C       -1.3683020    -0.3105490    -1.0112920
  C       -2.2166740     0.1783740     1.1559530
  C       -1.0996000    -0.8433070     1.3811970
  C       -3.6002280     0.9375310    -0.8724950
  C        0.9620280    -0.4146880    -0.0398380
  C        2.0893310    -1.1495780    -0.4236340
  C        3.3396130    -0.5322390    -0.4347340
  C        2.2533150     1.4653640     0.3147880
  C        3.4262710     0.8062240    -0.0568370
  H       -3.2284890    -1.0854330    -0.2500270
  H       -0.3333030    -2.0805640    -0.2540920
  H       -0.9618110     0.6780590    -1.2570810
  H       -1.4754410    -0.8694270    -1.9482280
  H       -3.0167220     0.1138590     1.9027270
  H       -1.8007770     1.1928100     1.1867420
  H       -0.3855780    -0.5294870     2.1482020
  H       -1.5277920    -1.8013410     1.6997400
  H       -3.8772320     0.6843320    -1.9011880
  H       -4.5228040     1.0497910    -0.2936460
  H       -3.0892320     1.9062640    -0.8879070
  H        1.9842510    -2.1936970    -0.7089060
  H        4.2276210    -1.0857940    -0.7310670
  H        2.2780980     2.5111560     0.6184940
  H        4.3773590     1.3311980    -0.0481150
units angstrom
no_reorient  #important for SAPT in psi4, default
symmetry c1  #important for SAPT in psi4, default
}

set PROPERTIES_ORIGIN ["COM"]
properties('MP2/aug-cc-pvtz', properties = ['dipole'])
--------------------------------------------------------------------------

    Molecular point group: c1
  Charge       = 0
  Multiplicity = 1
  Basis Set: AUG-CC-PVTZ
    Blend: AUG-CC-PVTZ
  Basis Set: (AUG-CC-PVTZ AUX)
    Blend: AUG-CC-PVTZ-JKFIT

    Orbital Energies [Eh]
    ---------------------

    Doubly Occupied:

       1A    -15.558118     2A    -11.275455     3A    -11.274450
       4A    -11.258040     5A    -11.235987     6A    -11.235226
       7A    -11.226415     8A    -11.215160     9A    -11.211311
      10A    -11.209060    11A    -11.205533    12A    -11.203662
      13A     -1.252004    14A     -1.129678    15A     -1.081978
      16A     -1.046434    17A     -0.990515    18A     -0.956053
      19A     -0.894983    20A     -0.855279    21A     -0.836675
      22A     -0.765199    23A     -0.753256    24A     -0.697057
      25A     -0.668651    26A     -0.641141    27A     -0.640873
      28A     -0.608388    29A     -0.584289    30A     -0.577804
      31A     -0.574071    32A     -0.551659    33A     -0.537769
      34A     -0.527303    35A     -0.511317    36A     -0.474799
      37A     -0.469337    38A     -0.460974    39A     -0.453006
      40A     -0.445878    41A     -0.439572    42A     -0.410065
      43A     -0.377065    44A     -0.332304

  @DF-RHF Final Energy:  -479.89570215878626

   => Energetics <=

    Nuclear Repulsion Energy =            686.2137980892241558
    One-Electron Energy =               -2010.9114112544600630
    Two-Electron Energy =                 844.8019110064495862
    Total Energy =                       -479.8957021587863210
  Basis Set: (AUG-CC-PVTZ AUX)
    Blend: AUG-CC-PVTZ-RI
    Molecular point group: c1

    Geometry (in Angstrom), charge = 0, multiplicity = 1:

       Center              X                  Y                   Z               Mass
    ------------   -----------------  -----------------  -----------------  -----------------
         N            0.971268982083     0.882098465463     0.322408673134    14.003074004430
         C           -2.740543417917    -0.121010334537    -0.277750926866    12.000000000000
         C           -0.488841017917    -1.015987534537    -0.011747326866    12.000000000000
         C           -1.440075017917    -0.311962534537    -1.015093326866    12.000000000000
         C           -2.288447017917     0.176960465463     1.152151673134    12.000000000000
         C           -1.171373017917    -0.844720534537     1.377395673134    12.000000000000
         C           -3.672001017917     0.936117465463    -0.876296326866    12.000000000000
         C            0.890254982083    -0.416101534537    -0.043639326866    12.000000000000
         C            2.017557982083    -1.150991534537    -0.427435326866    12.000000000000
         C            3.267839982083    -0.533652534537    -0.438535326866    12.000000000000
         C            2.181541982083     1.463950465463     0.310986673134    12.000000000000
         C            3.354497982083     0.804810465463    -0.060638326866    12.000000000000
         H           -3.300262017917    -1.086846534537    -0.253828326866     1.007825032230
         H           -0.405076017917    -2.081977534537    -0.257893326866     1.007825032230
         H           -1.033584017917     0.676645465463    -1.260882326866     1.007825032230
         H           -1.547214017917    -0.870840534537    -1.952029326866     1.007825032230
         H           -3.088495017917     0.112445465463     1.898925673134     1.007825032230
         H           -1.872550017917     1.191396465463     1.182940673134     1.007825032230
         H           -0.457351017917    -0.530900534537     2.144400673134     1.007825032230
         H           -1.599565017917    -1.802754534537     1.695938673134     1.007825032230
         H           -3.949005017917     0.682918465463    -1.904989326866     1.007825032230
         H           -4.594577017917     1.048377465463    -0.297447326866     1.007825032230
         H           -3.161005017917     1.904850465463    -0.891708326866     1.007825032230
         H            1.912477982083    -2.195110534537    -0.712707326866     1.007825032230
         H            4.155847982083    -1.087207534537    -0.734868326866     1.007825032230
         H            2.206324982083     2.509742465463     0.614692673134     1.007825032230
         H            4.305585982083     1.329784465463    -0.051916326866     1.007825032230

  Basis Set: AUG-CC-PVTZ
    Blend: AUG-CC-PVTZ
  Basis Set: (AUG-CC-PVTZ AUX)
    Blend: AUG-CC-PVTZ-JKFIT
	 Reference Energy          =    -479.8957021587862641 [Eh]
	 Singles Energy            =      -0.0000000000000000 [Eh]
	 Same-Spin Energy          =      -0.5329041771530907 [Eh]
	 Opposite-Spin Energy      =      -1.7456657113112610 [Eh]
	 Correlation Energy        =      -2.2785698884643519 [Eh]
	 Total Energy              =    -482.1742720472506107 [Eh]

	 ================> DF-SCS-MP2 Energies <==================
	-----------------------------------------------------------
	 SCS Same-Spin Scale       =       0.3333333333333333 [-]
	 SCS Opposite-Spin Scale   =       1.2000000000000000 [-]
	 SCS Same-Spin Energy      =      -0.1776347257176969 [Eh]
	 SCS Opposite-Spin Energy  =      -2.0947988535735131 [Eh]
	 SCS Correlation Energy    =      -2.2724335792912100 [Eh]
	 SCS Total Energy          =    -482.1681357380774671 [Eh]
	-----------------------------------------------------------

  Dipole Moment: [D]
     X:     1.3493      Y:    -1.0667      Z:    -0.4928     Total:     1.7893

*** Psi4 exiting successfully. Buy a developer a beer!
