                               Psi4 1.4a3.dev225

  ==> Input File <==

--------------------------------------------------------------------------
#psi4
#
memory 32 gb

molecule  {
0 1
  N        1.0430420     0.8835120     0.3262100
  C       -2.6935940    -0.1236090    -0.2650160
  C       -0.4681652    -0.8738495     0.0408112
  C       -1.3683020    -0.3105490    -1.0112920
  C       -2.2166740     0.1783740     1.1559530
  C       -1.0996000    -0.8433070     1.3811970
  C       -3.6002280     0.9375310    -0.8724950
  C        0.9620280    -0.4146880    -0.0398380
  C        2.0893310    -1.1495780    -0.4236340
  C        3.3396130    -0.5322390    -0.4347340
  C        2.2533150     1.4653640     0.3147880
  C        3.4262710     0.8062240    -0.0568370
  H       -3.2284890    -1.0854330    -0.2500270
  H       -0.3333030    -2.0805640    -0.2540920
  H       -0.9618110     0.6780590    -1.2570810
  H       -1.4754410    -0.8694270    -1.9482280
  H       -3.0167220     0.1138590     1.9027270
  H       -1.8007770     1.1928100     1.1867420
  H       -0.3855780    -0.5294870     2.1482020
  H       -1.5277920    -1.8013410     1.6997400
  H       -3.8772320     0.6843320    -1.9011880
  H       -4.5228040     1.0497910    -0.2936460
  H       -3.0892320     1.9062640    -0.8879070
  H        1.9842510    -2.1936970    -0.7089060
  H        4.2276210    -1.0857940    -0.7310670
  H        2.2780980     2.5111560     0.6184940
  H        4.3773590     1.3311980    -0.0481150
units angstrom
no_reorient  #important for SAPT in psi4, default
symmetry c1  #important for SAPT in psi4, default
}

set PROPERTIES_ORIGIN ["COM"]
properties('MP2/aug-cc-pvtz', properties = ['dipole'])
--------------------------------------------------------------------------

    Molecular point group: c1
  Charge       = 0
  Multiplicity = 1
  Basis Set: AUG-CC-PVTZ
    Blend: AUG-CC-PVTZ
  Basis Set: (AUG-CC-PVTZ AUX)
    Blend: AUG-CC-PVTZ-JKFIT

    Orbital Energies [Eh]
    ---------------------

    Doubly Occupied:

       1A    -15.557829     2A    -11.276039     3A    -11.273910
       4A    -11.259542     5A    -11.238600     6A    -11.237584
       7A    -11.233858     8A    -11.214906     9A    -11.209060
      10A    -11.207639    11A    -11.205282    12A    -11.204113
      13A     -1.254211    14A     -1.140704    15A     -1.083545
      16A     -1.045607    17A     -0.997236    18A     -0.959249
      19A     -0.895460    20A     -0.855673    21A     -0.839862
      22A     -0.763822    23A     -0.751854    24A     -0.694522
      25A     -0.671714    26A     -0.649018    27A     -0.638417
      28A     -0.611644    29A     -0.585231    30A     -0.578570
      31A     -0.569591    32A     -0.552310    33A     -0.538387
      34A     -0.527580    35A     -0.510065    36A     -0.494941
      37A     -0.475853    38A     -0.461111    39A     -0.448577
      40A     -0.440644    41A     -0.413472    42A     -0.410284
      43A     -0.378103    44A     -0.335982

  @DF-RHF Final Energy:  -479.86918705557696

   => Energetics <=

    Nuclear Repulsion Energy =            687.8520021611931270
    One-Electron Energy =               -2014.0591787148466665
    Two-Electron Energy =                 846.3379894980764675
    Total Energy =                       -479.8691870555769583
  Basis Set: (AUG-CC-PVTZ AUX)
    Blend: AUG-CC-PVTZ-RI
    Molecular point group: c1

    Geometry (in Angstrom), charge = 0, multiplicity = 1:

       Center              X                  Y                   Z               Mass
    ------------   -----------------  -----------------  -----------------  -----------------
         N            0.976923444957     0.871916346401     0.318111952251    14.003074004430
         C           -2.759712555043    -0.135204653599    -0.273114047749    12.000000000000
         C           -0.534283755043    -0.885445153599     0.032713152251    12.000000000000
         C           -1.434420555043    -0.322144653599    -1.019390047749    12.000000000000
         C           -2.282792555043     0.166778346401     1.147854952251    12.000000000000
         C           -1.165718555043    -0.854902653599     1.373098952251    12.000000000000
         C           -3.666346555043     0.925935346401    -0.880593047749    12.000000000000
         C            0.895909444957    -0.426283653599    -0.047936047749    12.000000000000
         C            2.023212444957    -1.161173653599    -0.431732047749    12.000000000000
         C            3.273494444957    -0.543834653599    -0.442832047749    12.000000000000
         C            2.187196444957     1.453768346401     0.306689952251    12.000000000000
         C            3.360152444957     0.794628346401    -0.064935047749    12.000000000000
         H           -3.294607555043    -1.097028653599    -0.258125047749     1.007825032230
         H           -0.399421555043    -2.092159653599    -0.262190047749     1.007825032230
         H           -1.027929555043     0.666463346401    -1.265179047749     1.007825032230
         H           -1.541559555043    -0.881022653599    -1.956326047749     1.007825032230
         H           -3.082840555043     0.102263346401     1.894628952251     1.007825032230
         H           -1.866895555043     1.181214346401     1.178643952251     1.007825032230
         H           -0.451696555043    -0.541082653599     2.140103952251     1.007825032230
         H           -1.593910555043    -1.812936653599     1.691641952251     1.007825032230
         H           -3.943350555043     0.672736346401    -1.909286047749     1.007825032230
         H           -4.588922555043     1.038195346401    -0.301744047749     1.007825032230
         H           -3.155350555043     1.894668346401    -0.896005047749     1.007825032230
         H            1.918132444957    -2.205292653599    -0.717004047749     1.007825032230
         H            4.161502444957    -1.097389653599    -0.739165047749     1.007825032230
         H            2.211979444957     2.499560346401     0.610395952251     1.007825032230
         H            4.311240444957     1.319602346401    -0.056213047749     1.007825032230

  Basis Set: AUG-CC-PVTZ
    Blend: AUG-CC-PVTZ
  Basis Set: (AUG-CC-PVTZ AUX)
    Blend: AUG-CC-PVTZ-JKFIT
	 Reference Energy          =    -479.8691870555769583 [Eh]
	 Singles Energy            =      -0.0000000000000000 [Eh]
	 Same-Spin Energy          =      -0.5344398286041816 [Eh]
	 Opposite-Spin Energy      =      -1.7485073269126992 [Eh]
	 Correlation Energy        =      -2.2829471555168808 [Eh]
	 Total Energy              =    -482.1521342110938235 [Eh]

	 ================> DF-SCS-MP2 Energies <==================
	-----------------------------------------------------------
	 SCS Same-Spin Scale       =       0.3333333333333333 [-]
	 SCS Opposite-Spin Scale   =       1.2000000000000000 [-]
	 SCS Same-Spin Energy      =      -0.1781466095347272 [Eh]
	 SCS Opposite-Spin Energy  =      -2.0982087922952388 [Eh]
	 SCS Correlation Energy    =      -2.2763554018299659 [Eh]
	 SCS Total Energy          =    -482.1455424574069184 [Eh]
	-----------------------------------------------------------

  Dipole Moment: [D]
     X:     1.4119      Y:    -0.9092      Z:    -0.4532     Total:     1.7393

*** Psi4 exiting successfully. Buy a developer a beer!
