                               Psi4 1.4a3.dev225

  ==> Input File <==

--------------------------------------------------------------------------
#psi4
#
memory 32 gb

molecule  {
0 1
  N        1.0430420     0.8835120     0.3262100
  C       -2.6935940    -0.1236090    -0.2650160
  C       -0.4170680    -1.0145740    -0.0079460
  C       -1.3683020    -0.3105490    -1.0112920
  C       -2.2374066     0.1461100     1.1187633
  C       -1.0996000    -0.8433070     1.3811970
  C       -3.6002280     0.9375310    -0.8724950
  C        0.9620280    -0.4146880    -0.0398380
  C        2.0893310    -1.1495780    -0.4236340
  C        3.3396130    -0.5322390    -0.4347340
  C        2.2533150     1.4653640     0.3147880
  C        3.4262710     0.8062240    -0.0568370
  H       -3.2284890    -1.0854330    -0.2500270
  H       -0.3333030    -2.0805640    -0.2540920
  H       -0.9618110     0.6780590    -1.2570810
  H       -1.4754410    -0.8694270    -1.9482280
  H       -3.0167220     0.1138590     1.9027270
  H       -1.8007770     1.1928100     1.1867420
  H       -0.3855780    -0.5294870     2.1482020
  H       -1.5277920    -1.8013410     1.6997400
  H       -3.8772320     0.6843320    -1.9011880
  H       -4.5228040     1.0497910    -0.2936460
  H       -3.0892320     1.9062640    -0.8879070
  H        1.9842510    -2.1936970    -0.7089060
  H        4.2276210    -1.0857940    -0.7310670
  H        2.2780980     2.5111560     0.6184940
  H        4.3773590     1.3311980    -0.0481150
units angstrom
no_reorient  #important for SAPT in psi4, default
symmetry c1  #important for SAPT in psi4, default
}

set PROPERTIES_ORIGIN ["COM"]
properties('MP2/aug-cc-pvtz', properties = ['dipole'])
--------------------------------------------------------------------------

    Molecular point group: c1
  Charge       = 0
  Multiplicity = 1
  Basis Set: AUG-CC-PVTZ
    Blend: AUG-CC-PVTZ
  Basis Set: (AUG-CC-PVTZ AUX)
    Blend: AUG-CC-PVTZ-JKFIT

    Orbital Energies [Eh]
    ---------------------

    Doubly Occupied:

       1A    -15.557906     2A    -11.275317     3A    -11.274284
       4A    -11.257914     5A    -11.235867     6A    -11.235109
       7A    -11.226131     8A    -11.212780     9A    -11.211625
      10A    -11.210121    11A    -11.205930    12A    -11.205750
      13A     -1.251840    14A     -1.132086    15A     -1.081910
      16A     -1.048271    17A     -0.991944    18A     -0.954378
      19A     -0.895389    20A     -0.855351    21A     -0.837603
      22A     -0.764233    23A     -0.754634    24A     -0.696744
      25A     -0.668602    26A     -0.641870    27A     -0.640660
      28A     -0.609278    29A     -0.585326    30A     -0.575984
      31A     -0.574393    32A     -0.552388    33A     -0.537489
      34A     -0.526521    35A     -0.510565    36A     -0.473690
      37A     -0.468808    38A     -0.462452    39A     -0.450686
      40A     -0.449768    41A     -0.438664    42A     -0.409614
      43A     -0.376930    44A     -0.332068

  @DF-RHF Final Energy:  -479.89321996921194

   => Energetics <=

    Nuclear Repulsion Energy =            686.4068724361862905
    One-Electron Energy =               -2011.2824430426721847
    Two-Electron Energy =                 844.9823506372738393
    Total Energy =                       -479.8932199692119411
  Basis Set: (AUG-CC-PVTZ AUX)
    Blend: AUG-CC-PVTZ-RI
    Molecular point group: c1

    Geometry (in Angstrom), charge = 0, multiplicity = 1:

       Center              X                  Y                   Z               Mass
    ------------   -----------------  -----------------  -----------------  -----------------
         N            0.974661936867     0.884800260309     0.324513143430    14.003074004430
         C           -2.761974063133    -0.122320739691    -0.266712856570    12.000000000000
         C           -0.485448063133    -1.013285739691    -0.009642856570    12.000000000000
         C           -1.436682063133    -0.309260739691    -1.012988856570    12.000000000000
         C           -2.305786663133     0.147398260309     1.117066443430    12.000000000000
         C           -1.167980063133    -0.842018739691     1.379500143430    12.000000000000
         C           -3.668608063133     0.938819260309    -0.874191856570    12.000000000000
         C            0.893647936867    -0.413399739691    -0.041534856570    12.000000000000
         C            2.020950936867    -1.148289739691    -0.425330856570    12.000000000000
         C            3.271232936867    -0.530950739691    -0.436430856570    12.000000000000
         C            2.184934936867     1.466652260309     0.313091143430    12.000000000000
         C            3.357890936867     0.807512260309    -0.058533856570    12.000000000000
         H           -3.296869063133    -1.084144739691    -0.251723856570     1.007825032230
         H           -0.401683063133    -2.079275739691    -0.255788856570     1.007825032230
         H           -1.030191063133     0.679347260309    -1.258777856570     1.007825032230
         H           -1.543821063133    -0.868138739691    -1.949924856570     1.007825032230
         H           -3.085102063133     0.115147260309     1.901030143430     1.007825032230
         H           -1.869157063133     1.194098260309     1.185045143430     1.007825032230
         H           -0.453958063133    -0.528198739691     2.146505143430     1.007825032230
         H           -1.596172063133    -1.800052739691     1.698043143430     1.007825032230
         H           -3.945612063133     0.685620260309    -1.902884856570     1.007825032230
         H           -4.591184063133     1.051079260309    -0.295342856570     1.007825032230
         H           -3.157612063133     1.907552260309    -0.889603856570     1.007825032230
         H            1.915870936867    -2.192408739691    -0.710602856570     1.007825032230
         H            4.159240936867    -1.084505739691    -0.732763856570     1.007825032230
         H            2.209717936867     2.512444260309     0.616797143430     1.007825032230
         H            4.308978936867     1.332486260309    -0.049811856570     1.007825032230

  Basis Set: AUG-CC-PVTZ
    Blend: AUG-CC-PVTZ
  Basis Set: (AUG-CC-PVTZ AUX)
    Blend: AUG-CC-PVTZ-JKFIT
	 Reference Energy          =    -479.8932199692119411 [Eh]
	 Singles Energy            =      -0.0000000000000000 [Eh]
	 Same-Spin Energy          =      -0.5331899835813320 [Eh]
	 Opposite-Spin Energy      =      -1.7459623720200115 [Eh]
	 Correlation Energy        =      -2.2791523556013433 [Eh]
	 Total Energy              =    -482.1723723248132956 [Eh]

	 ================> DF-SCS-MP2 Energies <==================
	-----------------------------------------------------------
	 SCS Same-Spin Scale       =       0.3333333333333333 [-]
	 SCS Opposite-Spin Scale   =       1.2000000000000000 [-]
	 SCS Same-Spin Energy      =      -0.1777299945271106 [Eh]
	 SCS Opposite-Spin Energy  =      -2.0951548464240135 [Eh]
	 SCS Correlation Energy    =      -2.2728848409511242 [Eh]
	 SCS Total Energy          =    -482.1661048101630627 [Eh]
	-----------------------------------------------------------

  Dipole Moment: [D]
     X:     1.3306      Y:    -1.0795      Z:    -0.5017     Total:     1.7854

*** Psi4 exiting successfully. Buy a developer a beer!
