                               Psi4 1.4a3.dev225

  ==> Input File <==

--------------------------------------------------------------------------
#psi4
#
memory 32 gb

molecule  {
0 1
  N        1.0430420     0.8835120     0.3262100
  C       -2.6935940    -0.1236090    -0.2650160
  C       -0.4170680    -1.0145740    -0.0079460
  C       -1.3683020    -0.3105490    -1.0112920
  C       -2.2166740     0.1783740     1.1559530
  C       -1.0266123    -0.9100618     1.3959140
  C       -3.6002280     0.9375310    -0.8724950
  C        0.9620280    -0.4146880    -0.0398380
  C        2.0893310    -1.1495780    -0.4236340
  C        3.3396130    -0.5322390    -0.4347340
  C        2.2533150     1.4653640     0.3147880
  C        3.4262710     0.8062240    -0.0568370
  H       -3.2284890    -1.0854330    -0.2500270
  H       -0.3333030    -2.0805640    -0.2540920
  H       -0.9618110     0.6780590    -1.2570810
  H       -1.4754410    -0.8694270    -1.9482280
  H       -3.0167220     0.1138590     1.9027270
  H       -1.8007770     1.1928100     1.1867420
  H       -0.3855780    -0.5294870     2.1482020
  H       -1.5277920    -1.8013410     1.6997400
  H       -3.8772320     0.6843320    -1.9011880
  H       -4.5228040     1.0497910    -0.2936460
  H       -3.0892320     1.9062640    -0.8879070
  H        1.9842510    -2.1936970    -0.7089060
  H        4.2276210    -1.0857940    -0.7310670
  H        2.2780980     2.5111560     0.6184940
  H        4.3773590     1.3311980    -0.0481150
units angstrom
no_reorient  #important for SAPT in psi4, default
symmetry c1  #important for SAPT in psi4, default
}

set PROPERTIES_ORIGIN ["COM"]
properties('MP2/aug-cc-pvtz', properties = ['dipole'])
--------------------------------------------------------------------------

    Molecular point group: c1
  Charge       = 0
  Multiplicity = 1
  Basis Set: AUG-CC-PVTZ
    Blend: AUG-CC-PVTZ
  Basis Set: (AUG-CC-PVTZ AUX)
    Blend: AUG-CC-PVTZ-JKFIT

    Orbital Energies [Eh]
    ---------------------

    Doubly Occupied:

       1A    -15.557994     2A    -11.275378     3A    -11.274393
       4A    -11.257890     5A    -11.235843     6A    -11.234924
       7A    -11.226035     8A    -11.214334     9A    -11.210202
      10A    -11.209742    11A    -11.207394    12A    -11.205309
      13A     -1.252011    14A     -1.122861    15A     -1.081758
      16A     -1.046486    17A     -0.991145    18A     -0.946822
      19A     -0.896185    20A     -0.855257    21A     -0.839098
      22A     -0.768290    23A     -0.753359    24A     -0.697856
      25A     -0.667718    26A     -0.641643    27A     -0.638133
      28A     -0.606698    29A     -0.586481    30A     -0.577566
      31A     -0.572164    32A     -0.552600    33A     -0.537829
      34A     -0.527691    35A     -0.515386    36A     -0.481560
      37A     -0.472172    38A     -0.461372    39A     -0.447778
      40A     -0.446954    41A     -0.425517    42A     -0.408153
      43A     -0.377147    44A     -0.332680

  @DF-RHF Final Energy:  -479.88904681894223

   => Energetics <=

    Nuclear Repulsion Energy =            685.1433054946803622
    One-Electron Energy =               -2008.7890888067740889
    Two-Electron Energy =                 843.7567364931514931
    Total Energy =                       -479.8890468189422336
  Basis Set: (AUG-CC-PVTZ AUX)
    Blend: AUG-CC-PVTZ-RI
    Molecular point group: c1

    Geometry (in Angstrom), charge = 0, multiplicity = 1:

       Center              X                  Y                   Z               Mass
    ------------   -----------------  -----------------  -----------------  -----------------
         N            0.967681794970     0.887369081345     0.320647213302    14.003074004430
         C           -2.768954205030    -0.119751918655    -0.270578786698    12.000000000000
         C           -0.492428205030    -1.010716918655    -0.013508786698    12.000000000000
         C           -1.443662205030    -0.306691918655    -1.016854786698    12.000000000000
         C           -2.292034205030     0.182231081345     1.150390213302    12.000000000000
         C           -1.101972505030    -0.906204718655     1.390351213302    12.000000000000
         C           -3.675588205030     0.941388081345    -0.878057786698    12.000000000000
         C            0.886667794970    -0.410830918655    -0.045400786698    12.000000000000
         C            2.013970794970    -1.145720918655    -0.429196786698    12.000000000000
         C            3.264252794970    -0.528381918655    -0.440296786698    12.000000000000
         C            2.177954794970     1.469221081345     0.309225213302    12.000000000000
         C            3.350910794970     0.810081081345    -0.062399786698    12.000000000000
         H           -3.303849205030    -1.081575918655    -0.255589786698     1.007825032230
         H           -0.408663205030    -2.076706918655    -0.259654786698     1.007825032230
         H           -1.037171205030     0.681916081345    -1.262643786698     1.007825032230
         H           -1.550801205030    -0.865569918655    -1.953790786698     1.007825032230
         H           -3.092082205030     0.117716081345     1.897164213302     1.007825032230
         H           -1.876137205030     1.196667081345     1.181179213302     1.007825032230
         H           -0.460938205030    -0.525629918655     2.142639213302     1.007825032230
         H           -1.603152205030    -1.797483918655     1.694177213302     1.007825032230
         H           -3.952592205030     0.688189081345    -1.906750786698     1.007825032230
         H           -4.598164205030     1.053648081345    -0.299208786698     1.007825032230
         H           -3.164592205030     1.910121081345    -0.893469786698     1.007825032230
         H            1.908890794970    -2.189839918655    -0.714468786698     1.007825032230
         H            4.152260794970    -1.081936918655    -0.736629786698     1.007825032230
         H            2.202737794970     2.515013081345     0.612931213302     1.007825032230
         H            4.301998794970     1.335055081345    -0.053677786698     1.007825032230

  Basis Set: AUG-CC-PVTZ
    Blend: AUG-CC-PVTZ
  Basis Set: (AUG-CC-PVTZ AUX)
    Blend: AUG-CC-PVTZ-JKFIT
	 Reference Energy          =    -479.8890468189422336 [Eh]
	 Singles Energy            =      -0.0000000000000000 [Eh]
	 Same-Spin Energy          =      -0.5326653340507399 [Eh]
	 Opposite-Spin Energy      =      -1.7459654610008319 [Eh]
	 Correlation Energy        =      -2.2786307950515718 [Eh]
	 Total Energy              =    -482.1676776139938170 [Eh]

	 ================> DF-SCS-MP2 Energies <==================
	-----------------------------------------------------------
	 SCS Same-Spin Scale       =       0.3333333333333333 [-]
	 SCS Opposite-Spin Scale   =       1.2000000000000000 [-]
	 SCS Same-Spin Energy      =      -0.1775551113502466 [Eh]
	 SCS Opposite-Spin Energy  =      -2.0951585532009984 [Eh]
	 SCS Correlation Energy    =      -2.2727136645512451 [Eh]
	 SCS Total Energy          =    -482.1617604834934809 [Eh]
	-----------------------------------------------------------

  Dipole Moment: [D]
     X:     1.3339      Y:    -1.0802      Z:    -0.5001     Total:     1.7878

*** Psi4 exiting successfully. Buy a developer a beer!
