                               Psi4 1.4a3.dev225

  ==> Input File <==

--------------------------------------------------------------------------
#psi4
#
memory 32 gb

molecule  {
0 1
  N        1.0430420     0.8835120     0.3262100
  C       -2.6935940    -0.1236090    -0.2650160
  C       -0.4170680    -1.0145740    -0.0079460
  C       -1.3683020    -0.3105490    -1.0112920
  C       -2.2166740     0.1783740     1.1559530
  C       -1.0996000    -0.8433070     1.3811970
  C       -3.6002280     0.9375310    -0.8724950
  C        0.9620280    -0.4146880    -0.0398380
  C        2.0893310    -1.1495780    -0.4236340
  C        3.3396130    -0.5322390    -0.4347340
  C        2.2533150     1.4653640     0.3147880
  C        3.4262710     0.8062240    -0.0568370
  H       -3.2284890    -1.0854330    -0.2500270
  H       -0.3333030    -2.0805640    -0.2540920
  H       -0.9618110     0.6780590    -1.2570810
  H       -1.4754410    -0.8694270    -1.9482280
  H       -3.0167220     0.1138590     1.9027270
  H       -1.8007770     1.1928100     1.1867420
  H       -0.3855780    -0.5294870     2.1482020
  H       -1.5277920    -1.8013410     1.6997400
  H       -3.8849925     0.6680349    -1.8949094
  H       -4.5228040     1.0497910    -0.2936460
  H       -3.0892320     1.9062640    -0.8879070
  H        1.9842510    -2.1936970    -0.7089060
  H        4.2276210    -1.0857940    -0.7310670
  H        2.2780980     2.5111560     0.6184940
  H        4.3773590     1.3311980    -0.0481150
units angstrom
no_reorient  #important for SAPT in psi4, default
symmetry c1  #important for SAPT in psi4, default
}

set PROPERTIES_ORIGIN ["COM"]
properties('MP2/aug-cc-pvtz', properties = ['dipole'])
--------------------------------------------------------------------------

    Molecular point group: c1
  Charge       = 0
  Multiplicity = 1
  Basis Set: AUG-CC-PVTZ
    Blend: AUG-CC-PVTZ
  Basis Set: (AUG-CC-PVTZ AUX)
    Blend: AUG-CC-PVTZ-JKFIT

    Orbital Energies [Eh]
    ---------------------

    Doubly Occupied:

       1A    -15.558005     2A    -11.275324     3A    -11.274351
       4A    -11.257938     5A    -11.235877     6A    -11.235103
       7A    -11.226124     8A    -11.214492     9A    -11.211349
      10A    -11.209692    11A    -11.205278    12A    -11.203622
      13A     -1.251866    14A     -1.127528    15A     -1.081853
      16A     -1.046484    17A     -0.991264    18A     -0.954761
      19A     -0.893747    20A     -0.855193    21A     -0.836699
      22A     -0.764385    23A     -0.755441    24A     -0.696775
      25A     -0.668102    26A     -0.640673    27A     -0.640131
      28A     -0.607891    29A     -0.585428    30A     -0.577412
      31A     -0.574021    32A     -0.551127    33A     -0.538168
      34A     -0.527350    35A     -0.512360    36A     -0.473149
      37A     -0.468927    38A     -0.460855    39A     -0.452687
      40A     -0.447124    41A     -0.439212    42A     -0.410000
      43A     -0.376983    44A     -0.332113

  @DF-RHF Final Energy:  -479.89657039099177

   => Energetics <=

    Nuclear Repulsion Energy =            685.8692287207726395
    One-Electron Energy =               -2010.2378676584266941
    Two-Electron Energy =                 844.4720685466621717
    Total Energy =                       -479.8965703909917693
  Basis Set: (AUG-CC-PVTZ AUX)
    Blend: AUG-CC-PVTZ-RI
    Molecular point group: c1

    Geometry (in Angstrom), charge = 0, multiplicity = 1:

       Center              X                  Y                   Z               Mass
    ------------   -----------------  -----------------  -----------------  -----------------
         N            0.973166347855     0.882499227908     0.321704039237    14.003074004430
         C           -2.763469652145    -0.124621772092    -0.269521960763    12.000000000000
         C           -0.486943652145    -1.015586772092    -0.012451960763    12.000000000000
         C           -1.438177652145    -0.311561772092    -1.015797960763    12.000000000000
         C           -2.286549652145     0.177361227908     1.151447039237    12.000000000000
         C           -1.169475652145    -0.844319772092     1.376691039237    12.000000000000
         C           -3.670103652145     0.936518227908    -0.877000960763    12.000000000000
         C            0.892152347855    -0.415700772092    -0.044343960763    12.000000000000
         C            2.019455347855    -1.150590772092    -0.428139960763    12.000000000000
         C            3.269737347855    -0.533251772092    -0.439239960763    12.000000000000
         C            2.183439347855     1.464351227908     0.310282039237    12.000000000000
         C            3.356395347855     0.805211227908    -0.061342960763    12.000000000000
         H           -3.298364652145    -1.086445772092    -0.254532960763     1.007825032230
         H           -0.403178652145    -2.081576772092    -0.258597960763     1.007825032230
         H           -1.031686652145     0.677046227908    -1.261586960763     1.007825032230
         H           -1.545316652145    -0.870439772092    -1.952733960763     1.007825032230
         H           -3.086597652145     0.112846227908     1.898221039237     1.007825032230
         H           -1.870652652145     1.191797227908     1.182236039237     1.007825032230
         H           -0.455453652145    -0.530499772092     2.143696039237     1.007825032230
         H           -1.597667652145    -1.802353772092     1.695234039237     1.007825032230
         H           -3.954868152145     0.667022127908    -1.899415360763     1.007825032230
         H           -4.592679652145     1.048778227908    -0.298151960763     1.007825032230
         H           -3.159107652145     1.905251227908    -0.892412960763     1.007825032230
         H            1.914375347855    -2.194709772092    -0.713411960763     1.007825032230
         H            4.157745347855    -1.086806772092    -0.735572960763     1.007825032230
         H            2.208222347855     2.510143227908     0.613988039237     1.007825032230
         H            4.307483347855     1.330185227908    -0.052620960763     1.007825032230

  Basis Set: AUG-CC-PVTZ
    Blend: AUG-CC-PVTZ
  Basis Set: (AUG-CC-PVTZ AUX)
    Blend: AUG-CC-PVTZ-JKFIT
	 Reference Energy          =    -479.8965703909917693 [Eh]
	 Singles Energy            =      -0.0000000000000000 [Eh]
	 Same-Spin Energy          =      -0.5327908342550191 [Eh]
	 Opposite-Spin Energy      =      -1.7455578344162372 [Eh]
	 Correlation Energy        =      -2.2783486686712564 [Eh]
	 Total Energy              =    -482.1749190596630115 [Eh]

	 ================> DF-SCS-MP2 Energies <==================
	-----------------------------------------------------------
	 SCS Same-Spin Scale       =       0.3333333333333333 [-]
	 SCS Opposite-Spin Scale   =       1.2000000000000000 [-]
	 SCS Same-Spin Energy      =      -0.1775969447516730 [Eh]
	 SCS Opposite-Spin Energy  =      -2.0946694012994844 [Eh]
	 SCS Correlation Energy    =      -2.2722663460511576 [Eh]
	 SCS Total Energy          =    -482.1688367370429091 [Eh]
	-----------------------------------------------------------

  Dipole Moment: [D]
     X:     1.3267      Y:    -1.0738      Z:    -0.4932     Total:     1.7767

*** Psi4 exiting successfully. Buy a developer a beer!
