                               Psi4 1.4a3.dev225

  ==> Input File <==

--------------------------------------------------------------------------
#psi4
#
memory 32 gb

molecule  {
0 1
  N        1.0430420     0.8835120     0.3262100
  C       -2.6935940    -0.1236090    -0.2650160
  C       -0.4170680    -1.0145740    -0.0079460
  C       -1.3683020    -0.3105490    -1.0112920
  C       -2.2166740     0.1783740     1.1559530
  C       -1.0996000    -0.8433070     1.3811970
  C       -3.6002280     0.9375310    -0.8724950
  C        0.9086817    -0.4950871    -0.0550101
  C        2.0893310    -1.1495780    -0.4236340
  C        3.3396130    -0.5322390    -0.4347340
  C        2.2533150     1.4653640     0.3147880
  C        3.4262710     0.8062240    -0.0568370
  H       -3.2284890    -1.0854330    -0.2500270
  H       -0.3333030    -2.0805640    -0.2540920
  H       -0.9618110     0.6780590    -1.2570810
  H       -1.4754410    -0.8694270    -1.9482280
  H       -3.0167220     0.1138590     1.9027270
  H       -1.8007770     1.1928100     1.1867420
  H       -0.3855780    -0.5294870     2.1482020
  H       -1.5277920    -1.8013410     1.6997400
  H       -3.8772320     0.6843320    -1.9011880
  H       -4.5228040     1.0497910    -0.2936460
  H       -3.0892320     1.9062640    -0.8879070
  H        1.9842510    -2.1936970    -0.7089060
  H        4.2276210    -1.0857940    -0.7310670
  H        2.2780980     2.5111560     0.6184940
  H        4.3773590     1.3311980    -0.0481150
units angstrom
no_reorient  #important for SAPT in psi4, default
symmetry c1  #important for SAPT in psi4, default
}

set PROPERTIES_ORIGIN ["COM"]
properties('MP2/aug-cc-pvtz', properties = ['dipole'])
--------------------------------------------------------------------------

    Molecular point group: c1
  Charge       = 0
  Multiplicity = 1
  Basis Set: AUG-CC-PVTZ
    Blend: AUG-CC-PVTZ
  Basis Set: (AUG-CC-PVTZ AUX)
    Blend: AUG-CC-PVTZ-JKFIT

    Orbital Energies [Eh]
    ---------------------

    Doubly Occupied:

       1A    -15.559803     2A    -11.279952     3A    -11.272443
       4A    -11.257559     5A    -11.235468     6A    -11.235180
       7A    -11.225273     8A    -11.216578     9A    -11.214782
      10A    -11.213092    11A    -11.206623    12A    -11.205491
      13A     -1.231043    14A     -1.133351    15A     -1.074927
      16A     -1.054263    17A     -0.991827    18A     -0.958712
      19A     -0.899868    20A     -0.851015    21A     -0.833590
      22A     -0.769082    23A     -0.758267    24A     -0.693145
      25A     -0.671365    26A     -0.644020    27A     -0.634328
      28A     -0.609597    29A     -0.584386    30A     -0.578749
      31A     -0.573571    32A     -0.553080    33A     -0.531999
      34A     -0.523284    35A     -0.513798    36A     -0.480066
      37A     -0.473010    38A     -0.463702    39A     -0.456854
      40A     -0.449875    41A     -0.441621    42A     -0.402763
      43A     -0.370944    44A     -0.327125

  @DF-RHF Final Energy:  -479.88068133988872

   => Energetics <=

    Nuclear Repulsion Energy =            685.4580321617578420
    One-Electron Energy =               -2009.3664859597115537
    Two-Electron Energy =                 844.0277724580651011
    Total Energy =                       -479.8806813398887243
  Basis Set: (AUG-CC-PVTZ AUX)
    Blend: AUG-CC-PVTZ-RI
    Molecular point group: c1

    Geometry (in Angstrom), charge = 0, multiplicity = 1:

       Center              X                  Y                   Z               Mass
    ------------   -----------------  -----------------  -----------------  -----------------
         N            0.977090954421     0.888385287547     0.322873306893    14.003074004430
         C           -2.759545045579    -0.118735712453    -0.268352693107    12.000000000000
         C           -0.483019045579    -1.009700712453    -0.011282693107    12.000000000000
         C           -1.434253045579    -0.305675712453    -1.014628693107    12.000000000000
         C           -2.282625045579     0.183247287547     1.152616306893    12.000000000000
         C           -1.165551045579    -0.838433712453     1.377860306893    12.000000000000
         C           -3.666179045579     0.942404287547    -0.875831693107    12.000000000000
         C            0.842730654421    -0.490213812453    -0.058346793107    12.000000000000
         C            2.023379954421    -1.144704712453    -0.426970693107    12.000000000000
         C            3.273661954421    -0.527365712453    -0.438070693107    12.000000000000
         C            2.187363954421     1.470237287547     0.311451306893    12.000000000000
         C            3.360319954421     0.811097287547    -0.060173693107    12.000000000000
         H           -3.294440045579    -1.080559712453    -0.253363693107     1.007825032230
         H           -0.399254045579    -2.075690712453    -0.257428693107     1.007825032230
         H           -1.027762045579     0.682932287547    -1.260417693107     1.007825032230
         H           -1.541392045579    -0.864553712453    -1.951564693107     1.007825032230
         H           -3.082673045579     0.118732287547     1.899390306893     1.007825032230
         H           -1.866728045579     1.197683287547     1.183405306893     1.007825032230
         H           -0.451529045579    -0.524613712453     2.144865306893     1.007825032230
         H           -1.593743045579    -1.796467712453     1.696403306893     1.007825032230
         H           -3.943183045579     0.689205287547    -1.904524693107     1.007825032230
         H           -4.588755045579     1.054664287547    -0.296982693107     1.007825032230
         H           -3.155183045579     1.911137287547    -0.891243693107     1.007825032230
         H            1.918299954421    -2.188823712453    -0.712242693107     1.007825032230
         H            4.161669954421    -1.080920712453    -0.734403693107     1.007825032230
         H            2.212146954421     2.516029287547     0.615157306893     1.007825032230
         H            4.311407954421     1.336071287547    -0.051451693107     1.007825032230

  Basis Set: AUG-CC-PVTZ
    Blend: AUG-CC-PVTZ
  Basis Set: (AUG-CC-PVTZ AUX)
    Blend: AUG-CC-PVTZ-JKFIT
	 Reference Energy          =    -479.8806813398887243 [Eh]
	 Singles Energy            =      -0.0000000000000000 [Eh]
	 Same-Spin Energy          =      -0.5345742612222140 [Eh]
	 Opposite-Spin Energy      =      -1.7491084247485595 [Eh]
	 Correlation Energy        =      -2.2836826859707733 [Eh]
	 Total Energy              =    -482.1643640258594701 [Eh]

	 ================> DF-SCS-MP2 Energies <==================
	-----------------------------------------------------------
	 SCS Same-Spin Scale       =       0.3333333333333333 [-]
	 SCS Opposite-Spin Scale   =       1.2000000000000000 [-]
	 SCS Same-Spin Energy      =      -0.1781914204074047 [Eh]
	 SCS Opposite-Spin Energy  =      -2.0989301096982715 [Eh]
	 SCS Correlation Energy    =      -2.2771215301056760 [Eh]
	 SCS Total Energy          =    -482.1578028699943843 [Eh]
	-----------------------------------------------------------

  Dipole Moment: [D]
     X:     1.0634      Y:    -1.1129      Z:    -0.4811     Total:     1.6127

*** Psi4 exiting successfully. Buy a developer a beer!
