                               Psi4 1.4a3.dev225

  ==> Input File <==

--------------------------------------------------------------------------
#psi4
#
memory 32 gb

molecule  {
0 1
  N        1.0430420     0.8835120     0.3262100
  C       -2.5935040    -0.1070206    -0.2981269
  C       -0.4170680    -1.0145740    -0.0079460
  C       -1.3683020    -0.3105490    -1.0112920
  C       -2.2166740     0.1783740     1.1559530
  C       -1.0996000    -0.8433070     1.3811970
  C       -3.6002280     0.9375310    -0.8724950
  C        0.9620280    -0.4146880    -0.0398380
  C        2.0893310    -1.1495780    -0.4236340
  C        3.3396130    -0.5322390    -0.4347340
  C        2.2533150     1.4653640     0.3147880
  C        3.4262710     0.8062240    -0.0568370
  H       -3.2284890    -1.0854330    -0.2500270
  H       -0.3333030    -2.0805640    -0.2540920
  H       -0.9618110     0.6780590    -1.2570810
  H       -1.4754410    -0.8694270    -1.9482280
  H       -3.0167220     0.1138590     1.9027270
  H       -1.8007770     1.1928100     1.1867420
  H       -0.3855780    -0.5294870     2.1482020
  H       -1.5277920    -1.8013410     1.6997400
  H       -3.8772320     0.6843320    -1.9011880
  H       -4.5228040     1.0497910    -0.2936460
  H       -3.0892320     1.9062640    -0.8879070
  H        1.9842510    -2.1936970    -0.7089060
  H        4.2276210    -1.0857940    -0.7310670
  H        2.2780980     2.5111560     0.6184940
  H        4.3773590     1.3311980    -0.0481150
units angstrom
no_reorient  #important for SAPT in psi4, default
symmetry c1  #important for SAPT in psi4, default
}

set PROPERTIES_ORIGIN ["COM"]
properties('MP2/aug-cc-pvtz', properties = ['dipole'])
--------------------------------------------------------------------------

    Molecular point group: c1
  Charge       = 0
  Multiplicity = 1
  Basis Set: AUG-CC-PVTZ
    Blend: AUG-CC-PVTZ
  Basis Set: (AUG-CC-PVTZ AUX)
    Blend: AUG-CC-PVTZ-JKFIT

    Orbital Energies [Eh]
    ---------------------

    Doubly Occupied:

       1A    -15.558478     2A    -11.275873     3A    -11.274768
       4A    -11.258360     5A    -11.236324     6A    -11.235604
       7A    -11.227384     8A    -11.217790     9A    -11.211151
      10A    -11.206836    11A    -11.206719    12A    -11.204052
      13A     -1.252458    14A     -1.137441    15A     -1.082370
      16A     -1.046620    17A     -0.989010    18A     -0.960308
      19A     -0.898460    20A     -0.855554    21A     -0.836631
      22A     -0.768008    23A     -0.746641    24A     -0.698042
      25A     -0.670593    26A     -0.644000    27A     -0.641736
      28A     -0.609827    29A     -0.582566    30A     -0.578822
      31A     -0.574322    32A     -0.551371    33A     -0.537067
      34A     -0.528017    35A     -0.510731    36A     -0.488145
      37A     -0.470980    38A     -0.466673    39A     -0.453169
      40A     -0.439244    41A     -0.426479    42A     -0.409014
      43A     -0.377252    44A     -0.332772

  @DF-RHF Final Energy:  -479.88345435860390

   => Energetics <=

    Nuclear Repulsion Energy =            687.2990363040734110
    One-Electron Energy =               -2013.0096578985742326
    Two-Electron Energy =                 845.8271672358970363
    Total Energy =                       -479.8834543586038990
  Basis Set: (AUG-CC-PVTZ AUX)
    Blend: AUG-CC-PVTZ-RI
    Molecular point group: c1

    Geometry (in Angstrom), charge = 0, multiplicity = 1:

       Center              X                  Y                   Z               Mass
    ------------   -----------------  -----------------  -----------------  -----------------
         N            0.965663257900     0.881161809685     0.324209360762    14.003074004430
         C           -2.670882742100    -0.109370790315    -0.300127539238    12.000000000000
         C           -0.494446742100    -1.016924190315    -0.009946639238    12.000000000000
         C           -1.445680742100    -0.312899190315    -1.013292639238    12.000000000000
         C           -2.294052742100     0.176023809685     1.153952360762    12.000000000000
         C           -1.176978742100    -0.845657190315     1.379196360762    12.000000000000
         C           -3.677606742100     0.935180809685    -0.874495639238    12.000000000000
         C            0.884649257900    -0.417038190315    -0.041838639238    12.000000000000
         C            2.011952257900    -1.151928190315    -0.425634639238    12.000000000000
         C            3.262234257900    -0.534589190315    -0.436734639238    12.000000000000
         C            2.175936257900     1.463013809685     0.312787360762    12.000000000000
         C            3.348892257900     0.803873809685    -0.058837639238    12.000000000000
         H           -3.305867742100    -1.087783190315    -0.252027639238     1.007825032230
         H           -0.410681742100    -2.082914190315    -0.256092639238     1.007825032230
         H           -1.039189742100     0.675708809685    -1.259081639238     1.007825032230
         H           -1.552819742100    -0.871777190315    -1.950228639238     1.007825032230
         H           -3.094100742100     0.111508809685     1.900726360762     1.007825032230
         H           -1.878155742100     1.190459809685     1.184741360762     1.007825032230
         H           -0.462956742100    -0.531837190315     2.146201360762     1.007825032230
         H           -1.605170742100    -1.803691190315     1.697739360762     1.007825032230
         H           -3.954610742100     0.681981809685    -1.903188639238     1.007825032230
         H           -4.600182742100     1.047440809685    -0.295646639238     1.007825032230
         H           -3.166610742100     1.903913809685    -0.889907639238     1.007825032230
         H            1.906872257900    -2.196047190315    -0.710906639238     1.007825032230
         H            4.150242257900    -1.088144190315    -0.733067639238     1.007825032230
         H            2.200719257900     2.508805809685     0.616493360762     1.007825032230
         H            4.299980257900     1.328847809685    -0.050115639238     1.007825032230

  Basis Set: AUG-CC-PVTZ
    Blend: AUG-CC-PVTZ
  Basis Set: (AUG-CC-PVTZ AUX)
    Blend: AUG-CC-PVTZ-JKFIT
	 Reference Energy          =    -479.8834543586038990 [Eh]
	 Singles Energy            =      -0.0000000000000000 [Eh]
	 Same-Spin Energy          =      -0.5336104334824775 [Eh]
	 Opposite-Spin Energy      =      -1.7466718440552822 [Eh]
	 Correlation Energy        =      -2.2802822775377596 [Eh]
	 Total Energy              =    -482.1637366361416639 [Eh]

	 ================> DF-SCS-MP2 Energies <==================
	-----------------------------------------------------------
	 SCS Same-Spin Scale       =       0.3333333333333333 [-]
	 SCS Opposite-Spin Scale   =       1.2000000000000000 [-]
	 SCS Same-Spin Energy      =      -0.1778701444941592 [Eh]
	 SCS Opposite-Spin Energy  =      -2.0960062128663384 [Eh]
	 SCS Correlation Energy    =      -2.2738763573604976 [Eh]
	 SCS Total Energy          =    -482.1573307159644060 [Eh]
	-----------------------------------------------------------

  Dipole Moment: [D]
     X:     1.4149      Y:    -1.0503      Z:    -0.4851     Total:     1.8276

*** Psi4 exiting successfully. Buy a developer a beer!
