                               Psi4 1.4a3.dev225

  ==> Input File <==

--------------------------------------------------------------------------
#psi4
#
memory 32 gb

molecule  {
0 1
  N        1.0663291     0.8828803     0.3225366
  C       -2.6935940    -0.1236090    -0.2650160
  C       -0.4170680    -1.0145740    -0.0079460
  C       -1.3683020    -0.3105490    -1.0112920
  C       -2.2166740     0.1783740     1.1559530
  C       -1.0996000    -0.8433070     1.3811970
  C       -3.6002280     0.9375310    -0.8724950
  C        0.9620280    -0.4146880    -0.0398380
  C        2.0893310    -1.1495780    -0.4236340
  C        3.3396130    -0.5322390    -0.4347340
  C        2.2533150     1.4653640     0.3147880
  C        3.4262710     0.8062240    -0.0568370
  H       -3.2284890    -1.0854330    -0.2500270
  H       -0.3333030    -2.0805640    -0.2540920
  H       -0.9618110     0.6780590    -1.2570810
  H       -1.4754410    -0.8694270    -1.9482280
  H       -3.0167220     0.1138590     1.9027270
  H       -1.8007770     1.1928100     1.1867420
  H       -0.3855780    -0.5294870     2.1482020
  H       -1.5277920    -1.8013410     1.6997400
  H       -3.8772320     0.6843320    -1.9011880
  H       -4.5228040     1.0497910    -0.2936460
  H       -3.0892320     1.9062640    -0.8879070
  H        1.9842510    -2.1936970    -0.7089060
  H        4.2276210    -1.0857940    -0.7310670
  H        2.2780980     2.5111560     0.6184940
  H        4.3773590     1.3311980    -0.0481150
units angstrom
no_reorient  #important for SAPT in psi4, default
symmetry c1  #important for SAPT in psi4, default
}

set PROPERTIES_ORIGIN ["COM"]
properties('MP2/aug-cc-pvtz', properties = ['dipole'])
--------------------------------------------------------------------------

    Molecular point group: c1
  Charge       = 0
  Multiplicity = 1
  Basis Set: AUG-CC-PVTZ
    Blend: AUG-CC-PVTZ
  Basis Set: (AUG-CC-PVTZ AUX)
    Blend: AUG-CC-PVTZ-JKFIT

    Orbital Energies [Eh]
    ---------------------

    Doubly Occupied:

       1A    -15.555062     2A    -11.275307     3A    -11.271746
       4A    -11.256860     5A    -11.234927     6A    -11.234621
       7A    -11.226838     8A    -11.214921     9A    -11.211776
      10A    -11.210102    11A    -11.205493    12A    -11.204112
      13A     -1.256180    14A     -1.128262    15A     -1.081331
      16A     -1.047676    17A     -0.991468    18A     -0.955080
      19A     -0.894090    20A     -0.853984    21A     -0.838632
      22A     -0.765475    23A     -0.755992    24A     -0.697472
      25A     -0.668449    26A     -0.641007    27A     -0.640288
      28A     -0.608173    29A     -0.585435    30A     -0.578078
      31A     -0.574345    32A     -0.552101    33A     -0.539440
      34A     -0.528220    35A     -0.512726    36A     -0.473589
      37A     -0.469432    38A     -0.461340    39A     -0.453504
      40A     -0.447381    41A     -0.439747    42A     -0.406118
      43A     -0.378176    44A     -0.331340

  @DF-RHF Final Energy:  -479.89755504546235

   => Energetics <=

    Nuclear Repulsion Energy =            686.0599739212397026
    One-Electron Energy =               -2010.6024676390479726
    Two-Electron Energy =                 844.6449386723458019
    Total Energy =                       -479.8975550454623544
  Basis Set: (AUG-CC-PVTZ AUX)
    Blend: AUG-CC-PVTZ-RI
    Molecular point group: c1

    Geometry (in Angstrom), charge = 0, multiplicity = 1:

       Center              X                  Y                   Z               Mass
    ------------   -----------------  -----------------  -----------------  -----------------
         N            0.994381009429     0.881820489289     0.318389169905    14.003074004430
         C           -2.765542090571    -0.124668810711    -0.269163430095    12.000000000000
         C           -0.489016090571    -1.015633810711    -0.012093430095    12.000000000000
         C           -1.440250090571    -0.311608810711    -1.015439430095    12.000000000000
         C           -2.288622090571     0.177314189289     1.151805569905    12.000000000000
         C           -1.171548090571    -0.844366810711     1.377049569905    12.000000000000
         C           -3.672176090571     0.936471189289    -0.876642430095    12.000000000000
         C            0.890079909429    -0.415747810711    -0.043985430095    12.000000000000
         C            2.017382909429    -1.150637810711    -0.427781430095    12.000000000000
         C            3.267664909429    -0.533298810711    -0.438881430095    12.000000000000
         C            2.181366909429     1.464304189289     0.310640569905    12.000000000000
         C            3.354322909429     0.805164189289    -0.060984430095    12.000000000000
         H           -3.300437090571    -1.086492810711    -0.254174430095     1.007825032230
         H           -0.405251090571    -2.081623810711    -0.258239430095     1.007825032230
         H           -1.033759090571     0.676999189289    -1.261228430095     1.007825032230
         H           -1.547389090571    -0.870486810711    -1.952375430095     1.007825032230
         H           -3.088670090571     0.112799189289     1.898579569905     1.007825032230
         H           -1.872725090571     1.191750189289     1.182594569905     1.007825032230
         H           -0.457526090571    -0.530546810711     2.144054569905     1.007825032230
         H           -1.599740090571    -1.802400810711     1.695592569905     1.007825032230
         H           -3.949180090571     0.683272189289    -1.905335430095     1.007825032230
         H           -4.594752090571     1.048731189289    -0.297793430095     1.007825032230
         H           -3.161180090571     1.905204189289    -0.892054430095     1.007825032230
         H            1.912302909429    -2.194756810711    -0.713053430095     1.007825032230
         H            4.155672909429    -1.086853810711    -0.735214430095     1.007825032230
         H            2.206149909429     2.510096189289     0.614346569905     1.007825032230
         H            4.305410909429     1.330138189289    -0.052262430095     1.007825032230

  Basis Set: AUG-CC-PVTZ
    Blend: AUG-CC-PVTZ
  Basis Set: (AUG-CC-PVTZ AUX)
    Blend: AUG-CC-PVTZ-JKFIT
	 Reference Energy          =    -479.8975550454623544 [Eh]
	 Singles Energy            =      -0.0000000000000000 [Eh]
	 Same-Spin Energy          =      -0.5325402712254971 [Eh]
	 Opposite-Spin Energy      =      -1.7447740922722161 [Eh]
	 Correlation Energy        =      -2.2773143634977133 [Eh]
	 Total Energy              =    -482.1748694089600917 [Eh]

	 ================> DF-SCS-MP2 Energies <==================
	-----------------------------------------------------------
	 SCS Same-Spin Scale       =       0.3333333333333333 [-]
	 SCS Opposite-Spin Scale   =       1.2000000000000000 [-]
	 SCS Same-Spin Energy      =      -0.1775134237418323 [Eh]
	 SCS Opposite-Spin Energy  =      -2.0937289107266595 [Eh]
	 SCS Correlation Energy    =      -2.2712423344684920 [Eh]
	 SCS Total Energy          =    -482.1687973799308224 [Eh]
	-----------------------------------------------------------

  Dipole Moment: [D]
     X:     1.2703      Y:    -1.0700      Z:    -0.4863     Total:     1.7306

*** Psi4 exiting successfully. Buy a developer a beer!
