                               Psi4 1.4a3.dev225

  ==> Input File <==

--------------------------------------------------------------------------
#psi4
#
memory 32 gb

molecule  {
0 1
  N        1.0430420     0.8835120     0.3262100
  C       -2.6935940    -0.1236090    -0.2650160
  C       -0.4170680    -1.0145740    -0.0079460
  C       -1.3683020    -0.3105490    -1.0112920
  C       -2.2166740     0.1783740     1.1559530
  C       -1.0996000    -0.8433070     1.3811970
  C       -3.6002280     0.9375310    -0.8724950
  C        0.9620280    -0.4146880    -0.0398380
  C        2.0893310    -1.1495780    -0.4236340
  C        3.3396130    -0.5322390    -0.4347340
  C        2.2533150     1.4653640     0.3147880
  C        3.4262710     0.8062240    -0.0568370
  H       -3.2284890    -1.0854330    -0.2500270
  H       -0.3333030    -2.0805640    -0.2540920
  H       -0.9618110     0.6780590    -1.2570810
  H       -1.4754410    -0.8694270    -1.9482280
  H       -3.0167220     0.1138590     1.9027270
  H       -1.8007770     1.1928100     1.1867420
  H       -0.3855780    -0.5294870     2.1482020
  H       -1.5277920    -1.8013410     1.6997400
  H       -3.8772320     0.6843320    -1.9011880
  H       -4.5228040     1.0497910    -0.2936460
  H       -3.0892320     1.9062640    -0.8879070
  H        1.9745883    -2.2897100    -0.7351385
  H        4.2276210    -1.0857940    -0.7310670
  H        2.2780980     2.5111560     0.6184940
  H        4.3773590     1.3311980    -0.0481150
units angstrom
no_reorient  #important for SAPT in psi4, default
symmetry c1  #important for SAPT in psi4, default
}

set PROPERTIES_ORIGIN ["COM"]
properties('MP2/aug-cc-pvtz', properties = ['dipole'])
--------------------------------------------------------------------------

    Molecular point group: c1
  Charge       = 0
  Multiplicity = 1
  Basis Set: AUG-CC-PVTZ
    Blend: AUG-CC-PVTZ
  Basis Set: (AUG-CC-PVTZ AUX)
    Blend: AUG-CC-PVTZ-JKFIT

    Orbital Energies [Eh]
    ---------------------

    Doubly Occupied:

       1A    -15.559015     2A    -11.276448     3A    -11.274941
       4A    -11.259093     5A    -11.246344     6A    -11.236731
       7A    -11.225995     8A    -11.214583     9A    -11.211353
      10A    -11.209663    11A    -11.205243    12A    -11.203711
      13A     -1.252648    14A     -1.127567    15A     -1.081490
      16A     -1.045623    17A     -0.990771    18A     -0.954535
      19A     -0.893752    20A     -0.852327    21A     -0.835987
      22A     -0.764548    23A     -0.755587    24A     -0.693669
      25A     -0.668075    26A     -0.640353    27A     -0.632411
      28A     -0.604671    29A     -0.584571    30A     -0.576568
      31A     -0.572730    32A     -0.551601    33A     -0.537308
      34A     -0.524846    35A     -0.510909    36A     -0.472629
      37A     -0.468640    38A     -0.460896    39A     -0.452716
      40A     -0.446996    41A     -0.439427    42A     -0.410317
      43A     -0.377772    44A     -0.332766

  @DF-RHF Final Energy:  -479.88914831127448

   => Energetics <=

    Nuclear Repulsion Energy =            685.3705488382379372
    One-Electron Energy =               -2009.2437414584442195
    Two-Electron Energy =                 843.9840443089317432
    Total Energy =                       -479.8891483112745391
  Basis Set: (AUG-CC-PVTZ AUX)
    Blend: AUG-CC-PVTZ-RI
    Molecular point group: c1

    Geometry (in Angstrom), charge = 0, multiplicity = 1:

       Center              X                  Y                   Z               Mass
    ------------   -----------------  -----------------  -----------------  -----------------
         N            0.973178246313     0.882997859086     0.321907399521    14.003074004430
         C           -2.763457753687    -0.124123140914    -0.269318600479    12.000000000000
         C           -0.486931753687    -1.015088140914    -0.012248600479    12.000000000000
         C           -1.438165753687    -0.311063140914    -1.015594600479    12.000000000000
         C           -2.286537753687     0.177859859086     1.151650399521    12.000000000000
         C           -1.169463753687    -0.843821140914     1.376894399521    12.000000000000
         C           -3.670091753687     0.937016859086    -0.876797600479    12.000000000000
         C            0.892164246313    -0.415202140914    -0.044140600479    12.000000000000
         C            2.019467246313    -1.150092140914    -0.427936600479    12.000000000000
         C            3.269749246313    -0.532753140914    -0.439036600479    12.000000000000
         C            2.183451246313     1.464849859086     0.310485399521    12.000000000000
         C            3.356407246313     0.805709859086    -0.061139600479    12.000000000000
         H           -3.298352753687    -1.085947140914    -0.254329600479     1.007825032230
         H           -0.403166753687    -2.081078140914    -0.258394600479     1.007825032230
         H           -1.031674753687     0.677544859086    -1.261383600479     1.007825032230
         H           -1.545304753687    -0.869941140914    -1.952530600479     1.007825032230
         H           -3.086585753687     0.113344859086     1.898424399521     1.007825032230
         H           -1.870640753687     1.192295859086     1.182439399521     1.007825032230
         H           -0.455441753687    -0.530001140914     2.143899399521     1.007825032230
         H           -1.597655753687    -1.801855140914     1.695437399521     1.007825032230
         H           -3.947095753687     0.683817859086    -1.905490600479     1.007825032230
         H           -4.592667753687     1.049276859086    -0.297948600479     1.007825032230
         H           -3.159095753687     1.905749859086    -0.892209600479     1.007825032230
         H            1.904724546313    -2.290224140914    -0.739441100479     1.007825032230
         H            4.157757246313    -1.086308140914    -0.735369600479     1.007825032230
         H            2.208234246313     2.510641859086     0.614191399521     1.007825032230
         H            4.307495246313     1.330683859086    -0.052417600479     1.007825032230

  Basis Set: AUG-CC-PVTZ
    Blend: AUG-CC-PVTZ
  Basis Set: (AUG-CC-PVTZ AUX)
    Blend: AUG-CC-PVTZ-JKFIT
	 Reference Energy          =    -479.8891483112744822 [Eh]
	 Singles Energy            =      -0.0000000000000000 [Eh]
	 Same-Spin Energy          =      -0.5330623873319519 [Eh]
	 Opposite-Spin Energy      =      -1.7465480125942427 [Eh]
	 Correlation Energy        =      -2.2796103999261947 [Eh]
	 Total Energy              =    -482.1687587112006668 [Eh]

	 ================> DF-SCS-MP2 Energies <==================
	-----------------------------------------------------------
	 SCS Same-Spin Scale       =       0.3333333333333333 [-]
	 SCS Opposite-Spin Scale   =       1.2000000000000000 [-]
	 SCS Same-Spin Energy      =      -0.1776874624439840 [Eh]
	 SCS Opposite-Spin Energy  =      -2.0958576151130912 [Eh]
	 SCS Correlation Energy    =      -2.2735450775570754 [Eh]
	 SCS Total Energy          =    -482.1626933888315421 [Eh]
	-----------------------------------------------------------

  Dipole Moment: [D]
     X:     1.3381      Y:    -1.0331      Z:    -0.4852     Total:     1.7587

*** Psi4 exiting successfully. Buy a developer a beer!
