                               Psi4 1.4a3.dev225

  ==> Input File <==

--------------------------------------------------------------------------
#psi4
#
memory 32 gb

molecule  {
0 1
  N        1.0430420     0.8835120     0.3262100
  C       -2.6935940    -0.1236090    -0.2650160
  C       -0.4170680    -1.0145740    -0.0079460
  C       -1.3683020    -0.3105490    -1.0112920
  C       -2.2166740     0.1783740     1.1559530
  C       -1.0996000    -0.8433070     1.3811970
  C       -3.6002280     0.9375310    -0.8724950
  C        0.8229169    -0.4049640    -0.0162111
  C        2.0893310    -1.1495780    -0.4236340
  C        3.3396130    -0.5322390    -0.4347340
  C        2.2533150     1.4653640     0.3147880
  C        3.4262710     0.8062240    -0.0568370
  H       -3.2284890    -1.0854330    -0.2500270
  H       -0.3333030    -2.0805640    -0.2540920
  H       -0.9618110     0.6780590    -1.2570810
  H       -1.4754410    -0.8694270    -1.9482280
  H       -3.0167220     0.1138590     1.9027270
  H       -1.8007770     1.1928100     1.1867420
  H       -0.3855780    -0.5294870     2.1482020
  H       -1.5277920    -1.8013410     1.6997400
  H       -3.8772320     0.6843320    -1.9011880
  H       -4.5228040     1.0497910    -0.2936460
  H       -3.0892320     1.9062640    -0.8879070
  H        1.9842510    -2.1936970    -0.7089060
  H        4.2276210    -1.0857940    -0.7310670
  H        2.2780980     2.5111560     0.6184940
  H        4.3773590     1.3311980    -0.0481150
units angstrom
no_reorient  #important for SAPT in psi4, default
symmetry c1  #important for SAPT in psi4, default
}

set PROPERTIES_ORIGIN ["COM"]
properties('MP2/aug-cc-pvtz', properties = ['dipole'])
--------------------------------------------------------------------------

    Molecular point group: c1
  Charge       = 0
  Multiplicity = 1
  Basis Set: AUG-CC-PVTZ
    Blend: AUG-CC-PVTZ
  Basis Set: (AUG-CC-PVTZ AUX)
    Blend: AUG-CC-PVTZ-JKFIT

    Orbital Energies [Eh]
    ---------------------

    Doubly Occupied:

       1A    -15.553012     2A    -11.287596     3A    -11.270763
       4A    -11.252154     5A    -11.242837     6A    -11.231940
       7A    -11.224617     8A    -11.218921     9A    -11.217827
      10A    -11.216497    11A    -11.208335    12A    -11.207965
      13A     -1.244378    14A     -1.139885    15A     -1.074830
      16A     -1.051792    17A     -0.989812    18A     -0.960843
      19A     -0.903647    20A     -0.846047    21A     -0.837726
      22A     -0.768459    23A     -0.761091    24A     -0.696295
      25A     -0.669273    26A     -0.648614    27A     -0.638721
      28A     -0.599191    29A     -0.592698    30A     -0.583601
      31A     -0.571052    32A     -0.553745    33A     -0.534320
      34A     -0.526935    35A     -0.520451    36A     -0.483169
      37A     -0.474909    38A     -0.466523    39A     -0.463829
      40A     -0.451197    41A     -0.444086    42A     -0.388449
      43A     -0.374752    44A     -0.313981

  @DF-RHF Final Energy:  -479.86778252307369

   => Energetics <=

    Nuclear Repulsion Energy =            686.3981355667546040
    One-Electron Energy =               -2011.1183053974102677
    Two-Electron Energy =                 844.8523873075821484
    Total Energy =                       -479.8677825230736289
  Basis Set: (AUG-CC-PVTZ AUX)
    Blend: AUG-CC-PVTZ-RI
    Molecular point group: c1

    Geometry (in Angstrom), charge = 0, multiplicity = 1:

       Center              X                  Y                   Z               Mass
    ------------   -----------------  -----------------  -----------------  -----------------
         N            0.983478583075     0.881673059500     0.319983617834    14.003074004430
         C           -2.753157416925    -0.125447940500    -0.271242382166    12.000000000000
         C           -0.476631416925    -1.016412940500    -0.014172382166    12.000000000000
         C           -1.427865416925    -0.312387940500    -1.017518382166    12.000000000000
         C           -2.276237416925     0.176535059500     1.149726617834    12.000000000000
         C           -1.159163416925    -0.845145940500     1.374970617834    12.000000000000
         C           -3.659791416925     0.935692059500    -0.878721382166    12.000000000000
         C            0.763353483075    -0.406802940500    -0.022437482166    12.000000000000
         C            2.029767583075    -1.151416940500    -0.429860382166    12.000000000000
         C            3.280049583075    -0.534077940500    -0.440960382166    12.000000000000
         C            2.193751583075     1.463525059500     0.308561617834    12.000000000000
         C            3.366707583075     0.804385059500    -0.063063382166    12.000000000000
         H           -3.288052416925    -1.087271940500    -0.256253382166     1.007825032230
         H           -0.392866416925    -2.082402940500    -0.260318382166     1.007825032230
         H           -1.021374416925     0.676220059500    -1.263307382166     1.007825032230
         H           -1.535004416925    -0.871265940500    -1.954454382166     1.007825032230
         H           -3.076285416925     0.112020059500     1.896500617834     1.007825032230
         H           -1.860340416925     1.190971059500     1.180515617834     1.007825032230
         H           -0.445141416925    -0.531325940500     2.141975617834     1.007825032230
         H           -1.587355416925    -1.803179940500     1.693513617834     1.007825032230
         H           -3.936795416925     0.682493059500    -1.907414382166     1.007825032230
         H           -4.582367416925     1.047952059500    -0.299872382166     1.007825032230
         H           -3.148795416925     1.904425059500    -0.894133382166     1.007825032230
         H            1.924687583075    -2.195535940500    -0.715132382166     1.007825032230
         H            4.168057583075    -1.087632940500    -0.737293382166     1.007825032230
         H            2.218534583075     2.509317059500     0.612267617834     1.007825032230
         H            4.317795583075     1.329359059500    -0.054341382166     1.007825032230

  Basis Set: AUG-CC-PVTZ
    Blend: AUG-CC-PVTZ
  Basis Set: (AUG-CC-PVTZ AUX)
    Blend: AUG-CC-PVTZ-JKFIT
	 Reference Energy          =    -479.8677825230736858 [Eh]
	 Singles Energy            =      -0.0000000000000000 [Eh]
	 Same-Spin Energy          =      -0.5350674468072854 [Eh]
	 Opposite-Spin Energy      =      -1.7489456824881895 [Eh]
	 Correlation Energy        =      -2.2840131292954746 [Eh]
	 Total Energy              =    -482.1517956523691737 [Eh]

	 ================> DF-SCS-MP2 Energies <==================
	-----------------------------------------------------------
	 SCS Same-Spin Scale       =       0.3333333333333333 [-]
	 SCS Opposite-Spin Scale   =       1.2000000000000000 [-]
	 SCS Same-Spin Energy      =      -0.1783558156024284 [Eh]
	 SCS Opposite-Spin Energy  =      -2.0987348189858275 [Eh]
	 SCS Correlation Energy    =      -2.2770906345882560 [Eh]
	 SCS Total Energy          =    -482.1448731576619480 [Eh]
	-----------------------------------------------------------

  Dipole Moment: [D]
     X:     0.7118      Y:    -1.1989      Z:    -0.4636     Total:     1.4693

*** Psi4 exiting successfully. Buy a developer a beer!
