                               Psi4 1.4a3.dev225

  ==> Input File <==

--------------------------------------------------------------------------
#psi4
#
memory 32 gb

molecule  {
0 1
  N        1.0430420     0.8835120     0.3262100
  C       -2.6935940    -0.1236090    -0.2650160
  C       -0.4170680    -1.0145740    -0.0079460
  C       -1.3683020    -0.3105490    -1.0112920
  C       -2.2166740     0.1783740     1.1559530
  C       -1.0996000    -0.8433070     1.3811970
  C       -3.6002280     0.9375310    -0.8724950
  C        0.9620280    -0.4146880    -0.0398380
  C        2.0893310    -1.1495780    -0.4236340
  C        3.3396130    -0.5322390    -0.4347340
  C        2.2533150     1.4653640     0.3147880
  C        3.4262710     0.8062240    -0.0568370
  H       -3.2284890    -1.0854330    -0.2500270
  H       -0.3333030    -2.0805640    -0.2540920
  H       -0.9618110     0.6780590    -1.2570810
  H       -1.4754410    -0.8694270    -1.9482280
  H       -3.0167220     0.1138590     1.9027270
  H       -1.8007770     1.1928100     1.1867420
  H       -0.3725233    -0.5237493     2.1622254
  H       -1.5277920    -1.8013410     1.6997400
  H       -3.8772320     0.6843320    -1.9011880
  H       -4.5228040     1.0497910    -0.2936460
  H       -3.0892320     1.9062640    -0.8879070
  H        1.9842510    -2.1936970    -0.7089060
  H        4.2276210    -1.0857940    -0.7310670
  H        2.2780980     2.5111560     0.6184940
  H        4.3773590     1.3311980    -0.0481150
units angstrom
no_reorient  #important for SAPT in psi4, default
symmetry c1  #important for SAPT in psi4, default
}

set PROPERTIES_ORIGIN ["COM"]
properties('MP2/aug-cc-pvtz', properties = ['dipole'])
--------------------------------------------------------------------------

    Molecular point group: c1
  Charge       = 0
  Multiplicity = 1
  Basis Set: AUG-CC-PVTZ
    Blend: AUG-CC-PVTZ
  Basis Set: (AUG-CC-PVTZ AUX)
    Blend: AUG-CC-PVTZ-JKFIT

    Orbital Energies [Eh]
    ---------------------

    Doubly Occupied:

       1A    -15.557966     2A    -11.275337     3A    -11.274322
       4A    -11.257915     5A    -11.235850     6A    -11.235087
       7A    -11.226348     8A    -11.214764     9A    -11.213790
      10A    -11.209854    11A    -11.205369    12A    -11.203908
      13A     -1.251834    14A     -1.127537    15A     -1.081829
      16A     -1.046505    17A     -0.990864    18A     -0.954602
      19A     -0.893612    20A     -0.855144    21A     -0.836394
      22A     -0.763591    23A     -0.755664    24A     -0.696524
      25A     -0.668117    26A     -0.640526    27A     -0.639869
      28A     -0.607237    29A     -0.584937    30A     -0.577590
      31A     -0.574067    32A     -0.551509    33A     -0.537843
      34A     -0.527022    35A     -0.511583    36A     -0.472656
      37A     -0.468909    38A     -0.461074    39A     -0.452622
      40A     -0.447022    41A     -0.439250    42A     -0.409996
      43A     -0.376925    44A     -0.332106

  @DF-RHF Final Energy:  -479.89602148993470

   => Energetics <=

    Nuclear Repulsion Energy =            685.7715548387628814
    One-Electron Energy =               -2010.0442134304603314
    Two-Electron Energy =                 844.3766371017628671
    Total Energy =                       -479.8960214899346965
  Basis Set: (AUG-CC-PVTZ AUX)
    Blend: AUG-CC-PVTZ-RI
    Molecular point group: c1

    Geometry (in Angstrom), charge = 0, multiplicity = 1:

       Center              X                  Y                   Z               Mass
    ------------   -----------------  -----------------  -----------------  -----------------
         N            0.973036146632     0.882361397961     0.321655594714    14.003074004430
         C           -2.763599853368    -0.124759602039    -0.269570405286    12.000000000000
         C           -0.487073853368    -1.015724602039    -0.012500405286    12.000000000000
         C           -1.438307853368    -0.311699602039    -1.015846405286    12.000000000000
         C           -2.286679853368     0.177223397961     1.151398594714    12.000000000000
         C           -1.169605853368    -0.844457602039     1.376642594714    12.000000000000
         C           -3.670233853368     0.936380397961    -0.877049405286    12.000000000000
         C            0.892022146632    -0.415838602039    -0.044392405286    12.000000000000
         C            2.019325146632    -1.150728602039    -0.428188405286    12.000000000000
         C            3.269607146632    -0.533389602039    -0.439288405286    12.000000000000
         C            2.183309146632     1.464213397961     0.310233594714    12.000000000000
         C            3.356265146632     0.805073397961    -0.061391405286    12.000000000000
         H           -3.298494853368    -1.086583602039    -0.254581405286     1.007825032230
         H           -0.403308853368    -2.081714602039    -0.258646405286     1.007825032230
         H           -1.031816853368     0.676908397961    -1.261635405286     1.007825032230
         H           -1.545446853368    -0.870577602039    -1.952782405286     1.007825032230
         H           -3.086727853368     0.112708397961     1.898172594714     1.007825032230
         H           -1.870782853368     1.191659397961     1.182187594714     1.007825032230
         H           -0.442529153368    -0.524899902039     2.157670994714     1.007825032230
         H           -1.597797853368    -1.802491602039     1.695185594714     1.007825032230
         H           -3.947237853368     0.683181397961    -1.905742405286     1.007825032230
         H           -4.592809853368     1.048640397961    -0.298200405286     1.007825032230
         H           -3.159237853368     1.905113397961    -0.892461405286     1.007825032230
         H            1.914245146632    -2.194847602039    -0.713460405286     1.007825032230
         H            4.157615146632    -1.086944602039    -0.735621405286     1.007825032230
         H            2.208092146632     2.510005397961     0.613939594714     1.007825032230
         H            4.307353146632     1.330047397961    -0.052669405286     1.007825032230

  Basis Set: AUG-CC-PVTZ
    Blend: AUG-CC-PVTZ
  Basis Set: (AUG-CC-PVTZ AUX)
    Blend: AUG-CC-PVTZ-JKFIT
	 Reference Energy          =    -479.8960214899346965 [Eh]
	 Singles Energy            =      -0.0000000000000000 [Eh]
	 Same-Spin Energy          =      -0.5328177669698165 [Eh]
	 Opposite-Spin Energy      =      -1.7457162371687467 [Eh]
	 Correlation Energy        =      -2.2785340041385633 [Eh]
	 Total Energy              =    -482.1745554940732745 [Eh]

	 ================> DF-SCS-MP2 Energies <==================
	-----------------------------------------------------------
	 SCS Same-Spin Scale       =       0.3333333333333333 [-]
	 SCS Opposite-Spin Scale   =       1.2000000000000000 [-]
	 SCS Same-Spin Energy      =      -0.1776059223232722 [Eh]
	 SCS Opposite-Spin Energy  =      -2.0948594846024959 [Eh]
	 SCS Correlation Energy    =      -2.2724654069257681 [Eh]
	 SCS Total Energy          =    -482.1684868968604860 [Eh]
	-----------------------------------------------------------

  Dipole Moment: [D]
     X:     1.3216      Y:    -1.0689      Z:    -0.5061     Total:     1.7735

*** Psi4 exiting successfully. Buy a developer a beer!
