                               Psi4 1.4a3.dev225

  ==> Input File <==

--------------------------------------------------------------------------
#psi4
#
memory 32 gb

molecule  {
0 1
  N        1.0430420     0.8835120     0.3262100
  C       -2.6935940    -0.1236090    -0.2650160
  C       -0.4170680    -1.0145740    -0.0079460
  C       -1.3683020    -0.3105490    -1.0112920
  C       -2.2166740     0.1783740     1.1559530
  C       -1.0996000    -0.8433070     1.3811970
  C       -3.6002280     0.9375310    -0.8724950
  C        0.9481659    -0.4344671    -0.0434585
  C        2.0893310    -1.1495780    -0.4236340
  C        3.3396130    -0.5322390    -0.4347340
  C        2.2533150     1.4653640     0.3147880
  C        3.4262710     0.8062240    -0.0568370
  H       -3.2284890    -1.0854330    -0.2500270
  H       -0.3333030    -2.0805640    -0.2540920
  H       -0.9618110     0.6780590    -1.2570810
  H       -1.4754410    -0.8694270    -1.9482280
  H       -3.0167220     0.1138590     1.9027270
  H       -1.8007770     1.1928100     1.1867420
  H       -0.3855780    -0.5294870     2.1482020
  H       -1.5277920    -1.8013410     1.6997400
  H       -3.8772320     0.6843320    -1.9011880
  H       -4.5228040     1.0497910    -0.2936460
  H       -3.0892320     1.9062640    -0.8879070
  H        1.9842510    -2.1936970    -0.7089060
  H        4.2276210    -1.0857940    -0.7310670
  H        2.2780980     2.5111560     0.6184940
  H        4.3773590     1.3311980    -0.0481150
units angstrom
no_reorient  #important for SAPT in psi4, default
symmetry c1  #important for SAPT in psi4, default
}

set PROPERTIES_ORIGIN ["COM"]
properties('MP2/aug-cc-pvtz', properties = ['dipole'])
--------------------------------------------------------------------------

    Molecular point group: c1
  Charge       = 0
  Multiplicity = 1
  Basis Set: AUG-CC-PVTZ
    Blend: AUG-CC-PVTZ
  Basis Set: (AUG-CC-PVTZ AUX)
    Blend: AUG-CC-PVTZ-JKFIT

    Orbital Energies [Eh]
    ---------------------

    Doubly Occupied:

       1A    -15.558585     2A    -11.276497     3A    -11.273897
       4A    -11.257849     5A    -11.235678     6A    -11.235095
       7A    -11.226041     8A    -11.215089     9A    -11.212216
      10A    -11.210528    11A    -11.205585    12A    -11.204148
      13A     -1.246117    14A     -1.128919    15A     -1.080013
      16A     -1.048299    17A     -0.991411    18A     -0.955780
      19A     -0.895272    20A     -0.853548    21A     -0.836448
      22A     -0.765602    23A     -0.756307    24A     -0.695760
      25A     -0.668811    26A     -0.641340    27A     -0.638635
      28A     -0.608511    29A     -0.584882    30A     -0.577840
      31A     -0.573984    32A     -0.551969    33A     -0.536311
      34A     -0.526158    35A     -0.512478    36A     -0.474661
      37A     -0.469997    38A     -0.461684    39A     -0.453584
      40A     -0.447928    41A     -0.440024    42A     -0.409189
      43A     -0.375224    44A     -0.331045

  @DF-RHF Final Energy:  -479.89471658274681

   => Energetics <=

    Nuclear Repulsion Energy =            685.7547835103941907
    One-Electron Energy =               -2010.0011247860152253
    Two-Electron Energy =                 844.3516246928742248
    Total Energy =                       -479.8947165827468098
  Basis Set: (AUG-CC-PVTZ AUX)
    Blend: AUG-CC-PVTZ-RI
    Molecular point group: c1

    Geometry (in Angstrom), charge = 0, multiplicity = 1:

       Center              X                  Y                   Z               Mass
    ------------   -----------------  -----------------  -----------------  -----------------
         N            0.974150232734     0.883870404412     0.322012961726    14.003074004430
         C           -2.762485767266    -0.123250595588    -0.269213038274    12.000000000000
         C           -0.485959767266    -1.014215595588    -0.012143038274    12.000000000000
         C           -1.437193767266    -0.310190595588    -1.015489038274    12.000000000000
         C           -2.285565767266     0.178732404412     1.151755961726    12.000000000000
         C           -1.168491767266    -0.842948595588     1.376999961726    12.000000000000
         C           -3.669119767266     0.937889404412    -0.876692038274    12.000000000000
         C            0.879274132734    -0.434108695588    -0.047655538274    12.000000000000
         C            2.020439232734    -1.149219595588    -0.427831038274    12.000000000000
         C            3.270721232734    -0.531880595588    -0.438931038274    12.000000000000
         C            2.184423232734     1.465722404412     0.310590961726    12.000000000000
         C            3.357379232734     0.806582404412    -0.061034038274    12.000000000000
         H           -3.297380767266    -1.085074595588    -0.254224038274     1.007825032230
         H           -0.402194767266    -2.080205595588    -0.258289038274     1.007825032230
         H           -1.030702767266     0.678417404412    -1.261278038274     1.007825032230
         H           -1.544332767266    -0.869068595588    -1.952425038274     1.007825032230
         H           -3.085613767266     0.114217404412     1.898529961726     1.007825032230
         H           -1.869668767266     1.193168404412     1.182544961726     1.007825032230
         H           -0.454469767266    -0.529128595588     2.144004961726     1.007825032230
         H           -1.596683767266    -1.800982595588     1.695542961726     1.007825032230
         H           -3.946123767266     0.684690404412    -1.905385038274     1.007825032230
         H           -4.591695767266     1.050149404412    -0.297843038274     1.007825032230
         H           -3.158123767266     1.906622404412    -0.892104038274     1.007825032230
         H            1.915359232734    -2.193338595588    -0.713103038274     1.007825032230
         H            4.158729232734    -1.085435595588    -0.735264038274     1.007825032230
         H            2.209206232734     2.511514404412     0.614296961726     1.007825032230
         H            4.308467232734     1.331556404412    -0.052312038274     1.007825032230

  Basis Set: AUG-CC-PVTZ
    Blend: AUG-CC-PVTZ
  Basis Set: (AUG-CC-PVTZ AUX)
    Blend: AUG-CC-PVTZ-JKFIT
	 Reference Energy          =    -479.8947165827468098 [Eh]
	 Singles Energy            =      -0.0000000000000000 [Eh]
	 Same-Spin Energy          =      -0.5331769507937225 [Eh]
	 Opposite-Spin Energy      =      -1.7462750057446916 [Eh]
	 Correlation Energy        =      -2.2794519565384141 [Eh]
	 Total Energy              =    -482.1741685392852332 [Eh]

	 ================> DF-SCS-MP2 Energies <==================
	-----------------------------------------------------------
	 SCS Same-Spin Scale       =       0.3333333333333333 [-]
	 SCS Opposite-Spin Scale   =       1.2000000000000000 [-]
	 SCS Same-Spin Energy      =      -0.1777256502645742 [Eh]
	 SCS Opposite-Spin Energy  =      -2.0955300068936298 [Eh]
	 SCS Correlation Energy    =      -2.2732556571582041 [Eh]
	 SCS Total Energy          =    -482.1679722399049979 [Eh]
	-----------------------------------------------------------

  Dipole Moment: [D]
     X:     1.2646      Y:    -1.0821      Z:    -0.4918     Total:     1.7355

*** Psi4 exiting successfully. Buy a developer a beer!
