                               Psi4 1.4a3.dev225

  ==> Input File <==

--------------------------------------------------------------------------
#psi4
#
memory 32 gb

molecule  {
0 1
  N        1.0430420     0.8835120     0.3262100
  C       -2.6935940    -0.1236090    -0.2650160
  C       -0.4170680    -1.0145740    -0.0079460
  C       -1.3683020    -0.3105490    -1.0112920
  C       -2.2166740     0.1783740     1.1559530
  C       -1.0996000    -0.8433070     1.3811970
  C       -3.6002280     0.9375310    -0.8724950
  C        0.9620280    -0.4146880    -0.0398380
  C        2.0893310    -1.1495780    -0.4236340
  C        3.3396130    -0.5322390    -0.4347340
  C        2.2533150     1.4653640     0.3147880
  C        3.4250272     0.7870137    -0.0622608
  H       -3.2284890    -1.0854330    -0.2500270
  H       -0.3333030    -2.0805640    -0.2540920
  H       -0.9618110     0.6780590    -1.2570810
  H       -1.4754410    -0.8694270    -1.9482280
  H       -3.0167220     0.1138590     1.9027270
  H       -1.8007770     1.1928100     1.1867420
  H       -0.3855780    -0.5294870     2.1482020
  H       -1.5277920    -1.8013410     1.6997400
  H       -3.8772320     0.6843320    -1.9011880
  H       -4.5228040     1.0497910    -0.2936460
  H       -3.0892320     1.9062640    -0.8879070
  H        1.9842510    -2.1936970    -0.7089060
  H        4.2276210    -1.0857940    -0.7310670
  H        2.2780980     2.5111560     0.6184940
  H        4.3773590     1.3311980    -0.0481150
units angstrom
no_reorient  #important for SAPT in psi4, default
symmetry c1  #important for SAPT in psi4, default
}

set PROPERTIES_ORIGIN ["COM"]
properties('MP2/aug-cc-pvtz', properties = ['dipole'])
--------------------------------------------------------------------------

    Molecular point group: c1
  Charge       = 0
  Multiplicity = 1
  Basis Set: AUG-CC-PVTZ
    Blend: AUG-CC-PVTZ
  Basis Set: (AUG-CC-PVTZ AUX)
    Blend: AUG-CC-PVTZ-JKFIT

    Orbital Energies [Eh]
    ---------------------

    Doubly Occupied:

       1A    -15.558551     2A    -11.276075     3A    -11.274581
       4A    -11.255248     5A    -11.235919     6A    -11.234712
       7A    -11.225855     8A    -11.214476     9A    -11.211203
      10A    -11.209508    11A    -11.205168    12A    -11.203609
      13A     -1.252269    14A     -1.127437    15A     -1.084789
      16A     -1.045725    17A     -0.990691    18A     -0.954305
      19A     -0.893243    20A     -0.856584    21A     -0.835992
      22A     -0.764293    23A     -0.755495    24A     -0.697029
      25A     -0.667357    26A     -0.640839    27A     -0.639658
      28A     -0.607731    29A     -0.585409    30A     -0.577489
      31A     -0.572175    32A     -0.552053    33A     -0.538717
      34A     -0.527762    35A     -0.511993    36A     -0.473194
      37A     -0.468973    38A     -0.460971    39A     -0.452585
      40A     -0.446942    41A     -0.439439    42A     -0.409380
      43A     -0.379047    44A     -0.331067

  @DF-RHF Final Energy:  -479.89614188902078

   => Energetics <=

    Nuclear Repulsion Energy =            686.0566140428892368
    One-Electron Energy =               -2010.6144334314765274
    Two-Electron Energy =                 844.6616774995663945
    Total Energy =                       -479.8961418890207824
  Basis Set: (AUG-CC-PVTZ AUX)
    Blend: AUG-CC-PVTZ-RI
    Molecular point group: c1

    Geometry (in Angstrom), charge = 0, multiplicity = 1:

       Center              X                  Y                   Z               Mass
    ------------   -----------------  -----------------  -----------------  -----------------
         N            0.973210441413     0.883828041075     0.322147268700    14.003074004430
         C           -2.763425558587    -0.123292958925    -0.269078731300    12.000000000000
         C           -0.486899558587    -1.014257958925    -0.012008731300    12.000000000000
         C           -1.438133558587    -0.310232958925    -1.015354731300    12.000000000000
         C           -2.286505558587     0.178690041075     1.151890268700    12.000000000000
         C           -1.169431558587    -0.842990958925     1.377134268700    12.000000000000
         C           -3.670059558587     0.937847041075    -0.876557731300    12.000000000000
         C            0.892196441413    -0.414371958925    -0.043900731300    12.000000000000
         C            2.019499441413    -1.149261958925    -0.427696731300    12.000000000000
         C            3.269781441413    -0.531922958925    -0.438796731300    12.000000000000
         C            2.183483441413     1.465680041075     0.310725268700    12.000000000000
         C            3.355195641413     0.787329741075    -0.066323531300    12.000000000000
         H           -3.298320558587    -1.085116958925    -0.254089731300     1.007825032230
         H           -0.403134558587    -2.080247958925    -0.258154731300     1.007825032230
         H           -1.031642558587     0.678375041075    -1.261143731300     1.007825032230
         H           -1.545272558587    -0.869110958925    -1.952290731300     1.007825032230
         H           -3.086553558587     0.114175041075     1.898664268700     1.007825032230
         H           -1.870608558587     1.193126041075     1.182679268700     1.007825032230
         H           -0.455409558587    -0.529170958925     2.144139268700     1.007825032230
         H           -1.597623558587    -1.801024958925     1.695677268700     1.007825032230
         H           -3.947063558587     0.684648041075    -1.905250731300     1.007825032230
         H           -4.592635558587     1.050107041075    -0.297708731300     1.007825032230
         H           -3.159063558587     1.906580041075    -0.891969731300     1.007825032230
         H            1.914419441413    -2.193380958925    -0.712968731300     1.007825032230
         H            4.157789441413    -1.085477958925    -0.735129731300     1.007825032230
         H            2.208266441413     2.511472041075     0.614431268700     1.007825032230
         H            4.307527441413     1.331514041075    -0.052177731300     1.007825032230

  Basis Set: AUG-CC-PVTZ
    Blend: AUG-CC-PVTZ
  Basis Set: (AUG-CC-PVTZ AUX)
    Blend: AUG-CC-PVTZ-JKFIT
	 Reference Energy          =    -479.8961418890207824 [Eh]
	 Singles Energy            =      -0.0000000000000000 [Eh]
	 Same-Spin Energy          =      -0.5328210990503968 [Eh]
	 Opposite-Spin Energy      =      -1.7455582983561764 [Eh]
	 Correlation Energy        =      -2.2783793974065731 [Eh]
	 Total Energy              =    -482.1745212864273640 [Eh]

	 ================> DF-SCS-MP2 Energies <==================
	-----------------------------------------------------------
	 SCS Same-Spin Scale       =       0.3333333333333333 [-]
	 SCS Opposite-Spin Scale   =       1.2000000000000000 [-]
	 SCS Same-Spin Energy      =      -0.1776070330167989 [Eh]
	 SCS Opposite-Spin Energy  =      -2.0946699580274117 [Eh]
	 SCS Correlation Energy    =      -2.2722769910442104 [Eh]
	 SCS Total Energy          =    -482.1684188800650190 [Eh]
	-----------------------------------------------------------

  Dipole Moment: [D]
     X:     1.3337      Y:    -1.0565      Z:    -0.4906     Total:     1.7707

*** Psi4 exiting successfully. Buy a developer a beer!
