                               Psi4 1.4a3.dev225

  ==> Input File <==

--------------------------------------------------------------------------
#psi4
#
memory 32 gb

molecule  {
0 1
  N        1.0430420     0.8835120     0.3262100
  C       -2.6935940    -0.1236090    -0.2650160
  C       -0.4170680    -1.0145740    -0.0079460
  C       -1.3683020    -0.3105490    -1.0112920
  C       -2.2166740     0.1783740     1.1559530
  C       -1.0996000    -0.8433070     1.3811970
  C       -3.6002280     0.9375310    -0.8724950
  C        0.9620280    -0.4146880    -0.0398380
  C        2.0893310    -1.1495780    -0.4236340
  C        3.3396130    -0.5322390    -0.4347340
  C        2.2533150     1.4653640     0.3147880
  C        3.4262710     0.8062240    -0.0568370
  H       -3.2284890    -1.0854330    -0.2500270
  H       -0.3333030    -2.0805640    -0.2540920
  H       -0.9618110     0.6780590    -1.2570810
  H       -1.4754410    -0.8694270    -1.9482280
  H       -3.0167220     0.1138590     1.9027270
  H       -1.8007770     1.1928100     1.1867420
  H       -0.4508513    -0.5581753     2.0780851
  H       -1.5277920    -1.8013410     1.6997400
  H       -3.8772320     0.6843320    -1.9011880
  H       -4.5228040     1.0497910    -0.2936460
  H       -3.0892320     1.9062640    -0.8879070
  H        1.9842510    -2.1936970    -0.7089060
  H        4.2276210    -1.0857940    -0.7310670
  H        2.2780980     2.5111560     0.6184940
  H        4.3773590     1.3311980    -0.0481150
units angstrom
no_reorient  #important for SAPT in psi4, default
symmetry c1  #important for SAPT in psi4, default
}

set PROPERTIES_ORIGIN ["COM"]
properties('MP2/aug-cc-pvtz', properties = ['dipole'])
--------------------------------------------------------------------------

    Molecular point group: c1
  Charge       = 0
  Multiplicity = 1
  Basis Set: AUG-CC-PVTZ
    Blend: AUG-CC-PVTZ
  Basis Set: (AUG-CC-PVTZ AUX)
    Blend: AUG-CC-PVTZ-JKFIT

    Orbital Energies [Eh]
    ---------------------

    Doubly Occupied:

       1A    -15.558226     2A    -11.275333     3A    -11.274510
       4A    -11.258084     5A    -11.236048     6A    -11.235229
       7A    -11.225248     8A    -11.213901     9A    -11.209082
      10A    -11.204698    11A    -11.202912    12A    -11.199056
      13A     -1.252061    14A     -1.127946    15A     -1.082002
      16A     -1.046379    17A     -0.993847    18A     -0.956113
      19A     -0.894980    20A     -0.855559    21A     -0.838915
      22A     -0.769503    23A     -0.755307    24A     -0.698271
      25A     -0.668136    26A     -0.643362    27A     -0.639810
      28A     -0.611880    29A     -0.585173    30A     -0.577192
      31A     -0.574022    32A     -0.553387    33A     -0.539196
      34A     -0.527316    35A     -0.513084    36A     -0.476495
      37A     -0.468742    38A     -0.460871    39A     -0.453018
      40A     -0.446952    41A     -0.440330    42A     -0.410057
      43A     -0.377266    44A     -0.332197

  @DF-RHF Final Energy:  -479.89096463162650

   => Energetics <=

    Nuclear Repulsion Energy =            686.3589122948422983
    One-Electron Energy =               -2011.1763602529781565
    Two-Electron Energy =                 844.9264833265092420
    Total Energy =                       -479.8909646316265025
  Basis Set: (AUG-CC-PVTZ AUX)
    Blend: AUG-CC-PVTZ-RI
    Molecular point group: c1

    Geometry (in Angstrom), charge = 0, multiplicity = 1:

       Center              X                  Y                   Z               Mass
    ------------   -----------------  -----------------  -----------------  -----------------
         N            0.973526096352     0.882576736142     0.322181900970    14.003074004430
         C           -2.763109903648    -0.124544263858    -0.269044099030    12.000000000000
         C           -0.486583903648    -1.015509263858    -0.011974099030    12.000000000000
         C           -1.437817903648    -0.311484263858    -1.015320099030    12.000000000000
         C           -2.286189903648     0.177438736142     1.151924900970    12.000000000000
         C           -1.169115903648    -0.844242263858     1.377168900970    12.000000000000
         C           -3.669743903648     0.936595736142    -0.876523099030    12.000000000000
         C            0.892512096352    -0.415623263858    -0.043866099030    12.000000000000
         C            2.019815096352    -1.150513263858    -0.427662099030    12.000000000000
         C            3.270097096352    -0.533174263858    -0.438762099030    12.000000000000
         C            2.183799096352     1.464428736142     0.310759900970    12.000000000000
         C            3.356755096352     0.805288736142    -0.060865099030    12.000000000000
         H           -3.298004903648    -1.086368263858    -0.254055099030     1.007825032230
         H           -0.402818903648    -2.081499263858    -0.258120099030     1.007825032230
         H           -1.031326903648     0.677123736142    -1.261109099030     1.007825032230
         H           -1.544956903648    -0.870362263858    -1.952256099030     1.007825032230
         H           -3.086237903648     0.112923736142     1.898698900970     1.007825032230
         H           -1.870292903648     1.191874736142     1.182713900970     1.007825032230
         H           -0.520367203648    -0.559110563858     2.074057000970     1.007825032230
         H           -1.597307903648    -1.802276263858     1.695711900970     1.007825032230
         H           -3.946747903648     0.683396736142    -1.905216099030     1.007825032230
         H           -4.592319903648     1.048855736142    -0.297674099030     1.007825032230
         H           -3.158747903648     1.905328736142    -0.891935099030     1.007825032230
         H            1.914735096352    -2.194632263858    -0.712934099030     1.007825032230
         H            4.158105096352    -1.086729263858    -0.735095099030     1.007825032230
         H            2.208582096352     2.510220736142     0.614465900970     1.007825032230
         H            4.307843096352     1.330262736142    -0.052143099030     1.007825032230

  Basis Set: AUG-CC-PVTZ
    Blend: AUG-CC-PVTZ
  Basis Set: (AUG-CC-PVTZ AUX)
    Blend: AUG-CC-PVTZ-JKFIT
	 Reference Energy          =    -479.8909646316265025 [Eh]
	 Singles Energy            =      -0.0000000000000000 [Eh]
	 Same-Spin Energy          =      -0.5326619621894642 [Eh]
	 Opposite-Spin Energy      =      -1.7448595500038282 [Eh]
	 Correlation Energy        =      -2.2775215121932924 [Eh]
	 Total Energy              =    -482.1684861438197913 [Eh]

	 ================> DF-SCS-MP2 Energies <==================
	-----------------------------------------------------------
	 SCS Same-Spin Scale       =       0.3333333333333333 [-]
	 SCS Opposite-Spin Scale   =       1.2000000000000000 [-]
	 SCS Same-Spin Energy      =      -0.1775539873964880 [Eh]
	 SCS Opposite-Spin Energy  =      -2.0938314600045937 [Eh]
	 SCS Correlation Energy    =      -2.2713854474010819 [Eh]
	 SCS Total Energy          =    -482.1623500790275898 [Eh]
	-----------------------------------------------------------

  Dipole Moment: [D]
     X:     1.3703      Y:    -1.0789      Z:    -0.4482     Total:     1.8007

*** Psi4 exiting successfully. Buy a developer a beer!
