                               Psi4 1.4a3.dev225

  ==> Input File <==

--------------------------------------------------------------------------
#psi4
#
memory 32 gb

molecule  {
0 1
  N        1.0430420     0.8835120     0.3262100
  C       -2.6935940    -0.1236090    -0.2650160
  C       -0.4170680    -1.0145740    -0.0079460
  C       -1.3683020    -0.3105490    -1.0112920
  C       -2.2166740     0.1783740     1.1559530
  C       -1.0996000    -0.8433070     1.3811970
  C       -3.6002280     0.9375310    -0.8724950
  C        0.9620280    -0.4146880    -0.0398380
  C        2.0893310    -1.1495780    -0.4236340
  C        3.3396130    -0.5322390    -0.4347340
  C        2.2533150     1.4653640     0.3147880
  C        3.4262710     0.8062240    -0.0568370
  H       -3.2284890    -1.0854330    -0.2500270
  H       -0.3333030    -2.0805640    -0.2540920
  H       -0.9618110     0.6780590    -1.2570810
  H       -1.4754410    -0.8694270    -1.9482280
  H       -3.0167220     0.1138590     1.9027270
  H       -1.8007770     1.1928100     1.1867420
  H       -0.3855780    -0.5294870     2.1482020
  H       -1.5199829    -1.7838690     1.6939306
  H       -3.8772320     0.6843320    -1.9011880
  H       -4.5228040     1.0497910    -0.2936460
  H       -3.0892320     1.9062640    -0.8879070
  H        1.9842510    -2.1936970    -0.7089060
  H        4.2276210    -1.0857940    -0.7310670
  H        2.2780980     2.5111560     0.6184940
  H        4.3773590     1.3311980    -0.0481150
units angstrom
no_reorient  #important for SAPT in psi4, default
symmetry c1  #important for SAPT in psi4, default
}

set PROPERTIES_ORIGIN ["COM"]
properties('MP2/aug-cc-pvtz', properties = ['dipole'])
--------------------------------------------------------------------------

    Molecular point group: c1
  Charge       = 0
  Multiplicity = 1
  Basis Set: AUG-CC-PVTZ
    Blend: AUG-CC-PVTZ
  Basis Set: (AUG-CC-PVTZ AUX)
    Blend: AUG-CC-PVTZ-JKFIT

    Orbital Energies [Eh]
    ---------------------

    Doubly Occupied:

       1A    -15.557892     2A    -11.275229     3A    -11.274271
       4A    -11.257865     5A    -11.235789     6A    -11.235013
       7A    -11.225971     8A    -11.214558     9A    -11.209631
      10A    -11.208860    11A    -11.205201    12A    -11.203499
      13A     -1.251765    14A     -1.127650    15A     -1.081771
      16A     -1.046382    17A     -0.991647    18A     -0.954986
      19A     -0.893898    20A     -0.855123    21A     -0.837211
      22A     -0.765378    23A     -0.755544    24A     -0.696695
      25A     -0.668319    26A     -0.640633    27A     -0.640122
      28A     -0.607915    29A     -0.585929    30A     -0.577914
      31A     -0.574045    32A     -0.551855    33A     -0.537977
      34A     -0.526979    35A     -0.512069    36A     -0.473091
      37A     -0.468991    38A     -0.460933    39A     -0.453918
      40A     -0.446961    41A     -0.439443    42A     -0.409902
      43A     -0.376908    44A     -0.332035

  @DF-RHF Final Energy:  -479.89667465008023

   => Energetics <=

    Nuclear Repulsion Energy =            685.9729450800788300
    One-Electron Energy =               -2010.4436959718900653
    Two-Electron Energy =                 844.5740762417310634
    Total Energy =                       -479.8966746500802856
  Basis Set: (AUG-CC-PVTZ AUX)
    Blend: AUG-CC-PVTZ-RI
    Molecular point group: c1

    Geometry (in Angstrom), charge = 0, multiplicity = 1:

       Center              X                  Y                   Z               Mass
    ------------   -----------------  -----------------  -----------------  -----------------
         N            0.973068958401     0.882287998704     0.321779650924    14.003074004430
         C           -2.763567041599    -0.124833001296    -0.269446349076    12.000000000000
         C           -0.487041041599    -1.015798001296    -0.012376349076    12.000000000000
         C           -1.438275041599    -0.311773001296    -1.015722349076    12.000000000000
         C           -2.286647041599     0.177149998704     1.151522650924    12.000000000000
         C           -1.169573041599    -0.844531001296     1.376766650924    12.000000000000
         C           -3.670201041599     0.936306998704    -0.876925349076    12.000000000000
         C            0.892054958401    -0.415912001296    -0.044268349076    12.000000000000
         C            2.019357958401    -1.150802001296    -0.428064349076    12.000000000000
         C            3.269639958401    -0.533463001296    -0.439164349076    12.000000000000
         C            2.183341958401     1.464139998704     0.310357650924    12.000000000000
         C            3.356297958401     0.804999998704    -0.061267349076    12.000000000000
         H           -3.298462041599    -1.086657001296    -0.254457349076     1.007825032230
         H           -0.403276041599    -2.081788001296    -0.258522349076     1.007825032230
         H           -1.031784041599     0.676834998704    -1.261511349076     1.007825032230
         H           -1.545414041599    -0.870651001296    -1.952658349076     1.007825032230
         H           -3.086695041599     0.112634998704     1.898296650924     1.007825032230
         H           -1.870750041599     1.191585998704     1.182311650924     1.007825032230
         H           -0.455551041599    -0.530711001296     2.143771650924     1.007825032230
         H           -1.589955941599    -1.785093001296     1.689500250924     1.007825032230
         H           -3.947205041599     0.683107998704    -1.905618349076     1.007825032230
         H           -4.592777041599     1.048566998704    -0.298076349076     1.007825032230
         H           -3.159205041599     1.905039998704    -0.892337349076     1.007825032230
         H            1.914277958401    -2.194921001296    -0.713336349076     1.007825032230
         H            4.157647958401    -1.087018001296    -0.735497349076     1.007825032230
         H            2.208124958401     2.509931998704     0.614063650924     1.007825032230
         H            4.307385958401     1.329973998704    -0.052545349076     1.007825032230

  Basis Set: AUG-CC-PVTZ
    Blend: AUG-CC-PVTZ
  Basis Set: (AUG-CC-PVTZ AUX)
    Blend: AUG-CC-PVTZ-JKFIT
	 Reference Energy          =    -479.8966746500802287 [Eh]
	 Singles Energy            =      -0.0000000000000000 [Eh]
	 Same-Spin Energy          =      -0.5327828809660614 [Eh]
	 Opposite-Spin Energy      =      -1.7454071397012851 [Eh]
	 Correlation Energy        =      -2.2781900206673464 [Eh]
	 Total Energy              =    -482.1748646707475814 [Eh]

	 ================> DF-SCS-MP2 Energies <==================
	-----------------------------------------------------------
	 SCS Same-Spin Scale       =       0.3333333333333333 [-]
	 SCS Opposite-Spin Scale   =       1.2000000000000000 [-]
	 SCS Same-Spin Energy      =      -0.1775942936553538 [Eh]
	 SCS Opposite-Spin Energy  =      -2.0944885676415419 [Eh]
	 SCS Correlation Energy    =      -2.2720828612968957 [Eh]
	 SCS Total Energy          =    -482.1687575113771231 [Eh]
	-----------------------------------------------------------

  Dipole Moment: [D]
     X:     1.3238      Y:    -1.0833      Z:    -0.4868     Total:     1.7785

*** Psi4 exiting successfully. Buy a developer a beer!
