                               Psi4 1.4a3.dev225

  ==> Input File <==

--------------------------------------------------------------------------
#psi4
#
memory 32 gb

molecule  {
0 1
  N        1.0430420     0.8835120     0.3262100
  C       -2.6935940    -0.1236090    -0.2650160
  C       -0.4170680    -1.0145740    -0.0079460
  C       -1.3683020    -0.3105490    -1.0112920
  C       -2.2166740     0.1783740     1.1559530
  C       -1.0996000    -0.8433070     1.3811970
  C       -3.6002280     0.9375310    -0.8724950
  C        0.9620280    -0.4146880    -0.0398380
  C        2.0893310    -1.1495780    -0.4236340
  C        3.3396130    -0.5322390    -0.4347340
  C        2.2533150     1.4653640     0.3147880
  C        3.4262710     0.8062240    -0.0568370
  H       -3.2284890    -1.0854330    -0.2500270
  H       -0.3333030    -2.0805640    -0.2540920
  H       -0.9618110     0.6780590    -1.2570810
  H       -1.4754410    -0.8694270    -1.9482280
  H       -3.0167220     0.1138590     1.9027270
  H       -1.7931933     1.2113079     1.1873034
  H       -0.3855780    -0.5294870     2.1482020
  H       -1.5277920    -1.8013410     1.6997400
  H       -3.8772320     0.6843320    -1.9011880
  H       -4.5228040     1.0497910    -0.2936460
  H       -3.0892320     1.9062640    -0.8879070
  H        1.9842510    -2.1936970    -0.7089060
  H        4.2276210    -1.0857940    -0.7310670
  H        2.2780980     2.5111560     0.6184940
  H        4.3773590     1.3311980    -0.0481150
units angstrom
no_reorient  #important for SAPT in psi4, default
symmetry c1  #important for SAPT in psi4, default
}

set PROPERTIES_ORIGIN ["COM"]
properties('MP2/aug-cc-pvtz', properties = ['dipole'])
--------------------------------------------------------------------------

    Molecular point group: c1
  Charge       = 0
  Multiplicity = 1
  Basis Set: AUG-CC-PVTZ
    Blend: AUG-CC-PVTZ
  Basis Set: (AUG-CC-PVTZ AUX)
    Blend: AUG-CC-PVTZ-JKFIT

    Orbital Energies [Eh]
    ---------------------

    Doubly Occupied:

       1A    -15.557970     2A    -11.275329     3A    -11.274333
       4A    -11.257935     5A    -11.235877     6A    -11.235114
       7A    -11.226199     8A    -11.214807     9A    -11.211606
      10A    -11.209749    11A    -11.206106    12A    -11.205237
      13A     -1.251852    14A     -1.127399    15A     -1.081847
      16A     -1.046406    17A     -0.991249    18A     -0.954255
      19A     -0.893711    20A     -0.855179    21A     -0.836419
      22A     -0.763839    23A     -0.754883    24A     -0.696780
      25A     -0.668135    26A     -0.640730    27A     -0.640010
      28A     -0.607701    29A     -0.585001    30A     -0.576581
      31A     -0.574071    32A     -0.551764    33A     -0.537752
      34A     -0.526989    35A     -0.511290    36A     -0.473275
      37A     -0.468992    38A     -0.461062    39A     -0.452114
      40A     -0.446372    41A     -0.439735    42A     -0.409883
      43A     -0.376972    44A     -0.332125

  @DF-RHF Final Energy:  -479.89606321945382

   => Energetics <=

    Nuclear Repulsion Energy =            685.7770212307447082
    One-Electron Energy =               -2010.0568956219424308
    Two-Electron Energy =                 844.3838111717437869
    Total Energy =                       -479.8960632194538221
  Basis Set: (AUG-CC-PVTZ AUX)
    Blend: AUG-CC-PVTZ-RI
    Molecular point group: c1

    Geometry (in Angstrom), charge = 0, multiplicity = 1:

       Center              X                  Y                   Z               Mass
    ------------   -----------------  -----------------  -----------------  -----------------
         N            0.973070368302     0.882281581594     0.321739800913    14.003074004430
         C           -2.763565631698    -0.124839418406    -0.269486199087    12.000000000000
         C           -0.487039631698    -1.015804418406    -0.012416199087    12.000000000000
         C           -1.438273631698    -0.311779418406    -1.015762199087    12.000000000000
         C           -2.286645631698     0.177143581594     1.151482800913    12.000000000000
         C           -1.169571631698    -0.844537418406     1.376726800913    12.000000000000
         C           -3.670199631698     0.936300581594    -0.876965199087    12.000000000000
         C            0.892056368302    -0.415918418406    -0.044308199087    12.000000000000
         C            2.019359368302    -1.150808418406    -0.428104199087    12.000000000000
         C            3.269641368302    -0.533469418406    -0.439204199087    12.000000000000
         C            2.183343368302     1.464133581594     0.310317800913    12.000000000000
         C            3.356299368302     0.804993581594    -0.061307199087    12.000000000000
         H           -3.298460631698    -1.086663418406    -0.254497199087     1.007825032230
         H           -0.403274631698    -2.081794418406    -0.258562199087     1.007825032230
         H           -1.031782631698     0.676828581594    -1.261551199087     1.007825032230
         H           -1.545412631698    -0.870657418406    -1.952698199087     1.007825032230
         H           -3.086693631698     0.112628581594     1.898256800913     1.007825032230
         H           -1.863164931698     1.210077481594     1.182833200913     1.007825032230
         H           -0.455549631698    -0.530717418406     2.143731800913     1.007825032230
         H           -1.597763631698    -1.802571418406     1.695269800913     1.007825032230
         H           -3.947203631698     0.683101581594    -1.905658199087     1.007825032230
         H           -4.592775631698     1.048560581594    -0.298116199087     1.007825032230
         H           -3.159203631698     1.905033581594    -0.892377199087     1.007825032230
         H            1.914279368302    -2.194927418406    -0.713376199087     1.007825032230
         H            4.157649368302    -1.087024418406    -0.735537199087     1.007825032230
         H            2.208126368302     2.509925581594     0.614023800913     1.007825032230
         H            4.307387368302     1.329967581594    -0.052585199087     1.007825032230

  Basis Set: AUG-CC-PVTZ
    Blend: AUG-CC-PVTZ
  Basis Set: (AUG-CC-PVTZ AUX)
    Blend: AUG-CC-PVTZ-JKFIT
	 Reference Energy          =    -479.8960632194538221 [Eh]
	 Singles Energy            =      -0.0000000000000000 [Eh]
	 Same-Spin Energy          =      -0.5328146186077640 [Eh]
	 Opposite-Spin Energy      =      -1.7457013912268557 [Eh]
	 Correlation Energy        =      -2.2785160098346200 [Eh]
	 Total Energy              =    -482.1745792292884403 [Eh]

	 ================> DF-SCS-MP2 Energies <==================
	-----------------------------------------------------------
	 SCS Same-Spin Scale       =       0.3333333333333333 [-]
	 SCS Opposite-Spin Scale   =       1.2000000000000000 [-]
	 SCS Same-Spin Energy      =      -0.1776048728692547 [Eh]
	 SCS Opposite-Spin Energy  =      -2.0948416694722267 [Eh]
	 SCS Correlation Energy    =      -2.2724465423414815 [Eh]
	 SCS Total Energy          =    -482.1685097617952920 [Eh]
	-----------------------------------------------------------

  Dipole Moment: [D]
     X:     1.3301      Y:    -1.0808      Z:    -0.4966     Total:     1.7844

*** Psi4 exiting successfully. Buy a developer a beer!
