                               Psi4 1.4a3.dev225

  ==> Input File <==

--------------------------------------------------------------------------
#psi4
#
memory 32 gb

molecule  {
0 1
  N        1.0430420     0.8835120     0.3262100
  C       -2.6935940    -0.1236090    -0.2650160
  C       -0.4170680    -1.0145740    -0.0079460
  C       -1.3250599    -0.3166486    -1.0356418
  C       -2.2166740     0.1783740     1.1559530
  C       -1.0996000    -0.8433070     1.3811970
  C       -3.6002280     0.9375310    -0.8724950
  C        0.9620280    -0.4146880    -0.0398380
  C        2.0893310    -1.1495780    -0.4236340
  C        3.3396130    -0.5322390    -0.4347340
  C        2.2533150     1.4653640     0.3147880
  C        3.4262710     0.8062240    -0.0568370
  H       -3.2284890    -1.0854330    -0.2500270
  H       -0.3333030    -2.0805640    -0.2540920
  H       -0.9618110     0.6780590    -1.2570810
  H       -1.4754410    -0.8694270    -1.9482280
  H       -3.0167220     0.1138590     1.9027270
  H       -1.8007770     1.1928100     1.1867420
  H       -0.3855780    -0.5294870     2.1482020
  H       -1.5277920    -1.8013410     1.6997400
  H       -3.8772320     0.6843320    -1.9011880
  H       -4.5228040     1.0497910    -0.2936460
  H       -3.0892320     1.9062640    -0.8879070
  H        1.9842510    -2.1936970    -0.7089060
  H        4.2276210    -1.0857940    -0.7310670
  H        2.2780980     2.5111560     0.6184940
  H        4.3773590     1.3311980    -0.0481150
units angstrom
no_reorient  #important for SAPT in psi4, default
symmetry c1  #important for SAPT in psi4, default
}

set PROPERTIES_ORIGIN ["COM"]
properties('MP2/aug-cc-pvtz', properties = ['dipole'])
--------------------------------------------------------------------------

    Molecular point group: c1
  Charge       = 0
  Multiplicity = 1
  Basis Set: AUG-CC-PVTZ
    Blend: AUG-CC-PVTZ
  Basis Set: (AUG-CC-PVTZ AUX)
    Blend: AUG-CC-PVTZ-JKFIT

    Orbital Energies [Eh]
    ---------------------

    Doubly Occupied:

       1A    -15.557727     2A    -11.274995     3A    -11.274250
       4A    -11.257756     5A    -11.235548     6A    -11.234687
       7A    -11.226024     8A    -11.216699     9A    -11.211731
      10A    -11.208556    11A    -11.204975    12A    -11.203588
      13A     -1.251772    14A     -1.124448    15A     -1.081555
      16A     -1.045341    17A     -0.990094    18A     -0.956846
      19A     -0.891989    20A     -0.855016    21A     -0.836630
      22A     -0.764038    23A     -0.756181    24A     -0.696744
      25A     -0.668514    26A     -0.640279    27A     -0.638847
      28A     -0.607044    29A     -0.584436    30A     -0.579381
      31A     -0.573526    32A     -0.551375    33A     -0.538405
      34A     -0.528715    35A     -0.512046    36A     -0.478262
      37A     -0.469990    38A     -0.462561    39A     -0.452801
      40A     -0.444965    41A     -0.432038    42A     -0.409108
      43A     -0.376860    44A     -0.331889

  @DF-RHF Final Energy:  -479.89476738135085

   => Energetics <=

    Nuclear Repulsion Energy =            685.5759160847351268
    One-Electron Energy =               -2009.6649012502480218
    Two-Electron Energy =                 844.1942177841619923
    Total Energy =                       -479.8947673813509027
  Basis Set: (AUG-CC-PVTZ AUX)
    Blend: AUG-CC-PVTZ-RI
    Molecular point group: c1

    Geometry (in Angstrom), charge = 0, multiplicity = 1:

       Center              X                  Y                   Z               Mass
    ------------   -----------------  -----------------  -----------------  -----------------
         N            0.969897200905     0.882851576569     0.323556847687    14.003074004430
         C           -2.766738799095    -0.124269423431    -0.267669152313    12.000000000000
         C           -0.490212799095    -1.015234423431    -0.010599152313    12.000000000000
         C           -1.398204699095    -0.317309023431    -1.038294952313    12.000000000000
         C           -2.289818799095     0.177713576569     1.153299847687    12.000000000000
         C           -1.172744799095    -0.843967423431     1.378543847687    12.000000000000
         C           -3.673372799095     0.936870576569    -0.875148152313    12.000000000000
         C            0.888883200905    -0.415348423431    -0.042491152313    12.000000000000
         C            2.016186200905    -1.150238423431    -0.426287152313    12.000000000000
         C            3.266468200905    -0.532899423431    -0.437387152313    12.000000000000
         C            2.180170200905     1.464703576569     0.312134847687    12.000000000000
         C            3.353126200905     0.805563576569    -0.059490152313    12.000000000000
         H           -3.301633799095    -1.086093423431    -0.252680152313     1.007825032230
         H           -0.406447799095    -2.081224423431    -0.256745152313     1.007825032230
         H           -1.034955799095     0.677398576569    -1.259734152313     1.007825032230
         H           -1.548585799095    -0.870087423431    -1.950881152313     1.007825032230
         H           -3.089866799095     0.113198576569     1.900073847687     1.007825032230
         H           -1.873921799095     1.192149576569     1.184088847687     1.007825032230
         H           -0.458722799095    -0.530147423431     2.145548847687     1.007825032230
         H           -1.600936799095    -1.802001423431     1.697086847687     1.007825032230
         H           -3.950376799095     0.683671576569    -1.903841152313     1.007825032230
         H           -4.595948799095     1.049130576569    -0.296299152313     1.007825032230
         H           -3.162376799095     1.905603576569    -0.890560152313     1.007825032230
         H            1.911106200905    -2.194357423431    -0.711559152313     1.007825032230
         H            4.154476200905    -1.086454423431    -0.733720152313     1.007825032230
         H            2.204953200905     2.510495576569     0.615840847687     1.007825032230
         H            4.304214200905     1.330537576569    -0.050768152313     1.007825032230

  Basis Set: AUG-CC-PVTZ
    Blend: AUG-CC-PVTZ
  Basis Set: (AUG-CC-PVTZ AUX)
    Blend: AUG-CC-PVTZ-JKFIT
	 Reference Energy          =    -479.8947673813508459 [Eh]
	 Singles Energy            =      -0.0000000000000000 [Eh]
	 Same-Spin Energy          =      -0.5326442121533053 [Eh]
	 Opposite-Spin Energy      =      -1.7455578953998119 [Eh]
	 Correlation Energy        =      -2.2782021075531169 [Eh]
	 Total Energy              =    -482.1729694889039592 [Eh]

	 ================> DF-SCS-MP2 Energies <==================
	-----------------------------------------------------------
	 SCS Same-Spin Scale       =       0.3333333333333333 [-]
	 SCS Opposite-Spin Scale   =       1.2000000000000000 [-]
	 SCS Same-Spin Energy      =      -0.1775480707177684 [Eh]
	 SCS Opposite-Spin Energy  =      -2.0946694744797743 [Eh]
	 SCS Correlation Energy    =      -2.2722175451975426 [Eh]
	 SCS Total Energy          =    -482.1669849265483663 [Eh]
	-----------------------------------------------------------

  Dipole Moment: [D]
     X:     1.3101      Y:    -1.0818      Z:    -0.5005     Total:     1.7712

*** Psi4 exiting successfully. Buy a developer a beer!
