                               Psi4 1.4a3.dev225

  ==> Input File <==

--------------------------------------------------------------------------
#psi4
#
memory 32 gb

molecule  {
0 1
  N        1.0430420     0.8835120     0.3262100
  C       -2.6935940    -0.1236090    -0.2650160
  C       -0.3508612    -1.1487260    -0.0570526
  C       -1.3683020    -0.3105490    -1.0112920
  C       -2.2166740     0.1783740     1.1559530
  C       -1.0996000    -0.8433070     1.3811970
  C       -3.6002280     0.9375310    -0.8724950
  C        0.9620280    -0.4146880    -0.0398380
  C        2.0893310    -1.1495780    -0.4236340
  C        3.3396130    -0.5322390    -0.4347340
  C        2.2533150     1.4653640     0.3147880
  C        3.4262710     0.8062240    -0.0568370
  H       -3.2284890    -1.0854330    -0.2500270
  H       -0.3333030    -2.0805640    -0.2540920
  H       -0.9618110     0.6780590    -1.2570810
  H       -1.4754410    -0.8694270    -1.9482280
  H       -3.0167220     0.1138590     1.9027270
  H       -1.8007770     1.1928100     1.1867420
  H       -0.3855780    -0.5294870     2.1482020
  H       -1.5277920    -1.8013410     1.6997400
  H       -3.8772320     0.6843320    -1.9011880
  H       -4.5228040     1.0497910    -0.2936460
  H       -3.0892320     1.9062640    -0.8879070
  H        1.9842510    -2.1936970    -0.7089060
  H        4.2276210    -1.0857940    -0.7310670
  H        2.2780980     2.5111560     0.6184940
  H        4.3773590     1.3311980    -0.0481150
units angstrom
no_reorient  #important for SAPT in psi4, default
symmetry c1  #important for SAPT in psi4, default
}

set PROPERTIES_ORIGIN ["COM"]
properties('MP2/aug-cc-pvtz', properties = ['dipole'])
--------------------------------------------------------------------------

    Molecular point group: c1
  Charge       = 0
  Multiplicity = 1
  Basis Set: AUG-CC-PVTZ
    Blend: AUG-CC-PVTZ
  Basis Set: (AUG-CC-PVTZ AUX)
    Blend: AUG-CC-PVTZ-JKFIT

    Orbital Energies [Eh]
    ---------------------

    Doubly Occupied:

       1A    -15.558644     2A    -11.277402     3A    -11.275067
       4A    -11.256275     5A    -11.234179     6A    -11.231475
       7A    -11.223431     8A    -11.216281     9A    -11.215476
      10A    -11.214770    11A    -11.205890    12A    -11.204701
      13A     -1.250619    14A     -1.117251    15A     -1.080610
      16A     -1.048857    17A     -0.986476    18A     -0.953128
      19A     -0.894097    20A     -0.854962    21A     -0.834543
      22A     -0.777969    23A     -0.754702    24A     -0.702819
      25A     -0.663553    26A     -0.645601    27A     -0.634598
      28A     -0.604267    29A     -0.593986    30A     -0.578613
      31A     -0.573472    32A     -0.551495    33A     -0.538448
      34A     -0.526933    35A     -0.516684    36A     -0.481005
      37A     -0.467081    38A     -0.458354    39A     -0.446681
      40A     -0.441403    41A     -0.437245    42A     -0.405595
      43A     -0.376220    44A     -0.326148

  @DF-RHF Final Energy:  -479.86670191338123

   => Energetics <=

    Nuclear Repulsion Energy =            683.8601886845829085
    One-Electron Energy =               -2006.1797672059431079
    Two-Electron Energy =                 842.4528766079789648
    Total Energy =                       -479.8667019133812346
  Basis Set: (AUG-CC-PVTZ AUX)
    Blend: AUG-CC-PVTZ-RI
    Molecular point group: c1

    Geometry (in Angstrom), charge = 0, multiplicity = 1:

       Center              X                  Y                   Z               Mass
    ------------   -----------------  -----------------  -----------------  -----------------
         N            0.968186825835     0.892388719774     0.325400695572    14.003074004430
         C           -2.768449174165    -0.114732280226    -0.265825304428    12.000000000000
         C           -0.425716374165    -1.139849280226    -0.057861904428    12.000000000000
         C           -1.443157174165    -0.301672280226    -1.012101304428    12.000000000000
         C           -2.291529174165     0.187250719774     1.155143695572    12.000000000000
         C           -1.174455174165    -0.834430280226     1.380387695572    12.000000000000
         C           -3.675083174165     0.946407719774    -0.873304304428    12.000000000000
         C            0.887172825835    -0.405811280226    -0.040647304428    12.000000000000
         C            2.014475825835    -1.140701280226    -0.424443304428    12.000000000000
         C            3.264757825835    -0.523362280226    -0.435543304428    12.000000000000
         C            2.178459825835     1.474240719774     0.313978695572    12.000000000000
         C            3.351415825835     0.815100719774    -0.057646304428    12.000000000000
         H           -3.303344174165    -1.076556280226    -0.250836304428     1.007825032230
         H           -0.408158174165    -2.071687280226    -0.254901304428     1.007825032230
         H           -1.036666174165     0.686935719774    -1.257890304428     1.007825032230
         H           -1.550296174165    -0.860550280226    -1.949037304428     1.007825032230
         H           -3.091577174165     0.122735719774     1.901917695572     1.007825032230
         H           -1.875632174165     1.201686719774     1.185932695572     1.007825032230
         H           -0.460433174165    -0.520610280226     2.147392695572     1.007825032230
         H           -1.602647174165    -1.792464280226     1.698930695572     1.007825032230
         H           -3.952087174165     0.693208719774    -1.901997304428     1.007825032230
         H           -4.597659174165     1.058667719774    -0.294455304428     1.007825032230
         H           -3.164087174165     1.915140719774    -0.888716304428     1.007825032230
         H            1.909395825835    -2.184820280226    -0.709715304428     1.007825032230
         H            4.152765825835    -1.076917280226    -0.731876304428     1.007825032230
         H            2.203242825835     2.520032719774     0.617684695572     1.007825032230
         H            4.302503825835     1.340074719774    -0.048924304428     1.007825032230

  Basis Set: AUG-CC-PVTZ
    Blend: AUG-CC-PVTZ
  Basis Set: (AUG-CC-PVTZ AUX)
    Blend: AUG-CC-PVTZ-JKFIT
	 Reference Energy          =    -479.8667019133812346 [Eh]
	 Singles Energy            =      -0.0000000000000000 [Eh]
	 Same-Spin Energy          =      -0.5326839825501607 [Eh]
	 Opposite-Spin Energy      =      -1.7462527090391773 [Eh]
	 Correlation Energy        =      -2.2789366915893381 [Eh]
	 Total Energy              =    -482.1456386049705998 [Eh]

	 ================> DF-SCS-MP2 Energies <==================
	-----------------------------------------------------------
	 SCS Same-Spin Scale       =       0.3333333333333333 [-]
	 SCS Opposite-Spin Scale   =       1.2000000000000000 [-]
	 SCS Same-Spin Energy      =      -0.1775613275167202 [Eh]
	 SCS Opposite-Spin Energy  =      -2.0955032508470128 [Eh]
	 SCS Correlation Energy    =      -2.2730645783637331 [Eh]
	 SCS Total Energy          =    -482.1397664917449788 [Eh]
	-----------------------------------------------------------

  Dipole Moment: [D]
     X:     1.2039      Y:    -1.1455      Z:    -0.5138     Total:     1.7394

*** Psi4 exiting successfully. Buy a developer a beer!
