                               Psi4 1.4a3.dev225

  ==> Input File <==

--------------------------------------------------------------------------
#psi4
#
memory 32 gb

molecule  {
0 1
  N        1.0430420     0.8835120     0.3262100
  C       -2.8392231    -0.1457097    -0.2024290
  C       -0.4170680    -1.0145740    -0.0079460
  C       -1.3683020    -0.3105490    -1.0112920
  C       -2.2166740     0.1783740     1.1559530
  C       -1.0996000    -0.8433070     1.3811970
  C       -3.6002280     0.9375310    -0.8724950
  C        0.9620280    -0.4146880    -0.0398380
  C        2.0893310    -1.1495780    -0.4236340
  C        3.3396130    -0.5322390    -0.4347340
  C        2.2533150     1.4653640     0.3147880
  C        3.4262710     0.8062240    -0.0568370
  H       -3.2284890    -1.0854330    -0.2500270
  H       -0.3333030    -2.0805640    -0.2540920
  H       -0.9618110     0.6780590    -1.2570810
  H       -1.4754410    -0.8694270    -1.9482280
  H       -3.0167220     0.1138590     1.9027270
  H       -1.8007770     1.1928100     1.1867420
  H       -0.3855780    -0.5294870     2.1482020
  H       -1.5277920    -1.8013410     1.6997400
  H       -3.8772320     0.6843320    -1.9011880
  H       -4.5228040     1.0497910    -0.2936460
  H       -3.0892320     1.9062640    -0.8879070
  H        1.9842510    -2.1936970    -0.7089060
  H        4.2276210    -1.0857940    -0.7310670
  H        2.2780980     2.5111560     0.6184940
  H        4.3773590     1.3311980    -0.0481150
units angstrom
no_reorient  #important for SAPT in psi4, default
symmetry c1  #important for SAPT in psi4, default
}

set PROPERTIES_ORIGIN ["COM"]
properties('MP2/aug-cc-pvtz', properties = ['dipole'])
--------------------------------------------------------------------------

    Molecular point group: c1
  Charge       = 0
  Multiplicity = 1
  Basis Set: AUG-CC-PVTZ
    Blend: AUG-CC-PVTZ
  Basis Set: (AUG-CC-PVTZ AUX)
    Blend: AUG-CC-PVTZ-JKFIT

    Orbital Energies [Eh]
    ---------------------

    Doubly Occupied:

       1A    -15.557379     2A    -11.274631     3A    -11.273824
       4A    -11.257380     5A    -11.235246     6A    -11.234395
       7A    -11.224722     8A    -11.215141     9A    -11.212148
      10A    -11.211843    11A    -11.205826    12A    -11.205461
      13A     -1.251150    14A     -1.118335    15A     -1.081181
      16A     -1.047549    17A     -0.995687    18A     -0.949506
      19A     -0.887106    20A     -0.854837    21A     -0.837427
      22A     -0.771394    23A     -0.760180    24A     -0.695574
      25A     -0.665627    26A     -0.639259    27A     -0.633799
      28A     -0.606318    29A     -0.590340    30A     -0.576456
      31A     -0.574341    32A     -0.553147    33A     -0.540323
      34A     -0.526002    35A     -0.518816    36A     -0.481488
      37A     -0.470122    38A     -0.468312    39A     -0.455301
      40A     -0.450263    41A     -0.412339    42A     -0.395032
      43A     -0.376189    44A     -0.330360

  @DF-RHF Final Energy:  -479.87457696199408

   => Energetics <=

    Nuclear Repulsion Energy =            683.8501526985595547
    One-Electron Energy =               -2006.2059465530760463
    Two-Electron Energy =                 842.4812168925222977
    Total Energy =                       -479.8745769619940802
  Basis Set: (AUG-CC-PVTZ AUX)
    Blend: AUG-CC-PVTZ-RI
    Molecular point group: c1

    Geometry (in Angstrom), charge = 0, multiplicity = 1:

       Center              X                  Y                   Z               Mass
    ------------   -----------------  -----------------  -----------------  -----------------
         N            0.983964033558     0.884043313562     0.317081930299    14.003074004430
         C           -2.898301066442    -0.145178386438    -0.211557069701    12.000000000000
         C           -0.476145966442    -1.014042686438    -0.017074069701    12.000000000000
         C           -1.427379966442    -0.310017686438    -1.020420069701    12.000000000000
         C           -2.275751966442     0.178905313562     1.146824930299    12.000000000000
         C           -1.158677966442    -0.842775686438     1.372068930299    12.000000000000
         C           -3.659305966442     0.938062313562    -0.881623069701    12.000000000000
         C            0.902950033558    -0.414156686438    -0.048966069701    12.000000000000
         C            2.030253033558    -1.149046686438    -0.432762069701    12.000000000000
         C            3.280535033558    -0.531707686438    -0.443862069701    12.000000000000
         C            2.194237033558     1.465895313562     0.305659930299    12.000000000000
         C            3.367193033558     0.806755313562    -0.065965069701    12.000000000000
         H           -3.287566966442    -1.084901686438    -0.259155069701     1.007825032230
         H           -0.392380966442    -2.080032686438    -0.263220069701     1.007825032230
         H           -1.020888966442     0.678590313562    -1.266209069701     1.007825032230
         H           -1.534518966442    -0.868895686438    -1.957356069701     1.007825032230
         H           -3.075799966442     0.114390313562     1.893598930299     1.007825032230
         H           -1.859854966442     1.193341313562     1.177613930299     1.007825032230
         H           -0.444655966442    -0.528955686438     2.139073930299     1.007825032230
         H           -1.586869966442    -1.800809686438     1.690611930299     1.007825032230
         H           -3.936309966442     0.684863313562    -1.910316069701     1.007825032230
         H           -4.581881966442     1.050322313562    -0.302774069701     1.007825032230
         H           -3.148309966442     1.906795313562    -0.897035069701     1.007825032230
         H            1.925173033558    -2.193165686438    -0.718034069701     1.007825032230
         H            4.168543033558    -1.085262686438    -0.740195069701     1.007825032230
         H            2.219020033558     2.511687313562     0.609365930299     1.007825032230
         H            4.318281033558     1.331729313562    -0.057243069701     1.007825032230

  Basis Set: AUG-CC-PVTZ
    Blend: AUG-CC-PVTZ
  Basis Set: (AUG-CC-PVTZ AUX)
    Blend: AUG-CC-PVTZ-JKFIT
	 Reference Energy          =    -479.8745769619940802 [Eh]
	 Singles Energy            =      -0.0000000000000000 [Eh]
	 Same-Spin Energy          =      -0.5332310341389677 [Eh]
	 Opposite-Spin Energy      =      -1.7469898633954581 [Eh]
	 Correlation Energy        =      -2.2802208975344258 [Eh]
	 Total Energy              =    -482.1547978595285144 [Eh]

	 ================> DF-SCS-MP2 Energies <==================
	-----------------------------------------------------------
	 SCS Same-Spin Scale       =       0.3333333333333333 [-]
	 SCS Opposite-Spin Scale   =       1.2000000000000000 [-]
	 SCS Same-Spin Energy      =      -0.1777436780463225 [Eh]
	 SCS Opposite-Spin Energy  =      -2.0963878360745496 [Eh]
	 SCS Correlation Energy    =      -2.2741315141208722 [Eh]
	 SCS Total Energy          =    -482.1487084761149617 [Eh]
	-----------------------------------------------------------

  Dipole Moment: [D]
     X:     1.2375      Y:    -1.0780      Z:    -0.4988     Total:     1.7154

*** Psi4 exiting successfully. Buy a developer a beer!
