                               Psi4 1.4a3.dev225

  ==> Input File <==

--------------------------------------------------------------------------
#psi4
#
memory 32 gb

molecule  {
0 1
  N        1.0430420     0.8835120     0.3262100
  C       -2.6935940    -0.1236090    -0.2650160
  C       -0.4170680    -1.0145740    -0.0079460
  C       -1.3683020    -0.3105490    -1.0112920
  C       -2.2166740     0.1783740     1.1559530
  C       -1.2455753    -0.7097973     1.3517629
  C       -3.6002280     0.9375310    -0.8724950
  C        0.9620280    -0.4146880    -0.0398380
  C        2.0893310    -1.1495780    -0.4236340
  C        3.3396130    -0.5322390    -0.4347340
  C        2.2533150     1.4653640     0.3147880
  C        3.4262710     0.8062240    -0.0568370
  H       -3.2284890    -1.0854330    -0.2500270
  H       -0.3333030    -2.0805640    -0.2540920
  H       -0.9618110     0.6780590    -1.2570810
  H       -1.4754410    -0.8694270    -1.9482280
  H       -3.0167220     0.1138590     1.9027270
  H       -1.8007770     1.1928100     1.1867420
  H       -0.3855780    -0.5294870     2.1482020
  H       -1.5277920    -1.8013410     1.6997400
  H       -3.8772320     0.6843320    -1.9011880
  H       -4.5228040     1.0497910    -0.2936460
  H       -3.0892320     1.9062640    -0.8879070
  H        1.9842510    -2.1936970    -0.7089060
  H        4.2276210    -1.0857940    -0.7310670
  H        2.2780980     2.5111560     0.6184940
  H        4.3773590     1.3311980    -0.0481150
units angstrom
no_reorient  #important for SAPT in psi4, default
symmetry c1  #important for SAPT in psi4, default
}

set PROPERTIES_ORIGIN ["COM"]
properties('MP2/aug-cc-pvtz', properties = ['dipole'])
--------------------------------------------------------------------------

    Molecular point group: c1
  Charge       = 0
  Multiplicity = 1
  Basis Set: AUG-CC-PVTZ
    Blend: AUG-CC-PVTZ
  Basis Set: (AUG-CC-PVTZ AUX)
    Blend: AUG-CC-PVTZ-JKFIT

    Orbital Energies [Eh]
    ---------------------

    Doubly Occupied:

       1A    -15.557917     2A    -11.275315     3A    -11.274151
       4A    -11.257925     5A    -11.235786     6A    -11.235369
       7A    -11.228630     8A    -11.221274     9A    -11.217261
      10A    -11.209733    11A    -11.206155    12A    -11.194408
      13A     -1.251535    14A     -1.146791    15A     -1.081977
      16A     -1.048354    17A     -1.000809    18A     -0.970612
      19A     -0.888619    20A     -0.854916    21A     -0.830050
      22A     -0.763366    23A     -0.755210    24A     -0.694917
      25A     -0.670458    26A     -0.647007    27A     -0.638671
      28A     -0.618808    29A     -0.585848    30A     -0.580553
      31A     -0.577538    32A     -0.553437    33A     -0.539370
      34A     -0.527714    35A     -0.511516    36A     -0.501874
      37A     -0.467463    38A     -0.458580    39A     -0.450161
      40A     -0.430603    41A     -0.417039    42A     -0.408988
      43A     -0.376099    44A     -0.329538

  @DF-RHF Final Energy:  -479.84752045403275

   => Energetics <=

    Nuclear Repulsion Energy =            687.4603671186771408
    One-Electron Energy =               -2013.2310835419614250
    Two-Electron Energy =                 845.9231959692515375
    Total Energy =                       -479.8475204540327468
  Basis Set: (AUG-CC-PVTZ AUX)
    Blend: AUG-CC-PVTZ-RI
    Molecular point group: c1

    Geometry (in Angstrom), charge = 0, multiplicity = 1:

       Center              X                  Y                   Z               Mass
    ------------   -----------------  -----------------  -----------------  -----------------
         N            0.983989817995     0.872453693462     0.323935518428    14.003074004430
         C           -2.752646182005    -0.134667306538    -0.267290481572    12.000000000000
         C           -0.476120182005    -1.025632306538    -0.010220481572    12.000000000000
         C           -1.427354182005    -0.321607306538    -1.013566481572    12.000000000000
         C           -2.275726182005     0.167315693462     1.153678518428    12.000000000000
         C           -1.304627482005    -0.720855606538     1.349488418428    12.000000000000
         C           -3.659280182005     0.926472693462    -0.874769481572    12.000000000000
         C            0.902975817995    -0.425746306538    -0.042112481572    12.000000000000
         C            2.030278817995    -1.160636306538    -0.425908481572    12.000000000000
         C            3.280560817995    -0.543297306538    -0.437008481572    12.000000000000
         C            2.194262817995     1.454305693462     0.312513518428    12.000000000000
         C            3.367218817995     0.795165693462    -0.059111481572    12.000000000000
         H           -3.287541182005    -1.096491306538    -0.252301481572     1.007825032230
         H           -0.392355182005    -2.091622306538    -0.256366481572     1.007825032230
         H           -1.020863182005     0.667000693462    -1.259355481572     1.007825032230
         H           -1.534493182005    -0.880485306538    -1.950502481572     1.007825032230
         H           -3.075774182005     0.102800693462     1.900452518428     1.007825032230
         H           -1.859829182005     1.181751693462     1.184467518428     1.007825032230
         H           -0.444630182005    -0.540545306538     2.145927518428     1.007825032230
         H           -1.586844182005    -1.812399306538     1.697465518428     1.007825032230
         H           -3.936284182005     0.673273693462    -1.903462481572     1.007825032230
         H           -4.581856182005     1.038732693462    -0.295920481572     1.007825032230
         H           -3.148284182005     1.895205693462    -0.890181481572     1.007825032230
         H            1.925198817995    -2.204755306538    -0.711180481572     1.007825032230
         H            4.168568817995    -1.096852306538    -0.733341481572     1.007825032230
         H            2.219045817995     2.500097693462     0.616219518428     1.007825032230
         H            4.318306817995     1.320139693462    -0.050389481572     1.007825032230

  Basis Set: AUG-CC-PVTZ
    Blend: AUG-CC-PVTZ
  Basis Set: (AUG-CC-PVTZ AUX)
    Blend: AUG-CC-PVTZ-JKFIT
	 Reference Energy          =    -479.8475204540327468 [Eh]
	 Singles Energy            =      -0.0000000000000000 [Eh]
	 Same-Spin Energy          =      -0.5357759319653563 [Eh]
	 Opposite-Spin Energy      =      -1.7492957446545527 [Eh]
	 Correlation Energy        =      -2.2850716766199088 [Eh]
	 Total Energy              =    -482.1325921306526539 [Eh]

	 ================> DF-SCS-MP2 Energies <==================
	-----------------------------------------------------------
	 SCS Same-Spin Scale       =       0.3333333333333333 [-]
	 SCS Opposite-Spin Scale   =       1.2000000000000000 [-]
	 SCS Same-Spin Energy      =      -0.1785919773217854 [Eh]
	 SCS Opposite-Spin Energy  =      -2.0991548935854634 [Eh]
	 SCS Correlation Energy    =      -2.2777468709072486 [Eh]
	 SCS Total Energy          =    -482.1252673249400118 [Eh]
	-----------------------------------------------------------

  Dipole Moment: [D]
     X:     1.2248      Y:    -0.9771      Z:    -0.5590     Total:     1.6636

*** Psi4 exiting successfully. Buy a developer a beer!
