                               Psi4 1.4a3.dev225

  ==> Input File <==

--------------------------------------------------------------------------
#psi4
#
memory 32 gb

molecule  {
0 1
  N        1.0430420     0.8835120     0.3262100
  C       -2.6935940    -0.1236090    -0.2650160
  C       -0.4170680    -1.0145740    -0.0079460
  C       -1.3683020    -0.3105490    -1.0112920
  C       -2.2166740     0.1783740     1.1559530
  C       -1.0996000    -0.8433070     1.3811970
  C       -3.6597895     1.0072428    -0.9124035
  C        0.9620280    -0.4146880    -0.0398380
  C        2.0893310    -1.1495780    -0.4236340
  C        3.3396130    -0.5322390    -0.4347340
  C        2.2533150     1.4653640     0.3147880
  C        3.4262710     0.8062240    -0.0568370
  H       -3.2284890    -1.0854330    -0.2500270
  H       -0.3333030    -2.0805640    -0.2540920
  H       -0.9618110     0.6780590    -1.2570810
  H       -1.4754410    -0.8694270    -1.9482280
  H       -3.0167220     0.1138590     1.9027270
  H       -1.8007770     1.1928100     1.1867420
  H       -0.3855780    -0.5294870     2.1482020
  H       -1.5277920    -1.8013410     1.6997400
  H       -3.8772320     0.6843320    -1.9011880
  H       -4.5228040     1.0497910    -0.2936460
  H       -3.0892320     1.9062640    -0.8879070
  H        1.9842510    -2.1936970    -0.7089060
  H        4.2276210    -1.0857940    -0.7310670
  H        2.2780980     2.5111560     0.6184940
  H        4.3773590     1.3311980    -0.0481150
units angstrom
no_reorient  #important for SAPT in psi4, default
symmetry c1  #important for SAPT in psi4, default
}

set PROPERTIES_ORIGIN ["COM"]
properties('MP2/aug-cc-pvtz', properties = ['dipole'])
--------------------------------------------------------------------------

    Molecular point group: c1
  Charge       = 0
  Multiplicity = 1
  Basis Set: AUG-CC-PVTZ
    Blend: AUG-CC-PVTZ
  Basis Set: (AUG-CC-PVTZ AUX)
    Blend: AUG-CC-PVTZ-JKFIT

    Orbital Energies [Eh]
    ---------------------

    Doubly Occupied:

       1A    -15.557953     2A    -11.275273     3A    -11.274313
       4A    -11.257896     5A    -11.235832     6A    -11.235052
       7A    -11.226075     8A    -11.218674     9A    -11.211353
      10A    -11.209558    11A    -11.203578    12A    -11.201964
      13A     -1.251807    14A     -1.124376    15A     -1.081720
      16A     -1.043141    17A     -0.984663    18A     -0.954242
      19A     -0.898361    20A     -0.855277    21A     -0.837114
      22A     -0.763680    23A     -0.753677    24A     -0.696412
      25A     -0.667855    26A     -0.639834    27A     -0.638627
      28A     -0.603979    29A     -0.585726    30A     -0.578801
      31A     -0.573977    32A     -0.561015    33A     -0.537226
      34A     -0.530697    35A     -0.519267    36A     -0.472870
      37A     -0.468692    38A     -0.452581    39A     -0.450356
      40A     -0.446338    41A     -0.435660    42A     -0.409249
      43A     -0.376929    44A     -0.331928

  @DF-RHF Final Energy:  -479.88925831155075

   => Energetics <=

    Nuclear Repulsion Energy =            684.1556635870875880
    One-Electron Energy =               -2006.8226482809309346
    Two-Electron Energy =                 842.7777263822927125
    Total Energy =                       -479.8892583115507477
  Basis Set: (AUG-CC-PVTZ AUX)
    Blend: AUG-CC-PVTZ-RI
    Molecular point group: c1

    Geometry (in Angstrom), charge = 0, multiplicity = 1:

       Center              X                  Y                   Z               Mass
    ------------   -----------------  -----------------  -----------------  -----------------
         N            0.977553852831     0.877205261636     0.324715635417    14.003074004430
         C           -2.759082147169    -0.129915738364    -0.266510364583    12.000000000000
         C           -0.482556147169    -1.020880738364    -0.009440364583    12.000000000000
         C           -1.433790147169    -0.316855738364    -1.012786364583    12.000000000000
         C           -2.282162147169     0.172067261636     1.154458635417    12.000000000000
         C           -1.165088147169    -0.849613738364     1.379702635417    12.000000000000
         C           -3.725277647169     1.000936061636    -0.913897864583    12.000000000000
         C            0.896539852831    -0.420994738364    -0.041332364583    12.000000000000
         C            2.023842852831    -1.155884738364    -0.425128364583    12.000000000000
         C            3.274124852831    -0.538545738364    -0.436228364583    12.000000000000
         C            2.187826852831     1.459057261636     0.313293635417    12.000000000000
         C            3.360782852831     0.799917261636    -0.058331364583    12.000000000000
         H           -3.293977147169    -1.091739738364    -0.251521364583     1.007825032230
         H           -0.398791147169    -2.086870738364    -0.255586364583     1.007825032230
         H           -1.027299147169     0.671752261636    -1.258575364583     1.007825032230
         H           -1.540929147169    -0.875733738364    -1.949722364583     1.007825032230
         H           -3.082210147169     0.107552261636     1.901232635417     1.007825032230
         H           -1.866265147169     1.186503261636     1.185247635417     1.007825032230
         H           -0.451066147169    -0.535793738364     2.146707635417     1.007825032230
         H           -1.593280147169    -1.807647738364     1.698245635417     1.007825032230
         H           -3.942720147169     0.678025261636    -1.902682364583     1.007825032230
         H           -4.588292147169     1.043484261636    -0.295140364583     1.007825032230
         H           -3.154720147169     1.899957261636    -0.889401364583     1.007825032230
         H            1.918762852831    -2.200003738364    -0.710400364583     1.007825032230
         H            4.162132852831    -1.092100738364    -0.732561364583     1.007825032230
         H            2.212609852831     2.504849261636     0.616999635417     1.007825032230
         H            4.311870852831     1.324891261636    -0.049609364583     1.007825032230

  Basis Set: AUG-CC-PVTZ
    Blend: AUG-CC-PVTZ
  Basis Set: (AUG-CC-PVTZ AUX)
    Blend: AUG-CC-PVTZ-JKFIT
	 Reference Energy          =    -479.8892583115507477 [Eh]
	 Singles Energy            =      -0.0000000000000000 [Eh]
	 Same-Spin Energy          =      -0.5325288165633169 [Eh]
	 Opposite-Spin Energy      =      -1.7456646085102907 [Eh]
	 Correlation Energy        =      -2.2781934250736073 [Eh]
	 Total Energy              =    -482.1674517366243435 [Eh]

	 ================> DF-SCS-MP2 Energies <==================
	-----------------------------------------------------------
	 SCS Same-Spin Scale       =       0.3333333333333333 [-]
	 SCS Opposite-Spin Scale   =       1.2000000000000000 [-]
	 SCS Same-Spin Energy      =      -0.1775096055211056 [Eh]
	 SCS Opposite-Spin Energy  =      -2.0947975302123489 [Eh]
	 SCS Correlation Energy    =      -2.2723071357334543 [Eh]
	 SCS Total Energy          =    -482.1615654472842039 [Eh]
	-----------------------------------------------------------

  Dipole Moment: [D]
     X:     1.3462      Y:    -1.0858      Z:    -0.4844     Total:     1.7961

*** Psi4 exiting successfully. Buy a developer a beer!
