                               Psi4 1.4a3.dev225

  ==> Input File <==

--------------------------------------------------------------------------
#psi4
#
memory 32 gb

molecule  {
0 1
  N        1.0430420     0.8835120     0.3262100
  C       -2.6935940    -0.1236090    -0.2650160
  C       -0.4170680    -1.0145740    -0.0079460
  C       -1.3683020    -0.3105490    -1.0112920
  C       -2.2166740     0.1783740     1.1559530
  C       -1.0996000    -0.8433070     1.3811970
  C       -3.6002280     0.9375310    -0.8724950
  C        1.0086713    -0.4147694    -0.0468340
  C        2.0893310    -1.1495780    -0.4236340
  C        3.3396130    -0.5322390    -0.4347340
  C        2.2533150     1.4653640     0.3147880
  C        3.4262710     0.8062240    -0.0568370
  H       -3.2284890    -1.0854330    -0.2500270
  H       -0.3333030    -2.0805640    -0.2540920
  H       -0.9618110     0.6780590    -1.2570810
  H       -1.4754410    -0.8694270    -1.9482280
  H       -3.0167220     0.1138590     1.9027270
  H       -1.8007770     1.1928100     1.1867420
  H       -0.3855780    -0.5294870     2.1482020
  H       -1.5277920    -1.8013410     1.6997400
  H       -3.8772320     0.6843320    -1.9011880
  H       -4.5228040     1.0497910    -0.2936460
  H       -3.0892320     1.9062640    -0.8879070
  H        1.9842510    -2.1936970    -0.7089060
  H        4.2276210    -1.0857940    -0.7310670
  H        2.2780980     2.5111560     0.6184940
  H        4.3773590     1.3311980    -0.0481150
units angstrom
no_reorient  #important for SAPT in psi4, default
symmetry c1  #important for SAPT in psi4, default
}

set PROPERTIES_ORIGIN ["COM"]
properties('MP2/aug-cc-pvtz', properties = ['dipole'])
--------------------------------------------------------------------------

    Molecular point group: c1
  Charge       = 0
  Multiplicity = 1
  Basis Set: AUG-CC-PVTZ
    Blend: AUG-CC-PVTZ
  Basis Set: (AUG-CC-PVTZ AUX)
    Blend: AUG-CC-PVTZ-JKFIT

    Orbital Energies [Eh]
    ---------------------

    Doubly Occupied:

       1A    -15.559600     2A    -11.275537     3A    -11.271204
       4A    -11.259617     5A    -11.236819     6A    -11.231659
       7A    -11.226356     8A    -11.213396     9A    -11.209648
      10A    -11.207861    11A    -11.204376    12A    -11.202530
      13A     -1.254864    14A     -1.124396    15A     -1.085540
      16A     -1.046166    17A     -0.991190    18A     -0.952548
      19A     -0.890774    20A     -0.859450    21A     -0.835688
      22A     -0.762488    23A     -0.753984    24A     -0.697497
      25A     -0.668311    26A     -0.641262    27A     -0.639443
      28A     -0.608522    29A     -0.583396    30A     -0.575510
      31A     -0.574680    32A     -0.551322    33A     -0.540162
      34A     -0.526883    35A     -0.508692    36A     -0.469603
      37A     -0.466703    38A     -0.459514    39A     -0.448967
      40A     -0.444555    41A     -0.438344    42A     -0.414569
      43A     -0.377930    44A     -0.338033

  @DF-RHF Final Energy:  -479.89484674032673

   => Energetics <=

    Nuclear Repulsion Energy =            685.7790926311590738
    One-Electron Energy =               -2010.0887020875909457
    Two-Electron Energy =                 844.4147627161052014
    Total Energy =                       -479.8948467403266704
  Basis Set: (AUG-CC-PVTZ AUX)
    Blend: AUG-CC-PVTZ-RI
    Molecular point group: c1

    Geometry (in Angstrom), charge = 0, multiplicity = 1:

       Center              X                  Y                   Z               Mass
    ------------   -----------------  -----------------  -----------------  -----------------
         N            0.969643884829     0.882403350412     0.322264363706    14.003074004430
         C           -2.766992115171    -0.124717649588    -0.268961636294    12.000000000000
         C           -0.490466115171    -1.015682649588    -0.011891636294    12.000000000000
         C           -1.441700115171    -0.311657649588    -1.015237636294    12.000000000000
         C           -2.290072115171     0.177265350412     1.152007363706    12.000000000000
         C           -1.172998115171    -0.844415649588     1.377251363706    12.000000000000
         C           -3.673626115171     0.936422350412    -0.876440636294    12.000000000000
         C            0.935273184829    -0.415878049588    -0.050779636294    12.000000000000
         C            2.015932884829    -1.150686649588    -0.427579636294    12.000000000000
         C            3.266214884829    -0.533347649588    -0.438679636294    12.000000000000
         C            2.179916884829     1.464255350412     0.310842363706    12.000000000000
         C            3.352872884829     0.805115350412    -0.060782636294    12.000000000000
         H           -3.301887115171    -1.086541649588    -0.253972636294     1.007825032230
         H           -0.406701115171    -2.081672649588    -0.258037636294     1.007825032230
         H           -1.035209115171     0.676950350412    -1.261026636294     1.007825032230
         H           -1.548839115171    -0.870535649588    -1.952173636294     1.007825032230
         H           -3.090120115171     0.112750350412     1.898781363706     1.007825032230
         H           -1.874175115171     1.191701350412     1.182796363706     1.007825032230
         H           -0.458976115171    -0.530595649588     2.144256363706     1.007825032230
         H           -1.601190115171    -1.802449649588     1.695794363706     1.007825032230
         H           -3.950630115171     0.683223350412    -1.905133636294     1.007825032230
         H           -4.596202115171     1.048682350412    -0.297591636294     1.007825032230
         H           -3.162630115171     1.905155350412    -0.891852636294     1.007825032230
         H            1.910852884829    -2.194805649588    -0.712851636294     1.007825032230
         H            4.154222884829    -1.086902649588    -0.735012636294     1.007825032230
         H            2.204699884829     2.510047350412     0.614548363706     1.007825032230
         H            4.303960884829     1.330089350412    -0.052060636294     1.007825032230

  Basis Set: AUG-CC-PVTZ
    Blend: AUG-CC-PVTZ
  Basis Set: (AUG-CC-PVTZ AUX)
    Blend: AUG-CC-PVTZ-JKFIT
	 Reference Energy          =    -479.8948467403267273 [Eh]
	 Singles Energy            =      -0.0000000000000000 [Eh]
	 Same-Spin Energy          =      -0.5323620276222418 [Eh]
	 Opposite-Spin Energy      =      -1.7451783632619269 [Eh]
	 Correlation Energy        =      -2.2775403908841687 [Eh]
	 Total Energy              =    -482.1723871312108827 [Eh]

	 ================> DF-SCS-MP2 Energies <==================
	-----------------------------------------------------------
	 SCS Same-Spin Scale       =       0.3333333333333333 [-]
	 SCS Opposite-Spin Scale   =       1.2000000000000000 [-]
	 SCS Same-Spin Energy      =      -0.1774540092074139 [Eh]
	 SCS Opposite-Spin Energy  =      -2.0942140359143120 [Eh]
	 SCS Correlation Energy    =      -2.2716680451217259 [Eh]
	 SCS Total Energy          =    -482.1665147854484417 [Eh]
	-----------------------------------------------------------

  Dipole Moment: [D]
     X:     1.5032      Y:    -1.0267      Z:    -0.5012     Total:     1.8881

*** Psi4 exiting successfully. Buy a developer a beer!
