                               Psi4 1.4a3.dev225

  ==> Input File <==

--------------------------------------------------------------------------
#psi4
#
memory 32 gb

molecule  {
0 1
  N        1.0430420     0.8835120     0.3262100
  C       -2.6935940    -0.1236090    -0.2650160
  C       -0.4170680    -1.0145740    -0.0079460
  C       -1.3683020    -0.3105490    -1.0112920
  C       -2.2166740     0.1783740     1.1559530
  C       -1.0996000    -0.8433070     1.3811970
  C       -3.6002280     0.9375310    -0.8724950
  C        0.9620280    -0.4146880    -0.0398380
  C        2.0893310    -1.1495780    -0.4236340
  C        3.3396130    -0.5322390    -0.4347340
  C        2.2533150     1.4653640     0.3147880
  C        3.4262710     0.8062240    -0.0568370
  H       -3.2284890    -1.0854330    -0.2500270
  H       -0.3333030    -2.0805640    -0.2540920
  H       -0.9618110     0.6780590    -1.2570810
  H       -1.4754410    -0.8694270    -1.9482280
  H       -3.0167220     0.1138590     1.9027270
  H       -1.8007770     1.1928100     1.1867420
  H       -0.3855780    -0.5294870     2.1482020
  H       -1.5277920    -1.8013410     1.6997400
  H       -3.8772320     0.6843320    -1.9011880
  H       -4.5228040     1.0497910    -0.2936460
  H       -3.0892320     1.9062640    -0.8879070
  H        1.9842510    -2.1936970    -0.7089060
  H        4.2276210    -1.0857940    -0.7310670
  H        2.2780980     2.5111560     0.6184940
  H        4.3598498     1.3215334    -0.0482756
units angstrom
no_reorient  #important for SAPT in psi4, default
symmetry c1  #important for SAPT in psi4, default
}

set PROPERTIES_ORIGIN ["COM"]
properties('MP2/aug-cc-pvtz', properties = ['dipole'])
--------------------------------------------------------------------------

    Molecular point group: c1
  Charge       = 0
  Multiplicity = 1
  Basis Set: AUG-CC-PVTZ
    Blend: AUG-CC-PVTZ
  Basis Set: (AUG-CC-PVTZ AUX)
    Blend: AUG-CC-PVTZ-JKFIT

    Orbital Energies [Eh]
    ---------------------

    Doubly Occupied:

       1A    -15.557862     2A    -11.275255     3A    -11.274186
       4A    -11.257763     5A    -11.234976     6A    -11.233547
       7A    -11.226085     8A    -11.214566     9A    -11.211354
      10A    -11.209667    11A    -11.205217    12A    -11.203673
      13A     -1.251756    14A     -1.127518    15A     -1.082032
      16A     -1.046619    17A     -0.991389    18A     -0.954905
      19A     -0.893940    20A     -0.855136    21A     -0.837429
      22A     -0.764367    23A     -0.755577    24A     -0.697949
      25A     -0.668893    26A     -0.641858    27A     -0.640006
      28A     -0.608050    29A     -0.584911    30A     -0.577700
      31A     -0.574557    32A     -0.551799    33A     -0.538263
      34A     -0.527520    35A     -0.512000    36A     -0.473144
      37A     -0.468898    38A     -0.460998    39A     -0.452668
      40A     -0.446987    41A     -0.439513    42A     -0.409968
      43A     -0.376868    44A     -0.332038

  @DF-RHF Final Energy:  -479.89673883329567

   => Energetics <=

    Nuclear Repulsion Energy =            685.9705008982913341
    One-Electron Energy =               -2010.4356642087263936
    Two-Electron Energy =                 844.5684244771392741
    Total Energy =                       -479.8967388332956716
  Basis Set: (AUG-CC-PVTZ AUX)
    Blend: AUG-CC-PVTZ-RI
    Molecular point group: c1

    Geometry (in Angstrom), charge = 0, multiplicity = 1:

       Center              X                  Y                   Z               Mass
    ------------   -----------------  -----------------  -----------------  -----------------
         N            0.973227326980     0.882457740936     0.321744317097    14.003074004430
         C           -2.763408673020    -0.124663259064    -0.269481682903    12.000000000000
         C           -0.486882673020    -1.015628259064    -0.012411682903    12.000000000000
         C           -1.438116673020    -0.311603259064    -1.015757682903    12.000000000000
         C           -2.286488673020     0.177319740936     1.151487317097    12.000000000000
         C           -1.169414673020    -0.844361259064     1.376731317097    12.000000000000
         C           -3.670042673020     0.936476740936    -0.876960682903    12.000000000000
         C            0.892213326980    -0.415742259064    -0.044303682903    12.000000000000
         C            2.019516326980    -1.150632259064    -0.428099682903    12.000000000000
         C            3.269798326980    -0.533293259064    -0.439199682903    12.000000000000
         C            2.183500326980     1.464309740936     0.310322317097    12.000000000000
         C            3.356456326980     0.805169740936    -0.061302682903    12.000000000000
         H           -3.298303673020    -1.086487259064    -0.254492682903     1.007825032230
         H           -0.403117673020    -2.081618259064    -0.258557682903     1.007825032230
         H           -1.031625673020     0.677004740936    -1.261546682903     1.007825032230
         H           -1.545255673020    -0.870481259064    -1.952693682903     1.007825032230
         H           -3.086536673020     0.112804740936     1.898261317097     1.007825032230
         H           -1.870591673020     1.191755740936     1.182276317097     1.007825032230
         H           -0.455392673020    -0.530541259064     2.143736317097     1.007825032230
         H           -1.597606673020    -1.802395259064     1.695274317097     1.007825032230
         H           -3.947046673020     0.683277740936    -1.905653682903     1.007825032230
         H           -4.592618673020     1.048736740936    -0.298111682903     1.007825032230
         H           -3.159046673020     1.905209740936    -0.892372682903     1.007825032230
         H            1.914436326980    -2.194751259064    -0.713371682903     1.007825032230
         H            4.157806326980    -1.086848259064    -0.735532682903     1.007825032230
         H            2.208283326980     2.510101740936     0.614028317097     1.007825032230
         H            4.290035126980     1.320479140936    -0.052741282903     1.007825032230

  Basis Set: AUG-CC-PVTZ
    Blend: AUG-CC-PVTZ
  Basis Set: (AUG-CC-PVTZ AUX)
    Blend: AUG-CC-PVTZ-JKFIT
	 Reference Energy          =    -479.8967388332956716 [Eh]
	 Singles Energy            =      -0.0000000000000000 [Eh]
	 Same-Spin Energy          =      -0.5327526351761029 [Eh]
	 Opposite-Spin Energy      =      -1.7454062291334864 [Eh]
	 Correlation Energy        =      -2.2781588643095896 [Eh]
	 Total Energy              =    -482.1748976976052745 [Eh]

	 ================> DF-SCS-MP2 Energies <==================
	-----------------------------------------------------------
	 SCS Same-Spin Scale       =       0.3333333333333333 [-]
	 SCS Opposite-Spin Scale   =       1.2000000000000000 [-]
	 SCS Same-Spin Energy      =      -0.1775842117253676 [Eh]
	 SCS Opposite-Spin Energy  =      -2.0944874749601836 [Eh]
	 SCS Correlation Energy    =      -2.2720716866855510 [Eh]
	 SCS Total Energy          =    -482.1688105199812071 [Eh]
	-----------------------------------------------------------

  Dipole Moment: [D]
     X:     1.3370      Y:    -1.0671      Z:    -0.4947     Total:     1.7807

*** Psi4 exiting successfully. Buy a developer a beer!
