                               Psi4 1.4a3.dev225

  ==> Input File <==

--------------------------------------------------------------------------
#psi4
#
memory 32 gb

molecule  {
0 1
  N        1.0895801     0.8818617     0.3187244
  C       -2.6935940    -0.1236090    -0.2650160
  C       -0.4170680    -1.0145740    -0.0079460
  C       -1.3683020    -0.3105490    -1.0112920
  C       -2.2166740     0.1783740     1.1559530
  C       -1.0996000    -0.8433070     1.3811970
  C       -3.6002280     0.9375310    -0.8724950
  C        0.9620280    -0.4146880    -0.0398380
  C        2.0893310    -1.1495780    -0.4236340
  C        3.3396130    -0.5322390    -0.4347340
  C        2.2533150     1.4653640     0.3147880
  C        3.4262710     0.8062240    -0.0568370
  H       -3.2284890    -1.0854330    -0.2500270
  H       -0.3333030    -2.0805640    -0.2540920
  H       -0.9618110     0.6780590    -1.2570810
  H       -1.4754410    -0.8694270    -1.9482280
  H       -3.0167220     0.1138590     1.9027270
  H       -1.8007770     1.1928100     1.1867420
  H       -0.3855780    -0.5294870     2.1482020
  H       -1.5277920    -1.8013410     1.6997400
  H       -3.8772320     0.6843320    -1.9011880
  H       -4.5228040     1.0497910    -0.2936460
  H       -3.0892320     1.9062640    -0.8879070
  H        1.9842510    -2.1936970    -0.7089060
  H        4.2276210    -1.0857940    -0.7310670
  H        2.2780980     2.5111560     0.6184940
  H        4.3773590     1.3311980    -0.0481150
units angstrom
no_reorient  #important for SAPT in psi4, default
symmetry c1  #important for SAPT in psi4, default
}

set PROPERTIES_ORIGIN ["COM"]
properties('MP2/aug-cc-pvtz', properties = ['dipole'])
--------------------------------------------------------------------------

    Molecular point group: c1
  Charge       = 0
  Multiplicity = 1
  Basis Set: AUG-CC-PVTZ
    Blend: AUG-CC-PVTZ
  Basis Set: (AUG-CC-PVTZ AUX)
    Blend: AUG-CC-PVTZ-JKFIT

    Orbital Energies [Eh]
    ---------------------

    Doubly Occupied:

       1A    -15.552046     2A    -11.275317     3A    -11.269065
       4A    -11.255756     5A    -11.234154     6A    -11.233952
       7A    -11.227543     8A    -11.215246     9A    -11.212159
      10A    -11.210496    11A    -11.205748    12A    -11.204523
      13A     -1.260735    14A     -1.128994    15A     -1.080892
      16A     -1.048767    17A     -0.991732    18A     -0.955375
      19A     -0.894399    20A     -0.852889    21A     -0.840403
      22A     -0.766547    23A     -0.756368    24A     -0.698256
      25A     -0.668744    26A     -0.641825    27A     -0.640020
      28A     -0.608393    29A     -0.585936    30A     -0.578693
      31A     -0.574608    32A     -0.552432    33A     -0.540935
      34A     -0.529268    35A     -0.513548    36A     -0.474059
      37A     -0.469924    38A     -0.461649    39A     -0.454281
      40A     -0.447746    41A     -0.439977    42A     -0.401937
      43A     -0.379400    44A     -0.330524

  @DF-RHF Final Energy:  -479.89740760238078

   => Energetics <=

    Nuclear Repulsion Energy =            686.2695821356995793
    One-Electron Energy =               -2011.0034638548329440
    Two-Electron Energy =                 844.8364741167526972
    Total Energy =                       -479.8974076023807811
  Basis Set: (AUG-CC-PVTZ AUX)
    Blend: AUG-CC-PVTZ-RI
    Molecular point group: c1

    Geometry (in Angstrom), charge = 0, multiplicity = 1:

       Center              X                  Y                   Z               Mass
    ------------   -----------------  -----------------  -----------------  -----------------
         N            1.015611251203     0.880890416420     0.314908290472    14.003074004430
         C           -2.767562848797    -0.124580283580    -0.268832109528    12.000000000000
         C           -0.491036848797    -1.015545283580    -0.011762109528    12.000000000000
         C           -1.442270848797    -0.311520283580    -1.015108109528    12.000000000000
         C           -2.290642848797     0.177402716420     1.152136890472    12.000000000000
         C           -1.173568848797    -0.844278283580     1.377380890472    12.000000000000
         C           -3.674196848797     0.936559716420    -0.876311109528    12.000000000000
         C            0.888059151203    -0.415659283580    -0.043654109528    12.000000000000
         C            2.015362151203    -1.150549283580    -0.427450109528    12.000000000000
         C            3.265644151203    -0.533210283580    -0.438550109528    12.000000000000
         C            2.179346151203     1.464392716420     0.310971890472    12.000000000000
         C            3.352302151203     0.805252716420    -0.060653109528    12.000000000000
         H           -3.302457848797    -1.086404283580    -0.253843109528     1.007825032230
         H           -0.407271848797    -2.081535283580    -0.257908109528     1.007825032230
         H           -1.035779848797     0.677087716420    -1.260897109528     1.007825032230
         H           -1.549409848797    -0.870398283580    -1.952044109528     1.007825032230
         H           -3.090690848797     0.112887716420     1.898910890472     1.007825032230
         H           -1.874745848797     1.191838716420     1.182925890472     1.007825032230
         H           -0.459546848797    -0.530458283580     2.144385890472     1.007825032230
         H           -1.601760848797    -1.802312283580     1.695923890472     1.007825032230
         H           -3.951200848797     0.683360716420    -1.905004109528     1.007825032230
         H           -4.596772848797     1.048819716420    -0.297462109528     1.007825032230
         H           -3.163200848797     1.905292716420    -0.891723109528     1.007825032230
         H            1.910282151203    -2.194668283580    -0.712722109528     1.007825032230
         H            4.153652151203    -1.086765283580    -0.734883109528     1.007825032230
         H            2.204129151203     2.510184716420     0.614677890472     1.007825032230
         H            4.303390151203     1.330226716420    -0.051931109528     1.007825032230

  Basis Set: AUG-CC-PVTZ
    Blend: AUG-CC-PVTZ
  Basis Set: (AUG-CC-PVTZ AUX)
    Blend: AUG-CC-PVTZ-JKFIT
	 Reference Energy          =    -479.8974076023807811 [Eh]
	 Singles Energy            =      -0.0000000000000000 [Eh]
	 Same-Spin Energy          =      -0.5323111092123153 [Eh]
	 Opposite-Spin Energy      =      -1.7440777151510036 [Eh]
	 Correlation Energy        =      -2.2763888243633188 [Eh]
	 Total Energy              =    -482.1737964267441043 [Eh]

	 ================> DF-SCS-MP2 Energies <==================
	-----------------------------------------------------------
	 SCS Same-Spin Scale       =       0.3333333333333333 [-]
	 SCS Opposite-Spin Scale   =       1.2000000000000000 [-]
	 SCS Same-Spin Energy      =      -0.1774370364041051 [Eh]
	 SCS Opposite-Spin Energy  =      -2.0928932581812041 [Eh]
	 SCS Correlation Energy    =      -2.2703302945853090 [Eh]
	 SCS Total Energy          =    -482.1677378969661163 [Eh]
	-----------------------------------------------------------

  Dipole Moment: [D]
     X:     1.2059      Y:    -1.0697      Z:    -0.4773     Total:     1.6811

*** Psi4 exiting successfully. Buy a developer a beer!
