                               Psi4 1.4a3.dev225

  ==> Input File <==

--------------------------------------------------------------------------
#psi4
#
memory 32 gb

molecule  {
0 1
  N        1.0430420     0.8835120     0.3262100
  C       -2.6935940    -0.1236090    -0.2650160
  C       -0.4170680    -1.0145740    -0.0079460
  C       -1.4547863    -0.2983499    -0.9625924
  C       -2.2166740     0.1783740     1.1559530
  C       -1.0996000    -0.8433070     1.3811970
  C       -3.6002280     0.9375310    -0.8724950
  C        0.9620280    -0.4146880    -0.0398380
  C        2.0893310    -1.1495780    -0.4236340
  C        3.3396130    -0.5322390    -0.4347340
  C        2.2533150     1.4653640     0.3147880
  C        3.4262710     0.8062240    -0.0568370
  H       -3.2284890    -1.0854330    -0.2500270
  H       -0.3333030    -2.0805640    -0.2540920
  H       -0.9618110     0.6780590    -1.2570810
  H       -1.4754410    -0.8694270    -1.9482280
  H       -3.0167220     0.1138590     1.9027270
  H       -1.8007770     1.1928100     1.1867420
  H       -0.3855780    -0.5294870     2.1482020
  H       -1.5277920    -1.8013410     1.6997400
  H       -3.8772320     0.6843320    -1.9011880
  H       -4.5228040     1.0497910    -0.2936460
  H       -3.0892320     1.9062640    -0.8879070
  H        1.9842510    -2.1936970    -0.7089060
  H        4.2276210    -1.0857940    -0.7310670
  H        2.2780980     2.5111560     0.6184940
  H        4.3773590     1.3311980    -0.0481150
units angstrom
no_reorient  #important for SAPT in psi4, default
symmetry c1  #important for SAPT in psi4, default
}

set PROPERTIES_ORIGIN ["COM"]
properties('MP2/aug-cc-pvtz', properties = ['dipole'])
--------------------------------------------------------------------------

    Molecular point group: c1
  Charge       = 0
  Multiplicity = 1
  Basis Set: AUG-CC-PVTZ
    Blend: AUG-CC-PVTZ
  Basis Set: (AUG-CC-PVTZ AUX)
    Blend: AUG-CC-PVTZ-JKFIT

    Orbital Energies [Eh]
    ---------------------

    Doubly Occupied:

       1A    -15.558520     2A    -11.276080     3A    -11.274542
       4A    -11.258296     5A    -11.236486     6A    -11.235920
       7A    -11.226986     8A    -11.213764     9A    -11.210958
      10A    -11.209758    11A    -11.206170    12A    -11.204486
      13A     -1.252085    14A     -1.136461    15A     -1.082452
      16A     -1.049296    17A     -0.994253    18A     -0.950524
      19A     -0.898548    20A     -0.855567    21A     -0.836988
      22A     -0.767494    23A     -0.752351    24A     -0.697070
      25A     -0.667339    26A     -0.643759    27A     -0.641420
      28A     -0.610231    29A     -0.586561    30A     -0.576556
      31A     -0.574211    32A     -0.552788    33A     -0.537763
      34A     -0.524341    35A     -0.512116    36A     -0.476744
      37A     -0.470657    38A     -0.458049    39A     -0.453394
      40A     -0.446171    41A     -0.435227    42A     -0.410457
      43A     -0.377070    44A     -0.332046

  @DF-RHF Final Energy:  -479.88530503664299

   => Energetics <=

    Nuclear Repulsion Energy =            686.4905037825258205
    One-Electron Energy =               -2011.4077039477490416
    Two-Electron Energy =                 845.0318951285802314
    Total Energy =                       -479.8853050366429898
  Basis Set: (AUG-CC-PVTZ AUX)
    Blend: AUG-CC-PVTZ-RI
    Molecular point group: c1

    Geometry (in Angstrom), charge = 0, multiplicity = 1:

       Center              X                  Y                   Z               Mass
    ------------   -----------------  -----------------  -----------------  -----------------
         N            0.979559021021     0.881488717909     0.318116242210    14.003074004430
         C           -2.757076978979    -0.125632282091    -0.273109757790    12.000000000000
         C           -0.480550978979    -1.016597282091    -0.016039757790    12.000000000000
         C           -1.518269278979    -0.300373182091    -0.970686157790    12.000000000000
         C           -2.280156978979     0.176350717909     1.147859242210    12.000000000000
         C           -1.163082978979    -0.845330282091     1.373103242210    12.000000000000
         C           -3.663710978979     0.935507717909    -0.880588757790    12.000000000000
         C            0.898545021021    -0.416711282091    -0.047931757790    12.000000000000
         C            2.025848021021    -1.151601282091    -0.431727757790    12.000000000000
         C            3.276130021021    -0.534262282091    -0.442827757790    12.000000000000
         C            2.189832021021     1.463340717909     0.306694242210    12.000000000000
         C            3.362788021021     0.804200717909    -0.064930757790    12.000000000000
         H           -3.291971978979    -1.087456282091    -0.258120757790     1.007825032230
         H           -0.396785978979    -2.082587282091    -0.262185757790     1.007825032230
         H           -1.025293978979     0.676035717909    -1.265174757790     1.007825032230
         H           -1.538923978979    -0.871450282091    -1.956321757790     1.007825032230
         H           -3.080204978979     0.111835717909     1.894633242210     1.007825032230
         H           -1.864259978979     1.190786717909     1.178648242210     1.007825032230
         H           -0.449060978979    -0.531510282091     2.140108242210     1.007825032230
         H           -1.591274978979    -1.803364282091     1.691646242210     1.007825032230
         H           -3.940714978979     0.682308717909    -1.909281757790     1.007825032230
         H           -4.586286978979     1.047767717909    -0.301739757790     1.007825032230
         H           -3.152714978979     1.904240717909    -0.896000757790     1.007825032230
         H            1.920768021021    -2.195720282091    -0.716999757790     1.007825032230
         H            4.164138021021    -1.087817282091    -0.739160757790     1.007825032230
         H            2.214615021021     2.509132717909     0.610400242210     1.007825032230
         H            4.313876021021     1.329174717909    -0.056208757790     1.007825032230

  Basis Set: AUG-CC-PVTZ
    Blend: AUG-CC-PVTZ
  Basis Set: (AUG-CC-PVTZ AUX)
    Blend: AUG-CC-PVTZ-JKFIT
	 Reference Energy          =    -479.8853050366429898 [Eh]
	 Singles Energy            =      -0.0000000000000000 [Eh]
	 Same-Spin Energy          =      -0.5338077027772943 [Eh]
	 Opposite-Spin Energy      =      -1.7467345790541722 [Eh]
	 Correlation Energy        =      -2.2805422818314662 [Eh]
	 Total Energy              =    -482.1658473184744480 [Eh]

	 ================> DF-SCS-MP2 Energies <==================
	-----------------------------------------------------------
	 SCS Same-Spin Scale       =       0.3333333333333333 [-]
	 SCS Opposite-Spin Scale   =       1.2000000000000000 [-]
	 SCS Same-Spin Energy      =      -0.1779359009257648 [Eh]
	 SCS Opposite-Spin Energy  =      -2.0960814948650066 [Eh]
	 SCS Correlation Energy    =      -2.2740173957907714 [Eh]
	 SCS Total Energy          =    -482.1593224324337825 [Eh]
	-----------------------------------------------------------

  Dipole Moment: [D]
     X:     1.3466      Y:    -1.0442      Z:    -0.4608     Total:     1.7652

*** Psi4 exiting successfully. Buy a developer a beer!
