                               Psi4 1.4a3.dev225

  ==> Input File <==

--------------------------------------------------------------------------
#psi4
#
memory 32 gb

molecule  {
0 1
  N        1.0430420     0.8835120     0.3262100
  C       -2.6935940    -0.1236090    -0.2650160
  C       -0.4170680    -1.0145740    -0.0079460
  C       -1.3550853    -0.3058116    -0.9885283
  C       -2.2166740     0.1783740     1.1559530
  C       -1.0996000    -0.8433070     1.3811970
  C       -3.6002280     0.9375310    -0.8724950
  C        0.9620280    -0.4146880    -0.0398380
  C        2.0893310    -1.1495780    -0.4236340
  C        3.3396130    -0.5322390    -0.4347340
  C        2.2533150     1.4653640     0.3147880
  C        3.4262710     0.8062240    -0.0568370
  H       -3.2284890    -1.0854330    -0.2500270
  H       -0.3333030    -2.0805640    -0.2540920
  H       -0.9618110     0.6780590    -1.2570810
  H       -1.4754410    -0.8694270    -1.9482280
  H       -3.0167220     0.1138590     1.9027270
  H       -1.8007770     1.1928100     1.1867420
  H       -0.3855780    -0.5294870     2.1482020
  H       -1.5277920    -1.8013410     1.6997400
  H       -3.8772320     0.6843320    -1.9011880
  H       -4.5228040     1.0497910    -0.2936460
  H       -3.0892320     1.9062640    -0.8879070
  H        1.9842510    -2.1936970    -0.7089060
  H        4.2276210    -1.0857940    -0.7310670
  H        2.2780980     2.5111560     0.6184940
  H        4.3773590     1.3311980    -0.0481150
units angstrom
no_reorient  #important for SAPT in psi4, default
symmetry c1  #important for SAPT in psi4, default
}

set PROPERTIES_ORIGIN ["COM"]
properties('MP2/aug-cc-pvtz', properties = ['dipole'])
--------------------------------------------------------------------------

    Molecular point group: c1
  Charge       = 0
  Multiplicity = 1
  Basis Set: AUG-CC-PVTZ
    Blend: AUG-CC-PVTZ
  Basis Set: (AUG-CC-PVTZ AUX)
    Blend: AUG-CC-PVTZ-JKFIT

    Orbital Energies [Eh]
    ---------------------

    Doubly Occupied:

       1A    -15.558190     2A    -11.275489     3A    -11.274506
       4A    -11.258075     5A    -11.236029     6A    -11.235272
       7A    -11.225512     8A    -11.214503     9A    -11.211383
      10A    -11.210245    11A    -11.205580    12A    -11.203475
      13A     -1.252166    14A     -1.129615    15A     -1.082010
      16A     -1.046850    17A     -0.991522    18A     -0.955419
      19A     -0.893725    20A     -0.855408    21A     -0.836835
      22A     -0.764484    23A     -0.755277    24A     -0.697323
      25A     -0.667797    26A     -0.641348    27A     -0.639457
      28A     -0.608830    29A     -0.585704    30A     -0.577528
      31A     -0.574239    32A     -0.551383    33A     -0.538105
      34A     -0.526670    35A     -0.512212    36A     -0.473987
      37A     -0.468275    38A     -0.461546    39A     -0.453044
      40A     -0.447817    41A     -0.437440    42A     -0.410290
      43A     -0.377085    44A     -0.332524

  @DF-RHF Final Energy:  -479.89559403259324

   => Energetics <=

    Nuclear Repulsion Energy =            686.2995127584629245
    One-Electron Energy =               -2011.0818743276811347
    Two-Electron Energy =                 844.8867675366250296
    Total Energy =                       -479.8955940325931806
  Basis Set: (AUG-CC-PVTZ AUX)
    Blend: AUG-CC-PVTZ-RI
    Molecular point group: c1

    Geometry (in Angstrom), charge = 0, multiplicity = 1:

       Center              X                  Y                   Z               Mass
    ------------   -----------------  -----------------  -----------------  -----------------
         N            0.972133445907     0.882044453697     0.320047907625    14.003074004430
         C           -2.764502554093    -0.125076546303    -0.271178092375    12.000000000000
         C           -0.487976554093    -1.016041546303    -0.014108092375    12.000000000000
         C           -1.425993854093    -0.307279146303    -0.994690392375    12.000000000000
         C           -2.287582554093     0.176906453697     1.149790907625    12.000000000000
         C           -1.170508554093    -0.844774546303     1.375034907625    12.000000000000
         C           -3.671136554093     0.936063453697    -0.878657092375    12.000000000000
         C            0.891119445907    -0.416155546303    -0.046000092375    12.000000000000
         C            2.018422445907    -1.151045546303    -0.429796092375    12.000000000000
         C            3.268704445907    -0.533706546303    -0.440896092375    12.000000000000
         C            2.182406445907     1.463896453697     0.308625907625    12.000000000000
         C            3.355362445907     0.804756453697    -0.062999092375    12.000000000000
         H           -3.299397554093    -1.086900546303    -0.256189092375     1.007825032230
         H           -0.404211554093    -2.082031546303    -0.260254092375     1.007825032230
         H           -1.032719554093     0.676591453697    -1.263243092375     1.007825032230
         H           -1.546349554093    -0.870894546303    -1.954390092375     1.007825032230
         H           -3.087630554093     0.112391453697     1.896564907625     1.007825032230
         H           -1.871685554093     1.191342453697     1.180579907625     1.007825032230
         H           -0.456486554093    -0.530954546303     2.142039907625     1.007825032230
         H           -1.598700554093    -1.802808546303     1.693577907625     1.007825032230
         H           -3.948140554093     0.682864453697    -1.907350092375     1.007825032230
         H           -4.593712554093     1.048323453697    -0.299808092375     1.007825032230
         H           -3.160140554093     1.904796453697    -0.894069092375     1.007825032230
         H            1.913342445907    -2.195164546303    -0.715068092375     1.007825032230
         H            4.156712445907    -1.087261546303    -0.737229092375     1.007825032230
         H            2.207189445907     2.509688453697     0.612331907625     1.007825032230
         H            4.306450445907     1.329730453697    -0.054277092375     1.007825032230

  Basis Set: AUG-CC-PVTZ
    Blend: AUG-CC-PVTZ
  Basis Set: (AUG-CC-PVTZ AUX)
    Blend: AUG-CC-PVTZ-JKFIT
	 Reference Energy          =    -479.8955940325932374 [Eh]
	 Singles Energy            =      -0.0000000000000000 [Eh]
	 Same-Spin Energy          =      -0.5329554769747158 [Eh]
	 Opposite-Spin Energy      =      -1.7457008418098350 [Eh]
	 Correlation Energy        =      -2.2786563187845505 [Eh]
	 Total Energy              =    -482.1742503513777933 [Eh]

	 ================> DF-SCS-MP2 Energies <==================
	-----------------------------------------------------------
	 SCS Same-Spin Scale       =       0.3333333333333333 [-]
	 SCS Opposite-Spin Scale   =       1.2000000000000000 [-]
	 SCS Same-Spin Energy      =      -0.1776518256582386 [Eh]
	 SCS Opposite-Spin Energy  =      -2.0948410101718018 [Eh]
	 SCS Correlation Energy    =      -2.2724928358300405 [Eh]
	 SCS Total Energy          =    -482.1680868684233019 [Eh]
	-----------------------------------------------------------

  Dipole Moment: [D]
     X:     1.3386      Y:    -1.0570      Z:    -0.4834     Total:     1.7728

*** Psi4 exiting successfully. Buy a developer a beer!
