                               Psi4 1.4a3.dev225

  ==> Input File <==

--------------------------------------------------------------------------
#psi4
#
memory 32 gb

molecule  {
0 1
  N        1.0430420     0.8835120     0.3262100
  C       -2.6935940    -0.1236090    -0.2650160
  C       -0.4651973    -1.0288708    -0.0287675
  C       -1.3683020    -0.3105490    -1.0112920
  C       -2.2166740     0.1783740     1.1559530
  C       -1.0996000    -0.8433070     1.3811970
  C       -3.6002280     0.9375310    -0.8724950
  C        0.9620280    -0.4146880    -0.0398380
  C        2.0893310    -1.1495780    -0.4236340
  C        3.3396130    -0.5322390    -0.4347340
  C        2.2533150     1.4653640     0.3147880
  C        3.4262710     0.8062240    -0.0568370
  H       -3.2284890    -1.0854330    -0.2500270
  H       -0.3333030    -2.0805640    -0.2540920
  H       -0.9618110     0.6780590    -1.2570810
  H       -1.4754410    -0.8694270    -1.9482280
  H       -3.0167220     0.1138590     1.9027270
  H       -1.8007770     1.1928100     1.1867420
  H       -0.3855780    -0.5294870     2.1482020
  H       -1.5277920    -1.8013410     1.6997400
  H       -3.8772320     0.6843320    -1.9011880
  H       -4.5228040     1.0497910    -0.2936460
  H       -3.0892320     1.9062640    -0.8879070
  H        1.9842510    -2.1936970    -0.7089060
  H        4.2276210    -1.0857940    -0.7310670
  H        2.2780980     2.5111560     0.6184940
  H        4.3773590     1.3311980    -0.0481150
units angstrom
no_reorient  #important for SAPT in psi4, default
symmetry c1  #important for SAPT in psi4, default
}

set PROPERTIES_ORIGIN ["COM"]
properties('MP2/aug-cc-pvtz', properties = ['dipole'])
--------------------------------------------------------------------------

    Molecular point group: c1
  Charge       = 0
  Multiplicity = 1
  Basis Set: AUG-CC-PVTZ
    Blend: AUG-CC-PVTZ
  Basis Set: (AUG-CC-PVTZ AUX)
    Blend: AUG-CC-PVTZ-JKFIT

    Orbital Energies [Eh]
    ---------------------

    Doubly Occupied:

       1A    -15.557922     2A    -11.276716     3A    -11.274158
       4A    -11.257740     5A    -11.235575     6A    -11.234871
       7A    -11.226926     8A    -11.214493     9A    -11.210915
      10A    -11.207793    11A    -11.204987    12A    -11.203471
      13A     -1.250388    14A     -1.130051    15A     -1.081473
      16A     -1.042543    17A     -0.991454    18A     -0.958152
      19A     -0.891973    20A     -0.854174    21A     -0.834975
      22A     -0.763552    23A     -0.756549    24A     -0.696939
      25A     -0.667699    26A     -0.641174    27A     -0.639081
      28A     -0.609212    29A     -0.585284    30A     -0.577406
      31A     -0.573883    32A     -0.551519    33A     -0.537100
      34A     -0.527206    35A     -0.511186    36A     -0.477760
      37A     -0.467957    38A     -0.462265    39A     -0.452544
      40A     -0.444515    41A     -0.439374    42A     -0.407465
      43A     -0.376733    44A     -0.332975

  @DF-RHF Final Energy:  -479.89409961967829

   => Energetics <=

    Nuclear Repulsion Energy =            685.6012364922532925
    One-Electron Energy =               -2009.7104171584553569
    Two-Electron Energy =                 844.2150810465237782
    Total Energy =                       -479.8940996196782862
  Basis Set: (AUG-CC-PVTZ AUX)
    Blend: AUG-CC-PVTZ-RI
    Molecular point group: c1

    Geometry (in Angstrom), charge = 0, multiplicity = 1:

       Center              X                  Y                   Z               Mass
    ------------   -----------------  -----------------  -----------------  -----------------
         N            0.976702400390     0.883462091251     0.323294065401    14.003074004430
         C           -2.759933599610    -0.123658908749    -0.267931934599    12.000000000000
         C           -0.531536899610    -1.028920708749    -0.031683434599    12.000000000000
         C           -1.434641599610    -0.310598908749    -1.014207934599    12.000000000000
         C           -2.283013599610     0.178324091251     1.153037065401    12.000000000000
         C           -1.165939599610    -0.843356908749     1.378281065401    12.000000000000
         C           -3.666567599610     0.937481091251    -0.875410934599    12.000000000000
         C            0.895688400390    -0.414737908749    -0.042753934599    12.000000000000
         C            2.022991400390    -1.149627908749    -0.426549934599    12.000000000000
         C            3.273273400390    -0.532288908749    -0.437649934599    12.000000000000
         C            2.186975400390     1.465314091251     0.311872065401    12.000000000000
         C            3.359931400390     0.806174091251    -0.059752934599    12.000000000000
         H           -3.294828599610    -1.085482908749    -0.252942934599     1.007825032230
         H           -0.399642599610    -2.080613908749    -0.257007934599     1.007825032230
         H           -1.028150599610     0.678009091251    -1.259996934599     1.007825032230
         H           -1.541780599610    -0.869476908749    -1.951143934599     1.007825032230
         H           -3.083061599610     0.113809091251     1.899811065401     1.007825032230
         H           -1.867116599610     1.192760091251     1.183826065401     1.007825032230
         H           -0.451917599610    -0.529536908749     2.145286065401     1.007825032230
         H           -1.594131599610    -1.801390908749     1.696824065401     1.007825032230
         H           -3.943571599610     0.684282091251    -1.904103934599     1.007825032230
         H           -4.589143599610     1.049741091251    -0.296561934599     1.007825032230
         H           -3.155571599610     1.906214091251    -0.890822934599     1.007825032230
         H            1.917911400390    -2.193746908749    -0.711821934599     1.007825032230
         H            4.161281400390    -1.085843908749    -0.733982934599     1.007825032230
         H            2.211758400390     2.511106091251     0.615578065401     1.007825032230
         H            4.311019400390     1.331148091251    -0.051030934599     1.007825032230

  Basis Set: AUG-CC-PVTZ
    Blend: AUG-CC-PVTZ
  Basis Set: (AUG-CC-PVTZ AUX)
    Blend: AUG-CC-PVTZ-JKFIT
	 Reference Energy          =    -479.8940996196782862 [Eh]
	 Singles Energy            =      -0.0000000000000000 [Eh]
	 Same-Spin Energy          =      -0.5327216144683284 [Eh]
	 Opposite-Spin Energy      =      -1.7454626110781866 [Eh]
	 Correlation Energy        =      -2.2781842255465152 [Eh]
	 Total Energy              =    -482.1722838452247970 [Eh]

	 ================> DF-SCS-MP2 Energies <==================
	-----------------------------------------------------------
	 SCS Same-Spin Scale       =       0.3333333333333333 [-]
	 SCS Opposite-Spin Scale   =       1.2000000000000000 [-]
	 SCS Same-Spin Energy      =      -0.1775738714894428 [Eh]
	 SCS Opposite-Spin Energy  =      -2.0945551332938237 [Eh]
	 SCS Correlation Energy    =      -2.2721290047832663 [Eh]
	 SCS Total Energy          =    -482.1662286244615530 [Eh]
	-----------------------------------------------------------

  Dipole Moment: [D]
     X:     1.3466      Y:    -1.0778      Z:    -0.5014     Total:     1.7962

*** Psi4 exiting successfully. Buy a developer a beer!
