                               Psi4 1.4a3.dev225

  ==> Input File <==

--------------------------------------------------------------------------
#psi4
#
memory 32 gb

molecule  {
0 1
  N        1.0430420     0.8835120     0.3262100
  C       -2.6935940    -0.1236090    -0.2650160
  C       -0.4170680    -1.0145740    -0.0079460
  C       -1.3683020    -0.3105490    -1.0112920
  C       -2.2166740     0.1783740     1.1559530
  C       -1.0996000    -0.8433070     1.3811970
  C       -3.5406665     0.8678192    -0.8325865
  C        0.9620280    -0.4146880    -0.0398380
  C        2.0893310    -1.1495780    -0.4236340
  C        3.3396130    -0.5322390    -0.4347340
  C        2.2533150     1.4653640     0.3147880
  C        3.4262710     0.8062240    -0.0568370
  H       -3.2284890    -1.0854330    -0.2500270
  H       -0.3333030    -2.0805640    -0.2540920
  H       -0.9618110     0.6780590    -1.2570810
  H       -1.4754410    -0.8694270    -1.9482280
  H       -3.0167220     0.1138590     1.9027270
  H       -1.8007770     1.1928100     1.1867420
  H       -0.3855780    -0.5294870     2.1482020
  H       -1.5277920    -1.8013410     1.6997400
  H       -3.8772320     0.6843320    -1.9011880
  H       -4.5228040     1.0497910    -0.2936460
  H       -3.0892320     1.9062640    -0.8879070
  H        1.9842510    -2.1936970    -0.7089060
  H        4.2276210    -1.0857940    -0.7310670
  H        2.2780980     2.5111560     0.6184940
  H        4.3773590     1.3311980    -0.0481150
units angstrom
no_reorient  #important for SAPT in psi4, default
symmetry c1  #important for SAPT in psi4, default
}

set PROPERTIES_ORIGIN ["COM"]
properties('MP2/aug-cc-pvtz', properties = ['dipole'])
--------------------------------------------------------------------------

    Molecular point group: c1
  Charge       = 0
  Multiplicity = 1
  Basis Set: AUG-CC-PVTZ
    Blend: AUG-CC-PVTZ
  Basis Set: (AUG-CC-PVTZ AUX)
    Blend: AUG-CC-PVTZ-JKFIT

    Orbital Energies [Eh]
    ---------------------

    Doubly Occupied:

       1A    -15.558207     2A    -11.275538     3A    -11.274517
       4A    -11.258110     5A    -11.236055     6A    -11.235305
       7A    -11.226447     8A    -11.211700     9A    -11.211448
      10A    -11.210523    11A    -11.209526    12A    -11.204396
      13A     -1.252080    14A     -1.133084    15A     -1.082186
      16A     -1.051952    17A     -0.998951    18A     -0.955774
      19A     -0.889546    20A     -0.855194    21A     -0.836241
      22A     -0.765512    23A     -0.757701    24A     -0.697408
      25A     -0.668640    26A     -0.642874    27A     -0.642082
      28A     -0.613935    29A     -0.586515    30A     -0.577969
      31A     -0.575083    32A     -0.544384    33A     -0.539713
      34A     -0.525126    35A     -0.503317    36A     -0.479528
      37A     -0.473581    38A     -0.469185    39A     -0.453224
      40A     -0.440296    41A     -0.430443    42A     -0.409974
      43A     -0.377170    44A     -0.332374

  @DF-RHF Final Energy:  -479.88497305395390

   => Energetics <=

    Nuclear Repulsion Energy =            687.6840691543861794
    One-Electron Energy =               -2013.7924664375498196
    Two-Electron Energy =                 846.2234242292097406
    Total Energy =                       -479.8849730539538996
  Basis Set: (AUG-CC-PVTZ AUX)
    Blend: AUG-CC-PVTZ-RI
    Molecular point group: c1

    Geometry (in Angstrom), charge = 0, multiplicity = 1:

       Center              X                  Y                   Z               Mass
    ------------   -----------------  -----------------  -----------------  -----------------
         N            0.968681757423     0.887589314097     0.318770989638    14.003074004430
         C           -2.767954242577    -0.119531685903    -0.272455010362    12.000000000000
         C           -0.491428242577    -1.010496685903    -0.015385010362    12.000000000000
         C           -1.442662242577    -0.306471685903    -1.018731010362    12.000000000000
         C           -2.291034242577     0.182451314097     1.148513989638    12.000000000000
         C           -1.173960242577    -0.839229685903     1.373757989638    12.000000000000
         C           -3.615026742577     0.871896514097    -0.840025510362    12.000000000000
         C            0.887667757423    -0.410610685903    -0.047277010362    12.000000000000
         C            2.014970757423    -1.145500685903    -0.431073010362    12.000000000000
         C            3.265252757423    -0.528161685903    -0.442173010362    12.000000000000
         C            2.178954757423     1.469441314097     0.307348989638    12.000000000000
         C            3.351910757423     0.810301314097    -0.064276010362    12.000000000000
         H           -3.302849242577    -1.081355685903    -0.257466010362     1.007825032230
         H           -0.407663242577    -2.076486685903    -0.261531010362     1.007825032230
         H           -1.036171242577     0.682136314097    -1.264520010362     1.007825032230
         H           -1.549801242577    -0.865349685903    -1.955667010362     1.007825032230
         H           -3.091082242577     0.117936314097     1.895287989638     1.007825032230
         H           -1.875137242577     1.196887314097     1.179302989638     1.007825032230
         H           -0.459938242577    -0.525409685903     2.140762989638     1.007825032230
         H           -1.602152242577    -1.797263685903     1.692300989638     1.007825032230
         H           -3.951592242577     0.688409314097    -1.908627010362     1.007825032230
         H           -4.597164242577     1.053868314097    -0.301085010362     1.007825032230
         H           -3.163592242577     1.910341314097    -0.895346010362     1.007825032230
         H            1.909890757423    -2.189619685903    -0.716345010362     1.007825032230
         H            4.153260757423    -1.081716685903    -0.738506010362     1.007825032230
         H            2.203737757423     2.515233314097     0.611054989638     1.007825032230
         H            4.302998757423     1.335275314097    -0.055554010362     1.007825032230

  Basis Set: AUG-CC-PVTZ
    Blend: AUG-CC-PVTZ
  Basis Set: (AUG-CC-PVTZ AUX)
    Blend: AUG-CC-PVTZ-JKFIT
	 Reference Energy          =    -479.8849730539538996 [Eh]
	 Singles Energy            =      -0.0000000000000000 [Eh]
	 Same-Spin Energy          =      -0.5338274387169977 [Eh]
	 Opposite-Spin Energy      =      -1.7467745962607966 [Eh]
	 Correlation Energy        =      -2.2806020349777940 [Eh]
	 Total Energy              =    -482.1655750889316892 [Eh]

	 ================> DF-SCS-MP2 Energies <==================
	-----------------------------------------------------------
	 SCS Same-Spin Scale       =       0.3333333333333333 [-]
	 SCS Opposite-Spin Scale   =       1.2000000000000000 [-]
	 SCS Same-Spin Energy      =      -0.1779424795723326 [Eh]
	 SCS Opposite-Spin Energy  =      -2.0961295155129558 [Eh]
	 SCS Correlation Energy    =      -2.2740719950852881 [Eh]
	 SCS Total Energy          =    -482.1590450490392072 [Eh]
	-----------------------------------------------------------

  Dipole Moment: [D]
     X:     1.3553      Y:    -1.0851      Z:    -0.4843     Total:     1.8025

*** Psi4 exiting successfully. Buy a developer a beer!
