                               Psi4 1.4a3.dev225

  ==> Input File <==

--------------------------------------------------------------------------
#psi4
#
memory 32 gb

molecule  {
0 1
  N        1.0430420     0.8835120     0.3262100
  C       -2.6935940    -0.1236090    -0.2650160
  C       -0.4170680    -1.0145740    -0.0079460
  C       -1.3683020    -0.3105490    -1.0112920
  C       -2.2166740     0.1783740     1.1559530
  C       -1.0996000    -0.8433070     1.3811970
  C       -3.6002280     0.9375310    -0.8724950
  C        0.9620280    -0.4146880    -0.0398380
  C        2.0893310    -1.1495780    -0.4236340
  C        3.3396130    -0.5322390    -0.4347340
  C        2.2533150     1.4653640     0.3147880
  C        3.4262710     0.8062240    -0.0568370
  H       -3.2284890    -1.0854330    -0.2500270
  H       -0.3333030    -2.0805640    -0.2540920
  H       -0.9618110     0.6780590    -1.2570810
  H       -1.4754410    -0.8694270    -1.9482280
  H       -3.0167220     0.1138590     1.9027270
  H       -1.8007770     1.1928100     1.1867420
  H       -0.3855780    -0.5294870     2.1482020
  H       -1.5277920    -1.8013410     1.6997400
  H       -3.8772320     0.6843320    -1.9011880
  H       -4.5228040     1.0497910    -0.2936460
  H       -3.0892320     1.9062640    -0.8879070
  H        2.0035765    -2.0016711    -0.6564411
  H        4.2276210    -1.0857940    -0.7310670
  H        2.2780980     2.5111560     0.6184940
  H        4.3773590     1.3311980    -0.0481150
units angstrom
no_reorient  #important for SAPT in psi4, default
symmetry c1  #important for SAPT in psi4, default
}

set PROPERTIES_ORIGIN ["COM"]
properties('MP2/aug-cc-pvtz', properties = ['dipole'])
--------------------------------------------------------------------------

    Molecular point group: c1
  Charge       = 0
  Multiplicity = 1
  Basis Set: AUG-CC-PVTZ
    Blend: AUG-CC-PVTZ
  Basis Set: (AUG-CC-PVTZ AUX)
    Blend: AUG-CC-PVTZ-JKFIT

    Orbital Energies [Eh]
    ---------------------

    Doubly Occupied:

       1A    -15.556544     2A    -11.273985     3A    -11.273779
       4A    -11.256572     5A    -11.234695     6A    -11.226467
       7A    -11.214689     8A    -11.211555     9A    -11.211163
      10A    -11.209869    11A    -11.205294    12A    -11.203775
      13A     -1.251011    14A     -1.127615    15A     -1.085945
      16A     -1.049857    17A     -0.993195    18A     -0.955963
      19A     -0.894411    20A     -0.867843    21A     -0.838074
      22A     -0.764336    23A     -0.755800    24A     -0.712399
      25A     -0.670625    26A     -0.657667    27A     -0.639883
      28A     -0.611500    29A     -0.586117    30A     -0.579342
      31A     -0.573960    32A     -0.552063    33A     -0.539640
      34A     -0.528853    35A     -0.512610    36A     -0.474025
      37A     -0.469315    38A     -0.461249    39A     -0.452745
      40A     -0.447121    41A     -0.439769    42A     -0.409551
      43A     -0.376085    44A     -0.331515

  @DF-RHF Final Energy:  -479.86216884044188

   => Energetics <=

    Nuclear Repulsion Energy =            687.0424736122666900
    One-Electron Energy =               -2012.4323411708494405
    Two-Electron Energy =                 845.5276987181409822
    Total Energy =                       -479.8621688404418819
  Basis Set: (AUG-CC-PVTZ AUX)
    Blend: AUG-CC-PVTZ-RI
    Molecular point group: c1

    Geometry (in Angstrom), charge = 0, multiplicity = 1:

       Center              X                  Y                   Z               Mass
    ------------   -----------------  -----------------  -----------------  -----------------
         N            0.972996922131     0.881196146053     0.321415139166    14.003074004430
         C           -2.763639077869    -0.125924853947    -0.269810860834    12.000000000000
         C           -0.487113077869    -1.016889853947    -0.012740860834    12.000000000000
         C           -1.438347077869    -0.312864853947    -1.016086860834    12.000000000000
         C           -2.286719077869     0.176058146053     1.151158139166    12.000000000000
         C           -1.169645077869    -0.845622853947     1.376402139166    12.000000000000
         C           -3.670273077869     0.935215146053    -0.877289860834    12.000000000000
         C            0.891982922131    -0.417003853947    -0.044632860834    12.000000000000
         C            2.019285922131    -1.151893853947    -0.428428860834    12.000000000000
         C            3.269567922131    -0.534554853947    -0.439528860834    12.000000000000
         C            2.183269922131     1.463048146053     0.309993139166    12.000000000000
         C            3.356225922131     0.803908146053    -0.061631860834    12.000000000000
         H           -3.298534077869    -1.087748853947    -0.254821860834     1.007825032230
         H           -0.403348077869    -2.082879853947    -0.258886860834     1.007825032230
         H           -1.031856077869     0.675743146053    -1.261875860834     1.007825032230
         H           -1.545486077869    -0.871742853947    -1.953022860834     1.007825032230
         H           -3.086767077869     0.111543146053     1.897932139166     1.007825032230
         H           -1.870822077869     1.190494146053     1.181947139166     1.007825032230
         H           -0.455623077869    -0.531802853947     2.143407139166     1.007825032230
         H           -1.597837077869    -1.803656853947     1.694945139166     1.007825032230
         H           -3.947277077869     0.682016146053    -1.905982860834     1.007825032230
         H           -4.592849077869     1.047475146053    -0.298440860834     1.007825032230
         H           -3.159277077869     1.903948146053    -0.892701860834     1.007825032230
         H            1.933531422131    -2.003986953947    -0.661235960834     1.007825032230
         H            4.157575922131    -1.088109853947    -0.735861860834     1.007825032230
         H            2.208052922131     2.508840146053     0.613699139166     1.007825032230
         H            4.307313922131     1.328882146053    -0.052909860834     1.007825032230

  Basis Set: AUG-CC-PVTZ
    Blend: AUG-CC-PVTZ
  Basis Set: (AUG-CC-PVTZ AUX)
    Blend: AUG-CC-PVTZ-JKFIT
	 Reference Energy          =    -479.8621688404418819 [Eh]
	 Singles Energy            =      -0.0000000000000000 [Eh]
	 Same-Spin Energy          =      -0.5324877157604717 [Eh]
	 Opposite-Spin Energy      =      -1.7448227453382721 [Eh]
	 Correlation Energy        =      -2.2773104610987440 [Eh]
	 Total Energy              =    -482.1394793015406322 [Eh]

	 ================> DF-SCS-MP2 Energies <==================
	-----------------------------------------------------------
	 SCS Same-Spin Scale       =       0.3333333333333333 [-]
	 SCS Opposite-Spin Scale   =       1.2000000000000000 [-]
	 SCS Same-Spin Energy      =      -0.1774959052534906 [Eh]
	 SCS Opposite-Spin Energy  =      -2.0937872944059266 [Eh]
	 SCS Correlation Energy    =      -2.2712831996594169 [Eh]
	 SCS Total Energy          =    -482.1334520401013037 [Eh]
	-----------------------------------------------------------

  Dipole Moment: [D]
     X:     1.3166      Y:    -1.1021      Z:    -0.5020     Total:     1.7889

*** Psi4 exiting successfully. Buy a developer a beer!
