                               Psi4 1.4a3.dev225

  ==> Input File <==

--------------------------------------------------------------------------
#psi4
#
memory 32 gb

molecule  {
0 1
  N        1.0430420     0.8835120     0.3262100
  C       -2.6935940    -0.1236090    -0.2650160
  C       -0.4170680    -1.0145740    -0.0079460
  C       -1.3861691    -0.4552779    -1.0827629
  C       -2.2166740     0.1783740     1.1559530
  C       -1.0996000    -0.8433070     1.3811970
  C       -3.6002280     0.9375310    -0.8724950
  C        0.9620280    -0.4146880    -0.0398380
  C        2.0893310    -1.1495780    -0.4236340
  C        3.3396130    -0.5322390    -0.4347340
  C        2.2533150     1.4653640     0.3147880
  C        3.4262710     0.8062240    -0.0568370
  H       -3.2284890    -1.0854330    -0.2500270
  H       -0.3333030    -2.0805640    -0.2540920
  H       -0.9618110     0.6780590    -1.2570810
  H       -1.4754410    -0.8694270    -1.9482280
  H       -3.0167220     0.1138590     1.9027270
  H       -1.8007770     1.1928100     1.1867420
  H       -0.3855780    -0.5294870     2.1482020
  H       -1.5277920    -1.8013410     1.6997400
  H       -3.8772320     0.6843320    -1.9011880
  H       -4.5228040     1.0497910    -0.2936460
  H       -3.0892320     1.9062640    -0.8879070
  H        1.9842510    -2.1936970    -0.7089060
  H        4.2276210    -1.0857940    -0.7310670
  H        2.2780980     2.5111560     0.6184940
  H        4.3773590     1.3311980    -0.0481150
units angstrom
no_reorient  #important for SAPT in psi4, default
symmetry c1  #important for SAPT in psi4, default
}

set PROPERTIES_ORIGIN ["COM"]
properties('MP2/aug-cc-pvtz', properties = ['dipole'])
--------------------------------------------------------------------------

    Molecular point group: c1
  Charge       = 0
  Multiplicity = 1
  Basis Set: AUG-CC-PVTZ
    Blend: AUG-CC-PVTZ
  Basis Set: (AUG-CC-PVTZ AUX)
    Blend: AUG-CC-PVTZ-JKFIT

    Orbital Energies [Eh]
    ---------------------

    Doubly Occupied:

       1A    -15.558026     2A    -11.275629     3A    -11.273963
       4A    -11.257703     5A    -11.235909     6A    -11.235232
       7A    -11.228260     8A    -11.218499     9A    -11.213105
      10A    -11.212284    11A    -11.205266    12A    -11.205240
      13A     -1.251419    14A     -1.122794    15A     -1.081671
      16A     -1.045143    17A     -0.990277    18A     -0.960030
      19A     -0.893915    20A     -0.854825    21A     -0.837814
      22A     -0.767782    23A     -0.756322    24A     -0.696738
      25A     -0.674325    26A     -0.644499    27A     -0.638916
      28A     -0.608455    29A     -0.581827    30A     -0.575389
      31A     -0.570167    32A     -0.554465    33A     -0.540228
      34A     -0.524444    35A     -0.508518    36A     -0.497684
      37A     -0.470977    38A     -0.460966    39A     -0.446999
      40A     -0.438024    41A     -0.417059    42A     -0.409493
      43A     -0.376156    44A     -0.332576

  @DF-RHF Final Energy:  -479.86539586890888

   => Energetics <=

    Nuclear Repulsion Energy =            684.3558107786615210
    One-Electron Energy =               -2007.1443773644109569
    Two-Electron Energy =                 842.9231707168404455
    Total Energy =                       -479.8653958689088768
  Basis Set: (AUG-CC-PVTZ AUX)
    Blend: AUG-CC-PVTZ-RI
    Molecular point group: c1

    Geometry (in Angstrom), charge = 0, multiplicity = 1:

       Center              X                  Y                   Z               Mass
    ------------   -----------------  -----------------  -----------------  -----------------
         N            0.974448518893     0.893176470804     0.327066353785    14.003074004430
         C           -2.762187481107    -0.113944529196    -0.264159646215    12.000000000000
         C           -0.485661481107    -1.004909529196    -0.007089646215    12.000000000000
         C           -1.454762581107    -0.445613429196    -1.081906546215    12.000000000000
         C           -2.285267481107     0.188038470804     1.156809353785    12.000000000000
         C           -1.168193481107    -0.833642529196     1.382053353785    12.000000000000
         C           -3.668821481107     0.947195470804    -0.871638646215    12.000000000000
         C            0.893434518893    -0.405023529196    -0.038981646215    12.000000000000
         C            2.020737518893    -1.139913529196    -0.422777646215    12.000000000000
         C            3.271019518893    -0.522574529196    -0.433877646215    12.000000000000
         C            2.184721518893     1.475028470804     0.315644353785    12.000000000000
         C            3.357677518893     0.815888470804    -0.055980646215    12.000000000000
         H           -3.297082481107    -1.075768529196    -0.249170646215     1.007825032230
         H           -0.401896481107    -2.070899529196    -0.253235646215     1.007825032230
         H           -1.030404481107     0.687723470804    -1.256224646215     1.007825032230
         H           -1.544034481107    -0.859762529196    -1.947371646215     1.007825032230
         H           -3.085315481107     0.123523470804     1.903583353785     1.007825032230
         H           -1.869370481107     1.202474470804     1.187598353785     1.007825032230
         H           -0.454171481107    -0.519822529196     2.149058353785     1.007825032230
         H           -1.596385481107    -1.791676529196     1.700596353785     1.007825032230
         H           -3.945825481107     0.693996470804    -1.900331646215     1.007825032230
         H           -4.591397481107     1.059455470804    -0.292789646215     1.007825032230
         H           -3.157825481107     1.915928470804    -0.887050646215     1.007825032230
         H            1.915657518893    -2.184032529196    -0.708049646215     1.007825032230
         H            4.159027518893    -1.076129529196    -0.730210646215     1.007825032230
         H            2.209504518893     2.520820470804     0.619350353785     1.007825032230
         H            4.308765518893     1.340862470804    -0.047258646215     1.007825032230

  Basis Set: AUG-CC-PVTZ
    Blend: AUG-CC-PVTZ
  Basis Set: (AUG-CC-PVTZ AUX)
    Blend: AUG-CC-PVTZ-JKFIT
	 Reference Energy          =    -479.8653958689088768 [Eh]
	 Singles Energy            =      -0.0000000000000000 [Eh]
	 Same-Spin Energy          =      -0.5331664600913295 [Eh]
	 Opposite-Spin Energy      =      -1.7470958091959168 [Eh]
	 Correlation Energy        =      -2.2802622692872463 [Eh]
	 Total Energy              =    -482.1456581381960973 [Eh]

	 ================> DF-SCS-MP2 Energies <==================
	-----------------------------------------------------------
	 SCS Same-Spin Scale       =       0.3333333333333333 [-]
	 SCS Opposite-Spin Scale   =       1.2000000000000000 [-]
	 SCS Same-Spin Energy      =      -0.1777221533637765 [Eh]
	 SCS Opposite-Spin Energy  =      -2.0965149710350999 [Eh]
	 SCS Correlation Energy    =      -2.2742371243988764 [Eh]
	 SCS Total Energy          =    -482.1396329933077709 [Eh]
	-----------------------------------------------------------

  Dipole Moment: [D]
     X:     1.3175      Y:    -1.1487      Z:    -0.4753     Total:     1.8114

*** Psi4 exiting successfully. Buy a developer a beer!
