                               Psi4 1.4a3.dev225

  ==> Input File <==

--------------------------------------------------------------------------
#psi4
#
memory 32 gb

molecule  {
0 1
  N        1.0430420     0.8835120     0.3262100
  C       -2.6935940    -0.1236090    -0.2650160
  C       -0.4170680    -1.0145740    -0.0079460
  C       -1.3683020    -0.3105490    -1.0112920
  C       -2.2166740     0.1783740     1.1559530
  C       -1.0996000    -0.8433070     1.3811970
  C       -3.6002280     0.9375310    -0.8724950
  C        0.9620280    -0.4146880    -0.0398380
  C        2.0893310    -1.1495780    -0.4236340
  C        3.3396130    -0.5322390    -0.4347340
  C        2.2533150     1.4653640     0.3147880
  C        3.4262710     0.8062240    -0.0568370
  H       -3.2284890    -1.0854330    -0.2500270
  H       -0.3333030    -2.0805640    -0.2540920
  H       -0.9618110     0.6780590    -1.2570810
  H       -1.4754410    -0.8694270    -1.9482280
  H       -3.0167220     0.1138590     1.9027270
  H       -1.8007770     1.1928100     1.1867420
  H       -0.3855780    -0.5294870     2.1482020
  H       -1.5277920    -1.8013410     1.6997400
  H       -3.8266382     0.7305779    -1.7133008
  H       -4.5228040     1.0497910    -0.2936460
  H       -3.0892320     1.9062640    -0.8879070
  H        1.9842510    -2.1936970    -0.7089060
  H        4.2276210    -1.0857940    -0.7310670
  H        2.2780980     2.5111560     0.6184940
  H        4.3773590     1.3311980    -0.0481150
units angstrom
no_reorient  #important for SAPT in psi4, default
symmetry c1  #important for SAPT in psi4, default
}

set PROPERTIES_ORIGIN ["COM"]
properties('MP2/aug-cc-pvtz', properties = ['dipole'])
--------------------------------------------------------------------------

    Molecular point group: c1
  Charge       = 0
  Multiplicity = 1
  Basis Set: AUG-CC-PVTZ
    Blend: AUG-CC-PVTZ
  Basis Set: (AUG-CC-PVTZ AUX)
    Blend: AUG-CC-PVTZ-JKFIT

    Orbital Energies [Eh]
    ---------------------

    Doubly Occupied:

       1A    -15.557705     2A    -11.275040     3A    -11.274096
       4A    -11.257709     5A    -11.235642     6A    -11.234854
       7A    -11.225764     8A    -11.212985     9A    -11.210442
      10A    -11.209434    11A    -11.202242    12A    -11.179781
      13A     -1.251578    14A     -1.127504    15A     -1.081638
      16A     -1.048256    17A     -1.000066    18A     -0.954145
      19A     -0.907628    20A     -0.855262    21A     -0.838102
      22A     -0.763777    23A     -0.757901    24A     -0.696633
      25A     -0.667837    26A     -0.641295    27A     -0.640044
      28A     -0.613237    29A     -0.597558    30A     -0.580067
      31A     -0.575126    32A     -0.560001    33A     -0.537733
      34A     -0.528521    35A     -0.511668    36A     -0.472577
      37A     -0.468507    38A     -0.460226    39A     -0.452048
      40A     -0.446830    41A     -0.443074    42A     -0.409668
      43A     -0.376725    44A     -0.331837

  @DF-RHF Final Energy:  -479.86276586799613

   => Energetics <=

    Nuclear Repulsion Energy =            686.8897999687933407
    One-Electron Energy =               -2012.1596049572990523
    Two-Electron Energy =                 845.4070391205095802
    Total Energy =                       -479.8627658679961314
  Basis Set: (AUG-CC-PVTZ AUX)
    Blend: AUG-CC-PVTZ-RI
    Molecular point group: c1

    Geometry (in Angstrom), charge = 0, multiplicity = 1:

       Center              X                  Y                   Z               Mass
    ------------   -----------------  -----------------  -----------------  -----------------
         N            0.972801335689     0.882108014991     0.320568058710    14.003074004430
         C           -2.763834664311    -0.125012985009    -0.270657941290    12.000000000000
         C           -0.487308664311    -1.015977985009    -0.013587941290    12.000000000000
         C           -1.438542664311    -0.311952985009    -1.016933941290    12.000000000000
         C           -2.286914664311     0.176970014991     1.150311058710    12.000000000000
         C           -1.169840664311    -0.844710985009     1.375555058710    12.000000000000
         C           -3.670468664311     0.936127014991    -0.878136941290    12.000000000000
         C            0.891787335689    -0.416091985009    -0.045479941290    12.000000000000
         C            2.019090335689    -1.150981985009    -0.429275941290    12.000000000000
         C            3.269372335689    -0.533642985009    -0.440375941290    12.000000000000
         C            2.183074335689     1.463960014991     0.309146058710    12.000000000000
         C            3.356030335689     0.804820014991    -0.062478941290    12.000000000000
         H           -3.298729664311    -1.086836985009    -0.255668941290     1.007825032230
         H           -0.403543664311    -2.081967985009    -0.259733941290     1.007825032230
         H           -1.032051664311     0.676655014991    -1.262722941290     1.007825032230
         H           -1.545681664311    -0.870830985009    -1.953869941290     1.007825032230
         H           -3.086962664311     0.112455014991     1.897085058710     1.007825032230
         H           -1.871017664311     1.191406014991     1.181100058710     1.007825032230
         H           -0.455818664311    -0.530890985009     2.142560058710     1.007825032230
         H           -1.598032664311    -1.802744985009     1.694098058710     1.007825032230
         H           -3.896878864311     0.729173914991    -1.718942741290     1.007825032230
         H           -4.593044664311     1.048387014991    -0.299287941290     1.007825032230
         H           -3.159472664311     1.904860014991    -0.893548941290     1.007825032230
         H            1.914010335689    -2.195100985009    -0.714547941290     1.007825032230
         H            4.157380335689    -1.087197985009    -0.736708941290     1.007825032230
         H            2.207857335689     2.509752014991     0.612852058710     1.007825032230
         H            4.307118335689     1.329794014991    -0.053756941290     1.007825032230

  Basis Set: AUG-CC-PVTZ
    Blend: AUG-CC-PVTZ
  Basis Set: (AUG-CC-PVTZ AUX)
    Blend: AUG-CC-PVTZ-JKFIT
	 Reference Energy          =    -479.8627658679961314 [Eh]
	 Singles Energy            =      -0.0000000000000000 [Eh]
	 Same-Spin Energy          =      -0.5329581966179796 [Eh]
	 Opposite-Spin Energy      =      -1.7449500561729732 [Eh]
	 Correlation Energy        =      -2.2779082527909527 [Eh]
	 Total Energy              =    -482.1406741207870823 [Eh]

	 ================> DF-SCS-MP2 Energies <==================
	-----------------------------------------------------------
	 SCS Same-Spin Scale       =       0.3333333333333333 [-]
	 SCS Opposite-Spin Scale   =       1.2000000000000000 [-]
	 SCS Same-Spin Energy      =      -0.1776527322059932 [Eh]
	 SCS Opposite-Spin Energy  =      -2.0939400674075679 [Eh]
	 SCS Correlation Energy    =      -2.2715927996135612 [Eh]
	 SCS Total Energy          =    -482.1343586676097175 [Eh]
	-----------------------------------------------------------

  Dipole Moment: [D]
     X:     1.2664      Y:    -1.0632      Z:    -0.5995     Total:     1.7588

*** Psi4 exiting successfully. Buy a developer a beer!
