                               Psi4 1.4a3.dev225

  ==> Input File <==

--------------------------------------------------------------------------
#psi4
#
memory 32 gb

molecule  {
0 1
  N        1.0430420     0.8835120     0.3262100
  C       -2.6980992    -0.1767984    -0.2616098
  C       -0.4170680    -1.0145740    -0.0079460
  C       -1.3683020    -0.3105490    -1.0112920
  C       -2.2166740     0.1783740     1.1559530
  C       -1.0996000    -0.8433070     1.3811970
  C       -3.6002280     0.9375310    -0.8724950
  C        0.9620280    -0.4146880    -0.0398380
  C        2.0893310    -1.1495780    -0.4236340
  C        3.3396130    -0.5322390    -0.4347340
  C        2.2533150     1.4653640     0.3147880
  C        3.4262710     0.8062240    -0.0568370
  H       -3.2284890    -1.0854330    -0.2500270
  H       -0.3333030    -2.0805640    -0.2540920
  H       -0.9618110     0.6780590    -1.2570810
  H       -1.4754410    -0.8694270    -1.9482280
  H       -3.0167220     0.1138590     1.9027270
  H       -1.8007770     1.1928100     1.1867420
  H       -0.3855780    -0.5294870     2.1482020
  H       -1.5277920    -1.8013410     1.6997400
  H       -3.8772320     0.6843320    -1.9011880
  H       -4.5228040     1.0497910    -0.2936460
  H       -3.0892320     1.9062640    -0.8879070
  H        1.9842510    -2.1936970    -0.7089060
  H        4.2276210    -1.0857940    -0.7310670
  H        2.2780980     2.5111560     0.6184940
  H        4.3773590     1.3311980    -0.0481150
units angstrom
no_reorient  #important for SAPT in psi4, default
symmetry c1  #important for SAPT in psi4, default
}

set PROPERTIES_ORIGIN ["COM"]
properties('MP2/aug-cc-pvtz', properties = ['dipole'])
--------------------------------------------------------------------------

    Molecular point group: c1
  Charge       = 0
  Multiplicity = 1
  Basis Set: AUG-CC-PVTZ
    Blend: AUG-CC-PVTZ
  Basis Set: (AUG-CC-PVTZ AUX)
    Blend: AUG-CC-PVTZ-JKFIT

    Orbital Energies [Eh]
    ---------------------

    Doubly Occupied:

       1A    -15.557915     2A    -11.275103     3A    -11.274274
       4A    -11.257836     5A    -11.235762     6A    -11.234938
       7A    -11.225500     8A    -11.212847     9A    -11.210685
      10A    -11.209800    11A    -11.205688    12A    -11.203895
      13A     -1.251764    14A     -1.126779    15A     -1.081722
      16A     -1.044960    17A     -0.987314    18A     -0.954345
      19A     -0.891678    20A     -0.855077    21A     -0.836021
      22A     -0.766293    23A     -0.761348    24A     -0.696484
      25A     -0.667867    26A     -0.641525    27A     -0.638766
      28A     -0.606584    29A     -0.584271    30A     -0.577991
      31A     -0.572922    32A     -0.548970    33A     -0.537615
      34A     -0.527171    35A     -0.512849    36A     -0.473136
      37A     -0.469059    38A     -0.462355    39A     -0.453777
      40A     -0.449112    41A     -0.434932    42A     -0.409559
      43A     -0.376978    44A     -0.331879

  @DF-RHF Final Energy:  -479.89382910126233

   => Energetics <=

    Nuclear Repulsion Energy =            685.6078591888090159
    One-Electron Energy =               -2009.7326899000222511
    Two-Electron Energy =                 844.2310016099509085
    Total Energy =                       -479.8938291012623267
  Basis Set: (AUG-CC-PVTZ AUX)
    Blend: AUG-CC-PVTZ-RI
    Molecular point group: c1

    Geometry (in Angstrom), charge = 0, multiplicity = 1:

       Center              X                  Y                   Z               Mass
    ------------   -----------------  -----------------  -----------------  -----------------
         N            0.973453345403     0.886358751492     0.321489624060    14.003074004430
         C           -2.767687854597    -0.173951648508    -0.266330175940    12.000000000000
         C           -0.486656654597    -1.011727248508    -0.012666375940    12.000000000000
         C           -1.437890654597    -0.307702248508    -1.016012375940    12.000000000000
         C           -2.286262654597     0.181220751492     1.151232624060    12.000000000000
         C           -1.169188654597    -0.840460248508     1.376476624060    12.000000000000
         C           -3.669816654597     0.940377751492    -0.877215375940    12.000000000000
         C            0.892439345403    -0.411841248508    -0.044558375940    12.000000000000
         C            2.019742345403    -1.146731248508    -0.428354375940    12.000000000000
         C            3.270024345403    -0.529392248508    -0.439454375940    12.000000000000
         C            2.183726345403     1.468210751492     0.310067624060    12.000000000000
         C            3.356682345403     0.809070751492    -0.061557375940    12.000000000000
         H           -3.298077654597    -1.082586248508    -0.254747375940     1.007825032230
         H           -0.402891654597    -2.077717248508    -0.258812375940     1.007825032230
         H           -1.031399654597     0.680905751492    -1.261801375940     1.007825032230
         H           -1.545029654597    -0.866580248508    -1.952948375940     1.007825032230
         H           -3.086310654597     0.116705751492     1.898006624060     1.007825032230
         H           -1.870365654597     1.195656751492     1.182021624060     1.007825032230
         H           -0.455166654597    -0.526640248508     2.143481624060     1.007825032230
         H           -1.597380654597    -1.798494248508     1.695019624060     1.007825032230
         H           -3.946820654597     0.687178751492    -1.905908375940     1.007825032230
         H           -4.592392654597     1.052637751492    -0.298366375940     1.007825032230
         H           -3.158820654597     1.909110751492    -0.892627375940     1.007825032230
         H            1.914662345403    -2.190850248508    -0.713626375940     1.007825032230
         H            4.158032345403    -1.082947248508    -0.735787375940     1.007825032230
         H            2.208509345403     2.514002751492     0.613773624060     1.007825032230
         H            4.307770345403     1.334044751492    -0.052835375940     1.007825032230

  Basis Set: AUG-CC-PVTZ
    Blend: AUG-CC-PVTZ
  Basis Set: (AUG-CC-PVTZ AUX)
    Blend: AUG-CC-PVTZ-JKFIT
	 Reference Energy          =    -479.8938291012623267 [Eh]
	 Singles Energy            =      -0.0000000000000000 [Eh]
	 Same-Spin Energy          =      -0.5326192889574048 [Eh]
	 Opposite-Spin Energy      =      -1.7454414329393237 [Eh]
	 Correlation Energy        =      -2.2780607218967286 [Eh]
	 Total Energy              =    -482.1718898231590629 [Eh]

	 ================> DF-SCS-MP2 Energies <==================
	-----------------------------------------------------------
	 SCS Same-Spin Scale       =       0.3333333333333333 [-]
	 SCS Opposite-Spin Scale   =       1.2000000000000000 [-]
	 SCS Same-Spin Energy      =      -0.1775397629858016 [Eh]
	 SCS Opposite-Spin Energy  =      -2.0945297195271886 [Eh]
	 SCS Correlation Energy    =      -2.2720694825129901 [Eh]
	 SCS Total Energy          =    -482.1658985837753448 [Eh]
	-----------------------------------------------------------

  Dipole Moment: [D]
     X:     1.3208      Y:    -1.1040      Z:    -0.4890     Total:     1.7895

*** Psi4 exiting successfully. Buy a developer a beer!
