                               Psi4 1.4a3.dev225

  ==> Input File <==

--------------------------------------------------------------------------
#psi4
#
memory 32 gb

molecule  {
0 1
  N        1.0430420     0.8835120     0.3262100
  C       -2.6935940    -0.1236090    -0.2650160
  C       -0.4070652    -1.0374298    -0.0161207
  C       -1.3683020    -0.3105490    -1.0112920
  C       -2.2166740     0.1783740     1.1559530
  C       -1.0996000    -0.8433070     1.3811970
  C       -3.6002280     0.9375310    -0.8724950
  C        0.9620280    -0.4146880    -0.0398380
  C        2.0893310    -1.1495780    -0.4236340
  C        3.3396130    -0.5322390    -0.4347340
  C        2.2533150     1.4653640     0.3147880
  C        3.4262710     0.8062240    -0.0568370
  H       -3.2284890    -1.0854330    -0.2500270
  H       -0.3333030    -2.0805640    -0.2540920
  H       -0.9618110     0.6780590    -1.2570810
  H       -1.4754410    -0.8694270    -1.9482280
  H       -3.0167220     0.1138590     1.9027270
  H       -1.8007770     1.1928100     1.1867420
  H       -0.3855780    -0.5294870     2.1482020
  H       -1.5277920    -1.8013410     1.6997400
  H       -3.8772320     0.6843320    -1.9011880
  H       -4.5228040     1.0497910    -0.2936460
  H       -3.0892320     1.9062640    -0.8879070
  H        1.9842510    -2.1936970    -0.7089060
  H        4.2276210    -1.0857940    -0.7310670
  H        2.2780980     2.5111560     0.6184940
  H        4.3773590     1.3311980    -0.0481150
units angstrom
no_reorient  #important for SAPT in psi4, default
symmetry c1  #important for SAPT in psi4, default
}

set PROPERTIES_ORIGIN ["COM"]
properties('MP2/aug-cc-pvtz', properties = ['dipole'])
--------------------------------------------------------------------------

    Molecular point group: c1
  Charge       = 0
  Multiplicity = 1
  Basis Set: AUG-CC-PVTZ
    Blend: AUG-CC-PVTZ
  Basis Set: (AUG-CC-PVTZ AUX)
    Blend: AUG-CC-PVTZ-JKFIT

    Orbital Energies [Eh]
    ---------------------

    Doubly Occupied:

       1A    -15.558093     2A    -11.275477     3A    -11.274462
       4A    -11.257674     5A    -11.235603     6A    -11.234509
       7A    -11.225359     8A    -11.214654     9A    -11.212058
      10A    -11.210384    11A    -11.205306    12A    -11.203789
      13A     -1.251598    14A     -1.125599    15A     -1.081623
      16A     -1.046767    17A     -0.990319    18A     -0.954279
      19A     -0.893679    20A     -0.855162    21A     -0.836270
      22A     -0.765763    23A     -0.755733    24A     -0.697587
      25A     -0.667364    26A     -0.640804    27A     -0.639289
      28A     -0.607317    29A     -0.585950    30A     -0.577905
      31A     -0.574125    32A     -0.551721    33A     -0.538077
      34A     -0.527029    35A     -0.512426    36A     -0.471847
      37A     -0.467127    38A     -0.461048    39A     -0.455713
      40A     -0.446765    41A     -0.439693    42A     -0.409386
      43A     -0.376841    44A     -0.331307

  @DF-RHF Final Energy:  -479.89616998498099

   => Energetics <=

    Nuclear Repulsion Energy =            685.5261506931622080
    One-Electron Energy =               -2009.5576796557231773
    Two-Electron Energy =                 844.1353589775800401
    Total Energy =                       -479.8961699849809293
  Basis Set: (AUG-CC-PVTZ AUX)
    Blend: AUG-CC-PVTZ-RI
    Molecular point group: c1

    Geometry (in Angstrom), charge = 0, multiplicity = 1:

       Center              X                  Y                   Z               Mass
    ------------   -----------------  -----------------  -----------------  -----------------
         N            0.972372812171     0.884099552234     0.322352151445    14.003074004430
         C           -2.764263187829    -0.123021447766    -0.268873848555    12.000000000000
         C           -0.477734387829    -1.036842247766    -0.019978548555    12.000000000000
         C           -1.438971187829    -0.309961447766    -1.015149848555    12.000000000000
         C           -2.287343187829     0.178961552234     1.152095151445    12.000000000000
         C           -1.170269187829    -0.842719447766     1.377339151445    12.000000000000
         C           -3.670897187829     0.938118552234    -0.876352848555    12.000000000000
         C            0.891358812171    -0.414100447766    -0.043695848555    12.000000000000
         C            2.018661812171    -1.148990447766    -0.427491848555    12.000000000000
         C            3.268943812171    -0.531651447766    -0.438591848555    12.000000000000
         C            2.182645812171     1.465951552234     0.310930151445    12.000000000000
         C            3.355601812171     0.806811552234    -0.060694848555    12.000000000000
         H           -3.299158187829    -1.084845447766    -0.253884848555     1.007825032230
         H           -0.403972187829    -2.079976447766    -0.257949848555     1.007825032230
         H           -1.032480187829     0.678646552234    -1.260938848555     1.007825032230
         H           -1.546110187829    -0.868839447766    -1.952085848555     1.007825032230
         H           -3.087391187829     0.114446552234     1.898869151445     1.007825032230
         H           -1.871446187829     1.193397552234     1.182884151445     1.007825032230
         H           -0.456247187829    -0.528899447766     2.144344151445     1.007825032230
         H           -1.598461187829    -1.800753447766     1.695882151445     1.007825032230
         H           -3.947901187829     0.684919552234    -1.905045848555     1.007825032230
         H           -4.593473187829     1.050378552234    -0.297503848555     1.007825032230
         H           -3.159901187829     1.906851552234    -0.891764848555     1.007825032230
         H            1.913581812171    -2.193109447766    -0.712763848555     1.007825032230
         H            4.156951812171    -1.085206447766    -0.734924848555     1.007825032230
         H            2.207428812171     2.511743552234     0.614636151445     1.007825032230
         H            4.306689812171     1.331785552234    -0.051972848555     1.007825032230

  Basis Set: AUG-CC-PVTZ
    Blend: AUG-CC-PVTZ
  Basis Set: (AUG-CC-PVTZ AUX)
    Blend: AUG-CC-PVTZ-JKFIT
	 Reference Energy          =    -479.8961699849809861 [Eh]
	 Singles Energy            =      -0.0000000000000000 [Eh]
	 Same-Spin Energy          =      -0.5326577942700967 [Eh]
	 Opposite-Spin Energy      =      -1.7453827990331301 [Eh]
	 Correlation Energy        =      -2.2780405933032268 [Eh]
	 Total Energy              =    -482.1742105782842032 [Eh]

	 ================> DF-SCS-MP2 Energies <==================
	-----------------------------------------------------------
	 SCS Same-Spin Scale       =       0.3333333333333333 [-]
	 SCS Opposite-Spin Scale   =       1.2000000000000000 [-]
	 SCS Same-Spin Energy      =      -0.1775525980900322 [Eh]
	 SCS Opposite-Spin Energy  =      -2.0944593588397562 [Eh]
	 SCS Correlation Energy    =      -2.2720119569297883 [Eh]
	 SCS Total Energy          =    -482.1681819419108024 [Eh]
	-----------------------------------------------------------

  Dipole Moment: [D]
     X:     1.3127      Y:    -1.0889      Z:    -0.4997     Total:     1.7773

*** Psi4 exiting successfully. Buy a developer a beer!
