                               Psi4 1.4a3.dev225

  ==> Input File <==

--------------------------------------------------------------------------
#psi4
#
memory 32 gb

molecule  {
0 1
  N        1.0430420     0.8835120     0.3262100
  C       -2.6935940    -0.1236090    -0.2650160
  C       -0.4170680    -1.0145740    -0.0079460
  C       -1.3683020    -0.3105490    -1.0112920
  C       -2.2166740     0.1783740     1.1559530
  C       -1.0996000    -0.8433070     1.3811970
  C       -3.6002280     0.9375310    -0.8724950
  C        0.9620280    -0.4146880    -0.0398380
  C        2.0893310    -1.1495780    -0.4236340
  C        3.3396130    -0.5322390    -0.4347340
  C        2.2533150     1.4653640     0.3147880
  C        3.4262710     0.8062240    -0.0568370
  H       -3.2284890    -1.0854330    -0.2500270
  H       -0.3333030    -2.0805640    -0.2540920
  H       -0.9618110     0.6780590    -1.2570810
  H       -1.4754410    -0.8694270    -1.9482280
  H       -3.0167220     0.1138590     1.9027270
  H       -1.8007770     1.1928100     1.1867420
  H       -0.3855780    -0.5294870     2.1482020
  H       -1.5277920    -1.8013410     1.6997400
  H       -3.8772320     0.6843320    -1.9011880
  H       -4.5228040     1.0497910    -0.2936460
  H       -3.0892320     1.9062640    -0.8879070
  H        1.9842510    -2.1936970    -0.7089060
  H        4.2276210    -1.0857940    -0.7310670
  H        2.2780980     2.5111560     0.6184940
  H        4.3773590     1.3311980    -0.0481150
units angstrom
no_reorient  #important for SAPT in psi4, default
symmetry c1  #important for SAPT in psi4, default
}

set PROPERTIES_ORIGIN ["COM"]
properties('MP2/aug-cc-pvtz', properties = ['dipole'])
--------------------------------------------------------------------------

    Molecular point group: c1
  Charge       = 0
  Multiplicity = 1
  Basis Set: AUG-CC-PVTZ
    Blend: AUG-CC-PVTZ
  Basis Set: (AUG-CC-PVTZ AUX)
    Blend: AUG-CC-PVTZ-JKFIT

    Orbital Energies [Eh]
    ---------------------

    Doubly Occupied:

       1A    -15.558010     2A    -11.275331     3A    -11.274356
       4A    -11.257944     5A    -11.235883     6A    -11.235110
       7A    -11.226138     8A    -11.214599     9A    -11.211394
      10A    -11.209708    11A    -11.205243    12A    -11.203709
      13A     -1.251872    14A     -1.127544    15A     -1.081859
      16A     -1.046476    17A     -0.991218    18A     -0.954788
      19A     -0.893778    20A     -0.855203    21A     -0.836733
      22A     -0.764400    23A     -0.755614    24A     -0.696788
      25A     -0.668104    26A     -0.640689    27A     -0.640068
      28A     -0.607979    29A     -0.584975    30A     -0.577511
      31A     -0.574058    32A     -0.551778    33A     -0.538069
      34A     -0.527070    35A     -0.511838    36A     -0.473177
      37A     -0.468956    38A     -0.461039    39A     -0.452709
      40A     -0.447023    41A     -0.439549    42A     -0.410005
      43A     -0.376990    44A     -0.332121

  @DF-RHF Final Energy:  -479.89661157642502

   => Energetics <=

    Nuclear Repulsion Energy =            685.8638968191544336
    One-Electron Energy =               -2010.2262034500170103
    Two-Electron Energy =                 844.4656950544375604
    Total Energy =                       -479.8966115764250162
  Basis Set: (AUG-CC-PVTZ AUX)
    Blend: AUG-CC-PVTZ-RI
    Molecular point group: c1

    Geometry (in Angstrom), charge = 0, multiplicity = 1:

       Center              X                  Y                   Z               Mass
    ------------   -----------------  -----------------  -----------------  -----------------
         N            0.973117805127     0.882397287866     0.321743312528    14.003074004430
         C           -2.763518194873    -0.124723712134    -0.269482687472    12.000000000000
         C           -0.486992194873    -1.015688712134    -0.012412687472    12.000000000000
         C           -1.438226194873    -0.311663712134    -1.015758687472    12.000000000000
         C           -2.286598194873     0.177259287866     1.151486312528    12.000000000000
         C           -1.169524194873    -0.844421712134     1.376730312528    12.000000000000
         C           -3.670152194873     0.936416287866    -0.876961687472    12.000000000000
         C            0.892103805127    -0.415802712134    -0.044304687472    12.000000000000
         C            2.019406805127    -1.150692712134    -0.428100687472    12.000000000000
         C            3.269688805127    -0.533353712134    -0.439200687472    12.000000000000
         C            2.183390805127     1.464249287866     0.310321312528    12.000000000000
         C            3.356346805127     0.805109287866    -0.061303687472    12.000000000000
         H           -3.298413194873    -1.086547712134    -0.254493687472     1.007825032230
         H           -0.403227194873    -2.081678712134    -0.258558687472     1.007825032230
         H           -1.031735194873     0.676944287866    -1.261547687472     1.007825032230
         H           -1.545365194873    -0.870541712134    -1.952694687472     1.007825032230
         H           -3.086646194873     0.112744287866     1.898260312528     1.007825032230
         H           -1.870701194873     1.191695287866     1.182275312528     1.007825032230
         H           -0.455502194873    -0.530601712134     2.143735312528     1.007825032230
         H           -1.597716194873    -1.802455712134     1.695273312528     1.007825032230
         H           -3.947156194873     0.683217287866    -1.905654687472     1.007825032230
         H           -4.592728194873     1.048676287866    -0.298112687472     1.007825032230
         H           -3.159156194873     1.905149287866    -0.892373687472     1.007825032230
         H            1.914326805127    -2.194811712134    -0.713372687472     1.007825032230
         H            4.157696805127    -1.086908712134    -0.735533687472     1.007825032230
         H            2.208173805127     2.510041287866     0.614027312528     1.007825032230
         H            4.307434805127     1.330083287866    -0.052581687472     1.007825032230

  Basis Set: AUG-CC-PVTZ
    Blend: AUG-CC-PVTZ
  Basis Set: (AUG-CC-PVTZ AUX)
    Blend: AUG-CC-PVTZ-JKFIT
	 Reference Energy          =    -479.8966115764250162 [Eh]
	 Singles Energy            =      -0.0000000000000000 [Eh]
	 Same-Spin Energy          =      -0.5327879439859544 [Eh]
	 Opposite-Spin Energy      =      -1.7455461603186082 [Eh]
	 Correlation Energy        =      -2.2783341043045624 [Eh]
	 Total Energy              =    -482.1749456807295928 [Eh]

	 ================> DF-SCS-MP2 Energies <==================
	-----------------------------------------------------------
	 SCS Same-Spin Scale       =       0.3333333333333333 [-]
	 SCS Opposite-Spin Scale   =       1.2000000000000000 [-]
	 SCS Same-Spin Energy      =      -0.1775959813286515 [Eh]
	 SCS Opposite-Spin Energy  =      -2.0946553923823297 [Eh]
	 SCS Correlation Energy    =      -2.2722513737109811 [Eh]
	 SCS Total Energy          =    -482.1688629501359742 [Eh]
	-----------------------------------------------------------

  Dipole Moment: [D]
     X:     1.3308      Y:    -1.0706      Z:    -0.4949     Total:     1.7782

*** Psi4 exiting successfully. Buy a developer a beer!
