                               Psi4 1.4a3.dev225

  ==> Input File <==

--------------------------------------------------------------------------
#psi4
#
memory 32 gb

molecule  {
0 1
  N        1.0430420     0.8835120     0.3262100
  C       -2.6935940    -0.1236090    -0.2650160
  C       -0.4170680    -1.0145740    -0.0079460
  C       -1.3683020    -0.3105490    -1.0112920
  C       -2.2166740     0.1783740     1.1559530
  C       -1.0996000    -0.8433070     1.3811970
  C       -3.6002280     0.9375310    -0.8724950
  C        0.9154834    -0.4130250    -0.0323961
  C        2.0893310    -1.1495780    -0.4236340
  C        3.3396130    -0.5322390    -0.4347340
  C        2.2533150     1.4653640     0.3147880
  C        3.4262710     0.8062240    -0.0568370
  H       -3.2284890    -1.0854330    -0.2500270
  H       -0.3333030    -2.0805640    -0.2540920
  H       -0.9618110     0.6780590    -1.2570810
  H       -1.4754410    -0.8694270    -1.9482280
  H       -3.0167220     0.1138590     1.9027270
  H       -1.8007770     1.1928100     1.1867420
  H       -0.3855780    -0.5294870     2.1482020
  H       -1.5277920    -1.8013410     1.6997400
  H       -3.8772320     0.6843320    -1.9011880
  H       -4.5228040     1.0497910    -0.2936460
  H       -3.0892320     1.9062640    -0.8879070
  H        1.9842510    -2.1936970    -0.7089060
  H        4.2276210    -1.0857940    -0.7310670
  H        2.2780980     2.5111560     0.6184940
  H        4.3773590     1.3311980    -0.0481150
units angstrom
no_reorient  #important for SAPT in psi4, default
symmetry c1  #important for SAPT in psi4, default
}

set PROPERTIES_ORIGIN ["COM"]
properties('MP2/aug-cc-pvtz', properties = ['dipole'])
--------------------------------------------------------------------------

    Molecular point group: c1
  Charge       = 0
  Multiplicity = 1
  Basis Set: AUG-CC-PVTZ
    Blend: AUG-CC-PVTZ
  Basis Set: (AUG-CC-PVTZ AUX)
    Blend: AUG-CC-PVTZ-JKFIT

    Orbital Energies [Eh]
    ---------------------

    Doubly Occupied:

       1A    -15.556406     2A    -11.279480     3A    -11.273177
       4A    -11.256165     5A    -11.238213     6A    -11.234775
       7A    -11.225718     8A    -11.215906     9A    -11.213317
      10A    -11.211743    11A    -11.206182    12A    -11.204994
      13A     -1.249117    14A     -1.131137    15A     -1.078937
      16A     -1.047506    17A     -0.990915    18A     -0.956987
      19A     -0.896948    20A     -0.851301    21A     -0.837520
      22A     -0.766149    23A     -0.757333    24A     -0.696301
      25A     -0.668236    26A     -0.642563    27A     -0.639339
      28A     -0.606062    29A     -0.587052    30A     -0.579699
      31A     -0.573230    32A     -0.552373    33A     -0.536374
      34A     -0.527113    35A     -0.515003    36A     -0.476763
      37A     -0.471151    38A     -0.462663    39A     -0.456859
      40A     -0.448539    41A     -0.440925    42A     -0.403815
      43A     -0.376211    44A     -0.326090

  @DF-RHF Final Energy:  -479.89261332520374

   => Energetics <=

    Nuclear Repulsion Energy =            685.9957302800171419
    One-Electron Energy =               -2010.4441114019311954
    Two-Electron Energy =                 844.5557677967102563
    Total Energy =                       -479.8926133252037971
  Basis Set: (AUG-CC-PVTZ AUX)
    Blend: AUG-CC-PVTZ-RI
    Molecular point group: c1

    Geometry (in Angstrom), charge = 0, multiplicity = 1:

       Center              X                  Y                   Z               Mass
    ------------   -----------------  -----------------  -----------------  -----------------
         N            0.976584374404     0.882273430218     0.321189051413    14.003074004430
         C           -2.760051625596    -0.124847569782    -0.270036948587    12.000000000000
         C           -0.483525625596    -1.015812569782    -0.012966948587    12.000000000000
         C           -1.434759625596    -0.311787569782    -1.016312948587    12.000000000000
         C           -2.283131625596     0.177135430218     1.150932051413    12.000000000000
         C           -1.166057625596    -0.844545569782     1.376176051413    12.000000000000
         C           -3.666685625596     0.936292430218    -0.877515948587    12.000000000000
         C            0.849025774404    -0.414263569782    -0.037417048587    12.000000000000
         C            2.022873374404    -1.150816569782    -0.428654948587    12.000000000000
         C            3.273155374404    -0.533477569782    -0.439754948587    12.000000000000
         C            2.186857374404     1.464125430218     0.309767051413    12.000000000000
         C            3.359813374404     0.804985430218    -0.061857948587    12.000000000000
         H           -3.294946625596    -1.086671569782    -0.255047948587     1.007825032230
         H           -0.399760625596    -2.081802569782    -0.259112948587     1.007825032230
         H           -1.028268625596     0.676820430218    -1.262101948587     1.007825032230
         H           -1.541898625596    -0.870665569782    -1.953248948587     1.007825032230
         H           -3.083179625596     0.112620430218     1.897706051413     1.007825032230
         H           -1.867234625596     1.191571430218     1.181721051413     1.007825032230
         H           -0.452035625596    -0.530725569782     2.143181051413     1.007825032230
         H           -1.594249625596    -1.802579569782     1.694719051413     1.007825032230
         H           -3.943689625596     0.683093430218    -1.906208948587     1.007825032230
         H           -4.589261625596     1.048552430218    -0.298666948587     1.007825032230
         H           -3.155689625596     1.905025430218    -0.892927948587     1.007825032230
         H            1.917793374404    -2.194935569782    -0.713926948587     1.007825032230
         H            4.161163374404    -1.087032569782    -0.736087948587     1.007825032230
         H            2.211640374404     2.509917430218     0.613473051413     1.007825032230
         H            4.310901374404     1.329959430218    -0.053135948587     1.007825032230

  Basis Set: AUG-CC-PVTZ
    Blend: AUG-CC-PVTZ
  Basis Set: (AUG-CC-PVTZ AUX)
    Blend: AUG-CC-PVTZ-JKFIT
	 Reference Energy          =    -479.8926133252037403 [Eh]
	 Singles Energy            =      -0.0000000000000000 [Eh]
	 Same-Spin Energy          =      -0.5333855060267036 [Eh]
	 Opposite-Spin Energy      =      -1.7462987102486234 [Eh]
	 Correlation Energy        =      -2.2796842162753270 [Eh]
	 Total Energy              =    -482.1722975414790540 [Eh]

	 ================> DF-SCS-MP2 Energies <==================
	-----------------------------------------------------------
	 SCS Same-Spin Scale       =       0.3333333333333333 [-]
	 SCS Opposite-Spin Scale   =       1.2000000000000000 [-]
	 SCS Same-Spin Energy      =      -0.1777951686755679 [Eh]
	 SCS Opposite-Spin Energy  =      -2.0955584522983481 [Eh]
	 SCS Correlation Energy    =      -2.2733536209739160 [Eh]
	 SCS Total Energy          =    -482.1659669461776616 [Eh]
	-----------------------------------------------------------

  Dipole Moment: [D]
     X:     1.1431      Y:    -1.1139      Z:    -0.4868     Total:     1.6687

*** Psi4 exiting successfully. Buy a developer a beer!
