                               Psi4 1.4a3.dev225

  ==> Input File <==

--------------------------------------------------------------------------
#psi4
#
memory 32 gb

molecule  {
0 1
  N        1.0430420     0.8835120     0.3262100
  C       -2.6935940    -0.1236090    -0.2650160
  C       -0.4170680    -1.0145740    -0.0079460
  C       -1.3683020    -0.3105490    -1.0112920
  C       -2.2166740     0.1783740     1.1559530
  C       -1.0996000    -0.8433070     1.3811970
  C       -3.6002280     0.9375310    -0.8724950
  C        0.9620280    -0.4146880    -0.0398380
  C        2.0893310    -1.1495780    -0.4236340
  C        3.3396130    -0.5322390    -0.4347340
  C        2.2533150     1.4653640     0.3147880
  C        3.4262710     0.8062240    -0.0568370
  H       -3.2284890    -1.0854330    -0.2500270
  H       -0.3333030    -2.0805640    -0.2540920
  H       -0.9618110     0.6780590    -1.2570810
  H       -1.4754410    -0.8694270    -1.9482280
  H       -3.0167220     0.1138590     1.9027270
  H       -1.8007770     1.1928100     1.1867420
  H       -0.3203047    -0.5007987     2.2183189
  H       -1.5277920    -1.8013410     1.6997400
  H       -3.8772320     0.6843320    -1.9011880
  H       -4.5228040     1.0497910    -0.2936460
  H       -3.0892320     1.9062640    -0.8879070
  H        1.9842510    -2.1936970    -0.7089060
  H        4.2276210    -1.0857940    -0.7310670
  H        2.2780980     2.5111560     0.6184940
  H        4.3773590     1.3311980    -0.0481150
units angstrom
no_reorient  #important for SAPT in psi4, default
symmetry c1  #important for SAPT in psi4, default
}

set PROPERTIES_ORIGIN ["COM"]
properties('MP2/aug-cc-pvtz', properties = ['dipole'])
--------------------------------------------------------------------------

    Molecular point group: c1
  Charge       = 0
  Multiplicity = 1
  Basis Set: AUG-CC-PVTZ
    Blend: AUG-CC-PVTZ
  Basis Set: (AUG-CC-PVTZ AUX)
    Blend: AUG-CC-PVTZ-JKFIT

    Orbital Energies [Eh]
    ---------------------

    Doubly Occupied:

       1A    -15.557789     2A    -11.275387     3A    -11.274177
       4A    -11.257791     5A    -11.235715     6A    -11.235002
       7A    -11.227300     8A    -11.223083     9A    -11.215515
      10A    -11.210514    11A    -11.205932    12A    -11.204804
      13A     -1.251682    14A     -1.127718    15A     -1.081709
      16A     -1.046655    17A     -0.989879    18A     -0.954115
      19A     -0.893161    20A     -0.854933    21A     -0.835321
      22A     -0.761153    23A     -0.755726    24A     -0.695594
      25A     -0.668227    26A     -0.640849    27A     -0.638472
      28A     -0.604580    29A     -0.584788    30A     -0.577959
      31A     -0.574101    32A     -0.550633    33A     -0.537006
      34A     -0.526845    35A     -0.510593    36A     -0.471768
      37A     -0.468067    38A     -0.461232    39A     -0.452256
      40A     -0.446981    41A     -0.437100    42A     -0.409964
      43A     -0.376630    44A     -0.332048

  @DF-RHF Final Energy:  -479.88976094873419

   => Energetics <=

    Nuclear Repulsion Energy =            685.4208889933723867
    One-Electron Energy =               -2009.3397958091950386
    Two-Electron Energy =                 844.0291458670883458
    Total Energy =                       -479.8897609487341924
  Basis Set: (AUG-CC-PVTZ AUX)
    Blend: AUG-CC-PVTZ-RI
    Molecular point group: c1

    Geometry (in Angstrom), charge = 0, multiplicity = 1:

       Center              X                  Y                   Z               Mass
    ------------   -----------------  -----------------  -----------------  -----------------
         N            0.972709513902     0.882217839591     0.321304724085    14.003074004430
         C           -2.763926486098    -0.124903160409    -0.269921275915    12.000000000000
         C           -0.487400486098    -1.015868160409    -0.012851275915    12.000000000000
         C           -1.438634486098    -0.311843160409    -1.016197275915    12.000000000000
         C           -2.287006486098     0.177079839591     1.151047724085    12.000000000000
         C           -1.169932486098    -0.844601160409     1.376291724085    12.000000000000
         C           -3.670560486098     0.936236839591    -0.877400275915    12.000000000000
         C            0.891695513902    -0.415982160409    -0.044743275915    12.000000000000
         C            2.018998513902    -1.150872160409    -0.428539275915    12.000000000000
         C            3.269280513902    -0.533533160409    -0.439639275915    12.000000000000
         C            2.182982513902     1.464069839591     0.309882724085    12.000000000000
         C            3.355938513902     0.804929839591    -0.061742275915    12.000000000000
         H           -3.298821486098    -1.086727160409    -0.254932275915     1.007825032230
         H           -0.403635486098    -2.081858160409    -0.258997275915     1.007825032230
         H           -1.032143486098     0.676764839591    -1.261986275915     1.007825032230
         H           -1.545773486098    -0.870721160409    -1.953133275915     1.007825032230
         H           -3.087054486098     0.112564839591     1.897821724085     1.007825032230
         H           -1.871109486098     1.191515839591     1.181836724085     1.007825032230
         H           -0.390637186098    -0.502092860409     2.213413624085     1.007825032230
         H           -1.598124486098    -1.802635160409     1.694834724085     1.007825032230
         H           -3.947564486098     0.683037839591    -1.906093275915     1.007825032230
         H           -4.593136486098     1.048496839591    -0.298551275915     1.007825032230
         H           -3.159564486098     1.904969839591    -0.892812275915     1.007825032230
         H            1.913918513902    -2.194991160409    -0.713811275915     1.007825032230
         H            4.157288513902    -1.087088160409    -0.735972275915     1.007825032230
         H            2.207765513902     2.509861839591     0.613588724085     1.007825032230
         H            4.307026513902     1.329903839591    -0.053020275915     1.007825032230

  Basis Set: AUG-CC-PVTZ
    Blend: AUG-CC-PVTZ
  Basis Set: (AUG-CC-PVTZ AUX)
    Blend: AUG-CC-PVTZ-JKFIT
	 Reference Energy          =    -479.8897609487341924 [Eh]
	 Singles Energy            =      -0.0000000000000000 [Eh]
	 Same-Spin Energy          =      -0.5329435330658837 [Eh]
	 Opposite-Spin Energy      =      -1.7464728512320813 [Eh]
	 Correlation Energy        =      -2.2794163842979649 [Eh]
	 Total Energy              =    -482.1691773330321666 [Eh]

	 ================> DF-SCS-MP2 Energies <==================
	-----------------------------------------------------------
	 SCS Same-Spin Scale       =       0.3333333333333333 [-]
	 SCS Opposite-Spin Scale   =       1.2000000000000000 [-]
	 SCS Same-Spin Energy      =      -0.1776478443552946 [Eh]
	 SCS Opposite-Spin Energy  =      -2.0957674214784974 [Eh]
	 SCS Correlation Energy    =      -2.2734152658337918 [Eh]
	 SCS Total Energy          =    -482.1631762145680113 [Eh]
	-----------------------------------------------------------

  Dipole Moment: [D]
     X:     1.2808      Y:    -1.0624      Z:    -0.5570     Total:     1.7548

*** Psi4 exiting successfully. Buy a developer a beer!
