                               Psi4 1.4a3.dev225

  ==> Input File <==

--------------------------------------------------------------------------
#psi4
#
memory 32 gb

molecule  {
0 1
  N        1.0430420     0.8835120     0.3262100
  C       -2.6935940    -0.1236090    -0.2650160
  C       -0.4170680    -1.0145740    -0.0079460
  C       -1.3683020    -0.3105490    -1.0112920
  C       -2.2166740     0.1783740     1.1559530
  C       -1.0996000    -0.8433070     1.3811970
  C       -3.6002280     0.9375310    -0.8724950
  C        0.9620280    -0.4146880    -0.0398380
  C        2.0893310    -1.1495780    -0.4236340
  C        3.5189381    -0.4436955    -0.4363260
  C        2.2533150     1.4653640     0.3147880
  C        3.4262710     0.8062240    -0.0568370
  H       -3.2284890    -1.0854330    -0.2500270
  H       -0.3333030    -2.0805640    -0.2540920
  H       -0.9618110     0.6780590    -1.2570810
  H       -1.4754410    -0.8694270    -1.9482280
  H       -3.0167220     0.1138590     1.9027270
  H       -1.8007770     1.1928100     1.1867420
  H       -0.3855780    -0.5294870     2.1482020
  H       -1.5277920    -1.8013410     1.6997400
  H       -3.8772320     0.6843320    -1.9011880
  H       -4.5228040     1.0497910    -0.2936460
  H       -3.0892320     1.9062640    -0.8879070
  H        1.9842510    -2.1936970    -0.7089060
  H        4.2276210    -1.0857940    -0.7310670
  H        2.2780980     2.5111560     0.6184940
  H        4.3773590     1.3311980    -0.0481150
units angstrom
no_reorient  #important for SAPT in psi4, default
symmetry c1  #important for SAPT in psi4, default
}

set PROPERTIES_ORIGIN ["COM"]
properties('MP2/aug-cc-pvtz', properties = ['dipole'])
--------------------------------------------------------------------------

    Molecular point group: c1
  Charge       = 0
  Multiplicity = 1
  Basis Set: AUG-CC-PVTZ
    Blend: AUG-CC-PVTZ
  Basis Set: (AUG-CC-PVTZ AUX)
    Blend: AUG-CC-PVTZ-JKFIT

    Orbital Energies [Eh]
    ---------------------

    Doubly Occupied:

       1A    -15.563178     2A    -11.282192     3A    -11.268745
       4A    -11.261133     5A    -11.246668     6A    -11.234305
       7A    -11.223513     8A    -11.213140     9A    -11.209328
      10A    -11.207550    11A    -11.204215    12A    -11.202448
      13A     -1.251005    14A     -1.126497    15A     -1.085567
      16A     -1.039540    17A     -0.986941    18A     -0.950170
      19A     -0.889825    20A     -0.871701    21A     -0.830191
      22A     -0.767657    23A     -0.754292    24A     -0.703973
      25A     -0.667683    26A     -0.648382    27A     -0.635772
      28A     -0.610811    29A     -0.600739    30A     -0.578107
      31A     -0.566316    32A     -0.551384    33A     -0.533012
      34A     -0.518425    35A     -0.497921    36A     -0.469349
      37A     -0.466060    38A     -0.460166    39A     -0.450680
      40A     -0.444160    41A     -0.438477    42A     -0.410624
      43A     -0.378877    44A     -0.326793

  @DF-RHF Final Energy:  -479.85397396592327

   => Energetics <=

    Nuclear Repulsion Energy =            683.4705640131548989
    One-Electron Energy =               -2005.3940516251557256
    Two-Electron Energy =                 842.0695136460775529
    Total Energy =                       -479.8539739659232737
  Basis Set: (AUG-CC-PVTZ AUX)
    Blend: AUG-CC-PVTZ-RI
    Molecular point group: c1

    Geometry (in Angstrom), charge = 0, multiplicity = 1:

       Center              X                  Y                   Z               Mass
    ------------   -----------------  -----------------  -----------------  -----------------
         N            0.959761951126     0.875802705966     0.321861882207    14.003074004430
         C           -2.776874048874    -0.131318294034    -0.269364117793    12.000000000000
         C           -0.500348048874    -1.022283294034    -0.012294117793    12.000000000000
         C           -1.451582048874    -0.318258294034    -1.015640117793    12.000000000000
         C           -2.299954048874     0.170664705966     1.151604882207    12.000000000000
         C           -1.182880048874    -0.851016294034     1.376848882207    12.000000000000
         C           -3.683508048874     0.929821705966    -0.876843117793    12.000000000000
         C            0.878747951126    -0.422397294034    -0.044186117793    12.000000000000
         C            2.006050951126    -1.157287294034    -0.427982117793    12.000000000000
         C            3.435658051126    -0.451404794034    -0.440674117793    12.000000000000
         C            2.170034951126     1.457654705966     0.310439882207    12.000000000000
         C            3.342990951126     0.798514705966    -0.061185117793    12.000000000000
         H           -3.311769048874    -1.093142294034    -0.254375117793     1.007825032230
         H           -0.416583048874    -2.088273294034    -0.258440117793     1.007825032230
         H           -1.045091048874     0.670349705966    -1.261429117793     1.007825032230
         H           -1.558721048874    -0.877136294034    -1.952576117793     1.007825032230
         H           -3.100002048874     0.106149705966     1.898378882207     1.007825032230
         H           -1.884057048874     1.185100705966     1.182393882207     1.007825032230
         H           -0.468858048874    -0.537196294034     2.143853882207     1.007825032230
         H           -1.611072048874    -1.809050294034     1.695391882207     1.007825032230
         H           -3.960512048874     0.676622705966    -1.905536117793     1.007825032230
         H           -4.606084048874     1.042081705966    -0.297994117793     1.007825032230
         H           -3.172512048874     1.898554705966    -0.892255117793     1.007825032230
         H            1.900970951126    -2.201406294034    -0.713254117793     1.007825032230
         H            4.144340951126    -1.093503294034    -0.735415117793     1.007825032230
         H            2.194817951126     2.503446705966     0.614145882207     1.007825032230
         H            4.294078951126     1.323488705966    -0.052463117793     1.007825032230

  Basis Set: AUG-CC-PVTZ
    Blend: AUG-CC-PVTZ
  Basis Set: (AUG-CC-PVTZ AUX)
    Blend: AUG-CC-PVTZ-JKFIT
	 Reference Energy          =    -479.8539739659232737 [Eh]
	 Singles Energy            =      -0.0000000000000000 [Eh]
	 Same-Spin Energy          =      -0.5327854320792895 [Eh]
	 Opposite-Spin Energy      =      -1.7487019629750664 [Eh]
	 Correlation Energy        =      -2.2814873950543557 [Eh]
	 Total Energy              =    -482.1354613609776152 [Eh]

	 ================> DF-SCS-MP2 Energies <==================
	-----------------------------------------------------------
	 SCS Same-Spin Scale       =       0.3333333333333333 [-]
	 SCS Opposite-Spin Scale   =       1.2000000000000000 [-]
	 SCS Same-Spin Energy      =      -0.1775951440264298 [Eh]
	 SCS Opposite-Spin Energy  =      -2.0984423555700795 [Eh]
	 SCS Correlation Energy    =      -2.2760374995965091 [Eh]
	 SCS Total Energy          =    -482.1300114655197717 [Eh]
	-----------------------------------------------------------

  Dipole Moment: [D]
     X:     1.4385      Y:    -1.0314      Z:    -0.4960     Total:     1.8382

*** Psi4 exiting successfully. Buy a developer a beer!
