                               Psi4 1.4a3.dev225

  ==> Input File <==

--------------------------------------------------------------------------
#psi4
#
memory 32 gb

molecule  {
0 1
  N        1.0430420     0.8835120     0.3262100
  C       -2.6935940    -0.1236090    -0.2650160
  C       -0.4170680    -1.0145740    -0.0079460
  C       -1.3683020    -0.3105490    -1.0112920
  C       -2.2166740     0.1783740     1.1559530
  C       -1.0996000    -0.8433070     1.3811970
  C       -3.4811050     0.7981073    -0.7926781
  C        0.9620280    -0.4146880    -0.0398380
  C        2.0893310    -1.1495780    -0.4236340
  C        3.3396130    -0.5322390    -0.4347340
  C        2.2533150     1.4653640     0.3147880
  C        3.4262710     0.8062240    -0.0568370
  H       -3.2284890    -1.0854330    -0.2500270
  H       -0.3333030    -2.0805640    -0.2540920
  H       -0.9618110     0.6780590    -1.2570810
  H       -1.4754410    -0.8694270    -1.9482280
  H       -3.0167220     0.1138590     1.9027270
  H       -1.8007770     1.1928100     1.1867420
  H       -0.3855780    -0.5294870     2.1482020
  H       -1.5277920    -1.8013410     1.6997400
  H       -3.8772320     0.6843320    -1.9011880
  H       -4.5228040     1.0497910    -0.2936460
  H       -3.0892320     1.9062640    -0.8879070
  H        1.9842510    -2.1936970    -0.7089060
  H        4.2276210    -1.0857940    -0.7310670
  H        2.2780980     2.5111560     0.6184940
  H        4.3773590     1.3311980    -0.0481150
units angstrom
no_reorient  #important for SAPT in psi4, default
symmetry c1  #important for SAPT in psi4, default
}

set PROPERTIES_ORIGIN ["COM"]
properties('MP2/aug-cc-pvtz', properties = ['dipole'])
--------------------------------------------------------------------------

    Molecular point group: c1
  Charge       = 0
  Multiplicity = 1
  Basis Set: AUG-CC-PVTZ
    Blend: AUG-CC-PVTZ
  Basis Set: (AUG-CC-PVTZ AUX)
    Blend: AUG-CC-PVTZ-JKFIT

    Orbital Energies [Eh]
    ---------------------

    Doubly Occupied:

       1A    -15.558600     2A    -11.275959     3A    -11.274842
       4A    -11.258439     5A    -11.236396     6A    -11.235696
       7A    -11.227104     8A    -11.219398     9A    -11.212379
      10A    -11.211948    11A    -11.205983    12A    -11.204127
      13A     -1.252492    14A     -1.142860    15A     -1.082828
      16A     -1.060255    17A     -1.006903    18A     -0.957368
      19A     -0.886548    20A     -0.855315    21A     -0.835731
      22A     -0.767067    23A     -0.759016    24A     -0.698310
      25A     -0.669658    26A     -0.647804    27A     -0.644355
      28A     -0.620809    29A     -0.589792    30A     -0.579642
      31A     -0.576249    32A     -0.543038    33A     -0.540632
      34A     -0.524145    35A     -0.503153    36A     -0.486794
      37A     -0.474737    38A     -0.470071    39A     -0.454178
      40A     -0.426880    41A     -0.418295    42A     -0.407577
      43A     -0.377513    44A     -0.332745

  @DF-RHF Final Energy:  -479.84654777555932

   => Energetics <=

    Nuclear Repulsion Energy =            689.6587379144476699
    One-Electron Energy =               -2017.5833092400421265
    Two-Electron Energy =                 848.0780235500352546
    Total Energy =                       -479.8465477755593156
  Basis Set: (AUG-CC-PVTZ AUX)
    Blend: AUG-CC-PVTZ-RI
    Molecular point group: c1

    Geometry (in Angstrom), charge = 0, multiplicity = 1:

       Center              X                  Y                   Z               Mass
    ------------   -----------------  -----------------  -----------------  -----------------
         N            0.964245709720     0.892781347775     0.315798674196    14.003074004430
         C           -2.772390290280    -0.114339652225    -0.275427325804    12.000000000000
         C           -0.495864290280    -1.005304652225    -0.018357325804    12.000000000000
         C           -1.447098290280    -0.301279652225    -1.021703325804    12.000000000000
         C           -2.295470290280     0.187643347775     1.145541674196    12.000000000000
         C           -1.178396290280    -0.834037652225     1.370785674196    12.000000000000
         C           -3.559901290280     0.807376647775    -0.803089425804    12.000000000000
         C            0.883231709720    -0.405418652225    -0.050249325804    12.000000000000
         C            2.010534709720    -1.140308652225    -0.434045325804    12.000000000000
         C            3.260816709720    -0.522969652225    -0.445145325804    12.000000000000
         C            2.174518709720     1.474633347775     0.304376674196    12.000000000000
         C            3.347474709720     0.815493347775    -0.067248325804    12.000000000000
         H           -3.307285290280    -1.076163652225    -0.260438325804     1.007825032230
         H           -0.412099290280    -2.071294652225    -0.264503325804     1.007825032230
         H           -1.040607290280     0.687328347775    -1.267492325804     1.007825032230
         H           -1.554237290280    -0.860157652225    -1.958639325804     1.007825032230
         H           -3.095518290280     0.123128347775     1.892315674196     1.007825032230
         H           -1.879573290280     1.202079347775     1.176330674196     1.007825032230
         H           -0.464374290280    -0.520217652225     2.137790674196     1.007825032230
         H           -1.606588290280    -1.792071652225     1.689328674196     1.007825032230
         H           -3.956028290280     0.693601347775    -1.911599325804     1.007825032230
         H           -4.601600290280     1.059060347775    -0.304057325804     1.007825032230
         H           -3.168028290280     1.915533347775    -0.898318325804     1.007825032230
         H            1.905454709720    -2.184427652225    -0.719317325804     1.007825032230
         H            4.148824709720    -1.076524652225    -0.741478325804     1.007825032230
         H            2.199301709720     2.520425347775     0.608082674196     1.007825032230
         H            4.298562709720     1.340467347775    -0.058526325804     1.007825032230

  Basis Set: AUG-CC-PVTZ
    Blend: AUG-CC-PVTZ
  Basis Set: (AUG-CC-PVTZ AUX)
    Blend: AUG-CC-PVTZ-JKFIT
	 Reference Energy          =    -479.8465477755593156 [Eh]
	 Singles Energy            =      -0.0000000000000000 [Eh]
	 Same-Spin Energy          =      -0.5357941565247928 [Eh]
	 Opposite-Spin Energy      =      -1.7495681972862926 [Eh]
	 Correlation Energy        =      -2.2853623538110854 [Eh]
	 Total Energy              =    -482.1319101293703966 [Eh]

	 ================> DF-SCS-MP2 Energies <==================
	-----------------------------------------------------------
	 SCS Same-Spin Scale       =       0.3333333333333333 [-]
	 SCS Opposite-Spin Scale   =       1.2000000000000000 [-]
	 SCS Same-Spin Energy      =      -0.1785980521749309 [Eh]
	 SCS Opposite-Spin Energy  =      -2.0994818367435513 [Eh]
	 SCS Correlation Energy    =      -2.2780798889184823 [Eh]
	 SCS Total Energy          =    -482.1246276644777708 [Eh]
	-----------------------------------------------------------

  Dipole Moment: [D]
     X:     1.4303      Y:    -1.1373      Z:    -0.4470     Total:     1.8812

*** Psi4 exiting successfully. Buy a developer a beer!
