                               Psi4 1.4a3.dev225

  ==> Input File <==

--------------------------------------------------------------------------
#psi4
#
memory 32 gb

molecule  {
0 1
  N        1.0430420     0.8835120     0.3262100
  C       -2.6935940    -0.1236090    -0.2650160
  C       -0.4170680    -1.0145740    -0.0079460
  C       -1.3510051    -0.3129888    -1.0210319
  C       -2.2166740     0.1783740     1.1559530
  C       -1.0996000    -0.8433070     1.3811970
  C       -3.6002280     0.9375310    -0.8724950
  C        0.9620280    -0.4146880    -0.0398380
  C        2.0893310    -1.1495780    -0.4236340
  C        3.3396130    -0.5322390    -0.4347340
  C        2.2533150     1.4653640     0.3147880
  C        3.4262710     0.8062240    -0.0568370
  H       -3.2284890    -1.0854330    -0.2500270
  H       -0.3333030    -2.0805640    -0.2540920
  H       -0.9618110     0.6780590    -1.2570810
  H       -1.4754410    -0.8694270    -1.9482280
  H       -3.0167220     0.1138590     1.9027270
  H       -1.8007770     1.1928100     1.1867420
  H       -0.3855780    -0.5294870     2.1482020
  H       -1.5277920    -1.8013410     1.6997400
  H       -3.8772320     0.6843320    -1.9011880
  H       -4.5228040     1.0497910    -0.2936460
  H       -3.0892320     1.9062640    -0.8879070
  H        1.9842510    -2.1936970    -0.7089060
  H        4.2276210    -1.0857940    -0.7310670
  H        2.2780980     2.5111560     0.6184940
  H        4.3773590     1.3311980    -0.0481150
units angstrom
no_reorient  #important for SAPT in psi4, default
symmetry c1  #important for SAPT in psi4, default
}

set PROPERTIES_ORIGIN ["COM"]
properties('MP2/aug-cc-pvtz', properties = ['dipole'])
--------------------------------------------------------------------------

    Molecular point group: c1
  Charge       = 0
  Multiplicity = 1
  Basis Set: AUG-CC-PVTZ
    Blend: AUG-CC-PVTZ
  Basis Set: (AUG-CC-PVTZ AUX)
    Blend: AUG-CC-PVTZ-JKFIT

    Orbital Energies [Eh]
    ---------------------

    Doubly Occupied:

       1A    -15.557899     2A    -11.275193     3A    -11.274315
       4A    -11.257870     5A    -11.235752     6A    -11.234942
       7A    -11.226065     8A    -11.215458     9A    -11.211520
      10A    -11.209177    11A    -11.205121    12A    -11.203641
      13A     -1.251832    14A     -1.126215    15A     -1.081738
      16A     -1.045999    17A     -0.990738    18A     -0.955621
      19A     -0.893018    20A     -0.855128    21A     -0.836690
      22A     -0.764132    23A     -0.755950    24A     -0.696763
      25A     -0.668266    26A     -0.640511    27A     -0.639551
      28A     -0.607591    29A     -0.584735    30A     -0.578196
      31A     -0.573846    32A     -0.551607    33A     -0.538188
      34A     -0.527724    35A     -0.511895    36A     -0.474957
      37A     -0.469574    38A     -0.461294    39A     -0.452909
      40A     -0.445735    41A     -0.437419    42A     -0.409732
      43A     -0.376945    44A     -0.332051

  @DF-RHF Final Energy:  -479.89639630221825

   => Energetics <=

    Nuclear Repulsion Energy =            685.7471673716273699
    One-Electron Energy =               -2010.0001226738377227
    Two-Electron Energy =                 844.3565589999922167
    Total Energy =                       -479.8963963022182497
  Basis Set: (AUG-CC-PVTZ AUX)
    Blend: AUG-CC-PVTZ-RI
    Molecular point group: c1

    Geometry (in Angstrom), charge = 0, multiplicity = 1:

       Center              X                  Y                   Z               Mass
    ------------   -----------------  -----------------  -----------------  -----------------
         N            0.971829558970     0.882579000368     0.322468725102    14.003074004430
         C           -2.764806441030    -0.124541999632    -0.268757274898    12.000000000000
         C           -0.488280441030    -1.015506999632    -0.011687274898    12.000000000000
         C           -1.422217541030    -0.313921799632    -1.024773174898    12.000000000000
         C           -2.287886441030     0.177441000368     1.152211725102    12.000000000000
         C           -1.170812441030    -0.844239999632     1.377455725102    12.000000000000
         C           -3.671440441030     0.936598000368    -0.876236274898    12.000000000000
         C            0.890815558970    -0.415620999632    -0.043579274898    12.000000000000
         C            2.018118558970    -1.150510999632    -0.427375274898    12.000000000000
         C            3.268400558970    -0.533171999632    -0.438475274898    12.000000000000
         C            2.182102558970     1.464431000368     0.311046725102    12.000000000000
         C            3.355058558970     0.805291000368    -0.060578274898    12.000000000000
         H           -3.299701441030    -1.086365999632    -0.253768274898     1.007825032230
         H           -0.404515441030    -2.081496999632    -0.257833274898     1.007825032230
         H           -1.033023441030     0.677126000368    -1.260822274898     1.007825032230
         H           -1.546653441030    -0.870359999632    -1.951969274898     1.007825032230
         H           -3.087934441030     0.112926000368     1.898985725102     1.007825032230
         H           -1.871989441030     1.191877000368     1.183000725102     1.007825032230
         H           -0.456790441030    -0.530419999632     2.144460725102     1.007825032230
         H           -1.599004441030    -1.802273999632     1.695998725102     1.007825032230
         H           -3.948444441030     0.683399000368    -1.904929274898     1.007825032230
         H           -4.594016441030     1.048858000368    -0.297387274898     1.007825032230
         H           -3.160444441030     1.905331000368    -0.891648274898     1.007825032230
         H            1.913038558970    -2.194629999632    -0.712647274898     1.007825032230
         H            4.156408558970    -1.086726999632    -0.734808274898     1.007825032230
         H            2.206885558970     2.510223000368     0.614752725102     1.007825032230
         H            4.306146558970     1.330265000368    -0.051856274898     1.007825032230

  Basis Set: AUG-CC-PVTZ
    Blend: AUG-CC-PVTZ
  Basis Set: (AUG-CC-PVTZ AUX)
    Blend: AUG-CC-PVTZ-JKFIT
	 Reference Energy          =    -479.8963963022182497 [Eh]
	 Singles Energy            =      -0.0000000000000000 [Eh]
	 Same-Spin Energy          =      -0.5327026059543087 [Eh]
	 Opposite-Spin Energy      =      -1.7455039250423450 [Eh]
	 Correlation Energy        =      -2.2782065309966537 [Eh]
	 Total Energy              =    -482.1746028332149194 [Eh]

	 ================> DF-SCS-MP2 Energies <==================
	-----------------------------------------------------------
	 SCS Same-Spin Scale       =       0.3333333333333333 [-]
	 SCS Opposite-Spin Scale   =       1.2000000000000000 [-]
	 SCS Same-Spin Energy      =      -0.1775675353181029 [Eh]
	 SCS Opposite-Spin Energy  =      -2.0946047100508141 [Eh]
	 SCS Correlation Energy    =      -2.2721722453689170 [Eh]
	 SCS Total Energy          =    -482.1685685475871423 [Eh]
	-----------------------------------------------------------

  Dipole Moment: [D]
     X:     1.3235      Y:    -1.0752      Z:    -0.4980     Total:     1.7765

*** Psi4 exiting successfully. Buy a developer a beer!
