                               Psi4 1.4a3.dev225

  ==> Input File <==

--------------------------------------------------------------------------
#psi4
#
memory 32 gb

molecule  {
0 1
  N        1.0430420     0.8835120     0.3262100
  C       -2.6935940    -0.1236090    -0.2650160
  C       -0.4170680    -1.0145740    -0.0079460
  C       -1.4115441    -0.3044494    -0.9869422
  C       -2.2166740     0.1783740     1.1559530
  C       -1.0996000    -0.8433070     1.3811970
  C       -3.6002280     0.9375310    -0.8724950
  C        0.9620280    -0.4146880    -0.0398380
  C        2.0893310    -1.1495780    -0.4236340
  C        3.3396130    -0.5322390    -0.4347340
  C        2.2533150     1.4653640     0.3147880
  C        3.4262710     0.8062240    -0.0568370
  H       -3.2284890    -1.0854330    -0.2500270
  H       -0.3333030    -2.0805640    -0.2540920
  H       -0.9618110     0.6780590    -1.2570810
  H       -1.4754410    -0.8694270    -1.9482280
  H       -3.0167220     0.1138590     1.9027270
  H       -1.8007770     1.1928100     1.1867420
  H       -0.3855780    -0.5294870     2.1482020
  H       -1.5277920    -1.8013410     1.6997400
  H       -3.8772320     0.6843320    -1.9011880
  H       -4.5228040     1.0497910    -0.2936460
  H       -3.0892320     1.9062640    -0.8879070
  H        1.9842510    -2.1936970    -0.7089060
  H        4.2276210    -1.0857940    -0.7310670
  H        2.2780980     2.5111560     0.6184940
  H        4.3773590     1.3311980    -0.0481150
units angstrom
no_reorient  #important for SAPT in psi4, default
symmetry c1  #important for SAPT in psi4, default
}

set PROPERTIES_ORIGIN ["COM"]
properties('MP2/aug-cc-pvtz', properties = ['dipole'])
--------------------------------------------------------------------------

    Molecular point group: c1
  Charge       = 0
  Multiplicity = 1
  Basis Set: AUG-CC-PVTZ
    Blend: AUG-CC-PVTZ
  Basis Set: (AUG-CC-PVTZ AUX)
    Blend: AUG-CC-PVTZ-JKFIT

    Orbital Energies [Eh]
    ---------------------

    Doubly Occupied:

       1A    -15.558276     2A    -11.275696     3A    -11.274455
       4A    -11.258126     5A    -11.236197     6A    -11.235522
       7A    -11.226468     8A    -11.212430     9A    -11.211321
      10A    -11.211133    11A    -11.205636    12A    -11.203999
      13A     -1.251978    14A     -1.131482    15A     -1.082160
      16A     -1.047798    17A     -0.992602    18A     -0.952663
      19A     -0.895954    20A     -0.855390    21A     -0.836853
      22A     -0.765667    23A     -0.754241    24A     -0.696894
      25A     -0.667713    26A     -0.641807    27A     -0.640956
      28A     -0.609034    29A     -0.585691    30A     -0.576384
      31A     -0.574445    32A     -0.552254    33A     -0.537860
      34A     -0.525548    35A     -0.511853    36A     -0.471606
      37A     -0.468285    38A     -0.461454    39A     -0.451202
      40A     -0.450516    41A     -0.439425    42A     -0.410395
      43A     -0.377062    44A     -0.332171

  @DF-RHF Final Energy:  -479.89373487798161

   => Energetics <=

    Nuclear Repulsion Energy =            686.1670266484092053
    One-Electron Energy =               -2010.8043163338634258
    Two-Electron Energy =                 844.7435548074724920
    Total Energy =                       -479.8937348779816148
  Basis Set: (AUG-CC-PVTZ AUX)
    Blend: AUG-CC-PVTZ-RI
    Molecular point group: c1

    Geometry (in Angstrom), charge = 0, multiplicity = 1:

       Center              X                  Y                   Z               Mass
    ------------   -----------------  -----------------  -----------------  -----------------
         N            0.976338409350     0.881942999164     0.319929777369    14.003074004430
         C           -2.760297590650    -0.125178000836    -0.271296222631    12.000000000000
         C           -0.483771590650    -1.016143000836    -0.014226222631    12.000000000000
         C           -1.478247690650    -0.306018400836    -0.993222422631    12.000000000000
         C           -2.283377590650     0.176804999164     1.149672777369    12.000000000000
         C           -1.166303590650    -0.844876000836     1.374916777369    12.000000000000
         C           -3.666931590650     0.935961999164    -0.878775222631    12.000000000000
         C            0.895324409350    -0.416257000836    -0.046118222631    12.000000000000
         C            2.022627409350    -1.151147000836    -0.429914222631    12.000000000000
         C            3.272909409350    -0.533808000836    -0.441014222631    12.000000000000
         C            2.186611409350     1.463794999164     0.308507777369    12.000000000000
         C            3.359567409350     0.804654999164    -0.063117222631    12.000000000000
         H           -3.295192590650    -1.087002000836    -0.256307222631     1.007825032230
         H           -0.400006590650    -2.082133000836    -0.260372222631     1.007825032230
         H           -1.028514590650     0.676489999164    -1.263361222631     1.007825032230
         H           -1.542144590650    -0.870996000836    -1.954508222631     1.007825032230
         H           -3.083425590650     0.112289999164     1.896446777369     1.007825032230
         H           -1.867480590650     1.191240999164     1.180461777369     1.007825032230
         H           -0.452281590650    -0.531056000836     2.141921777369     1.007825032230
         H           -1.594495590650    -1.802910000836     1.693459777369     1.007825032230
         H           -3.943935590650     0.682762999164    -1.907468222631     1.007825032230
         H           -4.589507590650     1.048221999164    -0.299926222631     1.007825032230
         H           -3.155935590650     1.904694999164    -0.894187222631     1.007825032230
         H            1.917547409350    -2.195266000836    -0.715186222631     1.007825032230
         H            4.160917409350    -1.087363000836    -0.737347222631     1.007825032230
         H            2.211394409350     2.509586999164     0.612213777369     1.007825032230
         H            4.310655409350     1.329628999164    -0.054395222631     1.007825032230

  Basis Set: AUG-CC-PVTZ
    Blend: AUG-CC-PVTZ
  Basis Set: (AUG-CC-PVTZ AUX)
    Blend: AUG-CC-PVTZ-JKFIT
	 Reference Energy          =    -479.8937348779816148 [Eh]
	 Singles Energy            =      -0.0000000000000000 [Eh]
	 Same-Spin Energy          =      -0.5331705821847776 [Eh]
	 Opposite-Spin Energy      =      -1.7459329397513141 [Eh]
	 Correlation Energy        =      -2.2791035219360918 [Eh]
	 Total Energy              =    -482.1728383999176799 [Eh]

	 ================> DF-SCS-MP2 Energies <==================
	-----------------------------------------------------------
	 SCS Same-Spin Scale       =       0.3333333333333333 [-]
	 SCS Opposite-Spin Scale   =       1.2000000000000000 [-]
	 SCS Same-Spin Energy      =      -0.1777235273949259 [Eh]
	 SCS Opposite-Spin Energy  =      -2.0951195277015771 [Eh]
	 SCS Correlation Energy    =      -2.2728430550965029 [Eh]
	 SCS Total Energy          =    -482.1665779330781447 [Eh]
	-----------------------------------------------------------

  Dipole Moment: [D]
     X:     1.3431      Y:    -1.0581      Z:    -0.4819     Total:     1.7764

*** Psi4 exiting successfully. Buy a developer a beer!
