                               Psi4 1.4a3.dev225

  ==> Input File <==

--------------------------------------------------------------------------
#psi4
#
memory 32 gb

molecule  {
0 1
  N        1.0430420     0.8835120     0.3262100
  C       -2.6935940    -0.1236090    -0.2650160
  C       -0.4170680    -1.0145740    -0.0079460
  C       -1.3683020    -0.3105490    -1.0112920
  C       -2.2166740     0.1783740     1.1559530
  C       -1.0996000    -0.8433070     1.3811970
  C       -3.6002280     0.9375310    -0.8724950
  C        0.9620280    -0.4146880    -0.0398380
  C        2.0893310    -1.1495780    -0.4236340
  C        3.3396130    -0.5322390    -0.4347340
  C        2.2533150     1.4653640     0.3147880
  C        3.4262710     0.8062240    -0.0568370
  H       -3.2284890    -1.0854330    -0.2500270
  H       -0.3333030    -2.0805640    -0.2540920
  H       -0.9618110     0.6780590    -1.2570810
  H       -1.4754410    -0.8694270    -1.9482280
  H       -3.0167220     0.1138590     1.9027270
  H       -1.8007770     1.1928100     1.1867420
  H       -0.3855780    -0.5294870     2.1482020
  H       -1.5277920    -1.8013410     1.6997400
  H       -3.8772320     0.6843320    -1.9011880
  H       -4.5228040     1.0497910    -0.2936460
  H       -3.0892320     1.9062640    -0.8879070
  H        1.9842510    -2.1936970    -0.7089060
  H        4.2276210    -1.0857940    -0.7310670
  H        2.2780980     2.5111560     0.6184940
  H        4.4211319     1.3553594    -0.0477136
units angstrom
no_reorient  #important for SAPT in psi4, default
symmetry c1  #important for SAPT in psi4, default
}

set PROPERTIES_ORIGIN ["COM"]
properties('MP2/aug-cc-pvtz', properties = ['dipole'])
--------------------------------------------------------------------------

    Molecular point group: c1
  Charge       = 0
  Multiplicity = 1
  Basis Set: AUG-CC-PVTZ
    Blend: AUG-CC-PVTZ
  Basis Set: (AUG-CC-PVTZ AUX)
    Blend: AUG-CC-PVTZ-JKFIT

    Orbital Energies [Eh]
    ---------------------

    Doubly Occupied:

       1A    -15.558412     2A    -11.275555     3A    -11.274831
       4A    -11.258449     5A    -11.241582     6A    -11.235475
       7A    -11.226289     8A    -11.214693     9A    -11.211510
      10A    -11.209824    11A    -11.205315    12A    -11.203809
      13A     -1.252200    14A     -1.127635    15A     -1.081575
      16A     -1.046202    17A     -0.990873    18A     -0.954556
      19A     -0.893457    20A     -0.855422    21A     -0.835222
      22A     -0.764517    23A     -0.755720    24A     -0.694533
      25A     -0.666373    26A     -0.640283    27A     -0.637569
      28A     -0.607771    29A     -0.585157    30A     -0.577319
      31A     -0.572484    32A     -0.551718    33A     -0.537628
      34A     -0.525667    35A     -0.511270    36A     -0.473270
      37A     -0.469121    38A     -0.461154    39A     -0.452826
      40A     -0.447124    41A     -0.439653    42A     -0.410105
      43A     -0.377326    44A     -0.332370

  @DF-RHF Final Energy:  -479.89413920683563

   => Energetics <=

    Nuclear Repulsion Energy =            685.6079740927320927
    One-Electron Energy =               -2009.7165378865950061
    Two-Electron Energy =                 844.2144245870273380
    Total Energy =                       -479.8941392068355754
  Basis Set: (AUG-CC-PVTZ AUX)
    Blend: AUG-CC-PVTZ-RI
    Molecular point group: c1

    Geometry (in Angstrom), charge = 0, multiplicity = 1:

       Center              X                  Y                   Z               Mass
    ------------   -----------------  -----------------  -----------------  -----------------
         N            0.972844001122     0.882246155817     0.321740801729    14.003074004430
         C           -2.763791998878    -0.124874844183    -0.269485198271    12.000000000000
         C           -0.487265998878    -1.015839844183    -0.012415198271    12.000000000000
         C           -1.438499998878    -0.311814844183    -1.015761198271    12.000000000000
         C           -2.286871998878     0.177108155817     1.151483801729    12.000000000000
         C           -1.169797998878    -0.844572844183     1.376727801729    12.000000000000
         C           -3.670425998878     0.936265155817    -0.876964198271    12.000000000000
         C            0.891830001122    -0.415953844183    -0.044307198271    12.000000000000
         C            2.019133001122    -1.150843844183    -0.428103198271    12.000000000000
         C            3.269415001122    -0.533504844183    -0.439203198271    12.000000000000
         C            2.183117001122     1.464098155817     0.310318801729    12.000000000000
         C            3.356073001122     0.804958155817    -0.061306198271    12.000000000000
         H           -3.298686998878    -1.086698844183    -0.254496198271     1.007825032230
         H           -0.403500998878    -2.081829844183    -0.258561198271     1.007825032230
         H           -1.032008998878     0.676793155817    -1.261550198271     1.007825032230
         H           -1.545638998878    -0.870692844183    -1.952697198271     1.007825032230
         H           -3.086919998878     0.112593155817     1.898257801729     1.007825032230
         H           -1.870974998878     1.191544155817     1.182272801729     1.007825032230
         H           -0.455775998878    -0.530752844183     2.143732801729     1.007825032230
         H           -1.597989998878    -1.802606844183     1.695270801729     1.007825032230
         H           -3.947429998878     0.683066155817    -1.905657198271     1.007825032230
         H           -4.593001998878     1.048525155817    -0.298115198271     1.007825032230
         H           -3.159429998878     1.904998155817    -0.892376198271     1.007825032230
         H            1.914053001122    -2.194962844183    -0.713375198271     1.007825032230
         H            4.157423001122    -1.087059844183    -0.735536198271     1.007825032230
         H            2.207900001122     2.509890155817     0.614024801729     1.007825032230
         H            4.350933901122     1.354093555817    -0.052182798271     1.007825032230

  Basis Set: AUG-CC-PVTZ
    Blend: AUG-CC-PVTZ
  Basis Set: (AUG-CC-PVTZ AUX)
    Blend: AUG-CC-PVTZ-JKFIT
	 Reference Energy          =    -479.8941392068356322 [Eh]
	 Singles Energy            =      -0.0000000000000000 [Eh]
	 Same-Spin Energy          =      -0.5328875576225225 [Eh]
	 Opposite-Spin Energy      =      -1.7459670550015816 [Eh]
	 Correlation Energy        =      -2.2788546126241043 [Eh]
	 Total Energy              =    -482.1729938194597480 [Eh]

	 ================> DF-SCS-MP2 Energies <==================
	-----------------------------------------------------------
	 SCS Same-Spin Scale       =       0.3333333333333333 [-]
	 SCS Opposite-Spin Scale   =       1.2000000000000000 [-]
	 SCS Same-Spin Energy      =      -0.1776291858741741 [Eh]
	 SCS Opposite-Spin Energy  =      -2.0951604660018979 [Eh]
	 SCS Correlation Energy    =      -2.2727896518760722 [Eh]
	 SCS Total Energy          =    -482.1669288587116853 [Eh]
	-----------------------------------------------------------

  Dipole Moment: [D]
     X:     1.3122      Y:    -1.0808      Z:    -0.4954     Total:     1.7707

*** Psi4 exiting successfully. Buy a developer a beer!
