                               Psi4 1.4a3.dev225

  ==> Input File <==

--------------------------------------------------------------------------
#psi4
#
memory 32 gb

molecule  {
0 1
  N        1.0430420     0.8835120     0.3262100
  C       -2.6935940    -0.1236090    -0.2650160
  C       -0.4170680    -1.0145740    -0.0079460
  C       -1.3683020    -0.3105490    -1.0112920
  C       -2.2166740     0.1783740     1.1559530
  C       -1.0996000    -0.8433070     1.3811970
  C       -3.6002280     0.9375310    -0.8724950
  C        0.9620280    -0.4146880    -0.0398380
  C        2.0893310    -1.1495780    -0.4236340
  C        3.3396130    -0.5322390    -0.4347340
  C        2.2533150     1.4653640     0.3147880
  C        3.4262710     0.8062240    -0.0568370
  H       -3.2284890    -1.0854330    -0.2500270
  H       -0.3333030    -2.0805640    -0.2540920
  H       -0.9618110     0.6780590    -1.2570810
  H       -1.4754410    -0.8694270    -1.9482280
  H       -3.0167220     0.1138590     1.9027270
  H       -1.8007770     1.1928100     1.1867420
  H       -0.3855780    -0.5294870     2.1482020
  H       -1.5277920    -1.8013410     1.6997400
  H       -3.8772320     0.6843320    -1.9011880
  H       -4.5228040     1.0497910    -0.2936460
  H       -3.0892320     1.9062640    -0.8879070
  H        1.9842510    -2.1936970    -0.7089060
  H        4.2276210    -1.0857940    -0.7310670
  H        2.2780980     2.5111560     0.6184940
  H        4.3948682     1.3408626    -0.0479544
units angstrom
no_reorient  #important for SAPT in psi4, default
symmetry c1  #important for SAPT in psi4, default
}

set PROPERTIES_ORIGIN ["COM"]
properties('MP2/aug-cc-pvtz', properties = ['dipole'])
--------------------------------------------------------------------------

    Molecular point group: c1
  Charge       = 0
  Multiplicity = 1
  Basis Set: AUG-CC-PVTZ
    Blend: AUG-CC-PVTZ
  Basis Set: (AUG-CC-PVTZ AUX)
    Blend: AUG-CC-PVTZ-JKFIT

    Orbital Energies [Eh]
    ---------------------

    Doubly Occupied:

       1A    -15.558166     2A    -11.275415     3A    -11.274538
       4A    -11.258137     5A    -11.238188     6A    -11.235251
       7A    -11.226195     8A    -11.214634     9A    -11.211438
      10A    -11.209752    11A    -11.205270    12A    -11.203747
      13A     -1.251997    14A     -1.127576    15A     -1.081721
      16A     -1.046352    17A     -0.991066    18A     -0.954685
      19A     -0.893636    20A     -0.855283    21A     -0.836090
      22A     -0.764442    23A     -0.755654    24A     -0.695783
      25A     -0.667366    26A     -0.640168    27A     -0.639440
      28A     -0.607901    29A     -0.585044    30A     -0.577395
      31A     -0.573473    32A     -0.551755    33A     -0.537884
      34A     -0.526558    35A     -0.511644    36A     -0.473212
      37A     -0.469018    38A     -0.461082    39A     -0.452753
      40A     -0.447061    41A     -0.439589    42A     -0.410045
      43A     -0.377119    44A     -0.332214

  @DF-RHF Final Energy:  -479.89596459216193

   => Energetics <=

    Nuclear Repulsion Energy =            685.7597674205674139
    One-Electron Energy =               -2010.0199912186601523
    Two-Electron Energy =                 844.3642592059308072
    Total Energy =                       -479.8959645921619313
  Basis Set: (AUG-CC-PVTZ AUX)
    Blend: AUG-CC-PVTZ-RI
    Molecular point group: c1

    Geometry (in Angstrom), charge = 0, multiplicity = 1:

       Center              X                  Y                   Z               Mass
    ------------   -----------------  -----------------  -----------------  -----------------
         N            0.973008283275     0.882336834796     0.321742307958    14.003074004430
         C           -2.763627716725    -0.124784165204    -0.269483692042    12.000000000000
         C           -0.487101716725    -1.015749165204    -0.012413692042    12.000000000000
         C           -1.438335716725    -0.311724165204    -1.015759692042    12.000000000000
         C           -2.286707716725     0.177198834796     1.151485307958    12.000000000000
         C           -1.169633716725    -0.844482165204     1.376729307958    12.000000000000
         C           -3.670261716725     0.936355834796    -0.876962692042    12.000000000000
         C            0.891994283275    -0.415863165204    -0.044305692042    12.000000000000
         C            2.019297283275    -1.150753165204    -0.428101692042    12.000000000000
         C            3.269579283275    -0.533414165204    -0.439201692042    12.000000000000
         C            2.183281283275     1.464188834796     0.310320307958    12.000000000000
         C            3.356237283275     0.805048834796    -0.061304692042    12.000000000000
         H           -3.298522716725    -1.086608165204    -0.254494692042     1.007825032230
         H           -0.403336716725    -2.081739165204    -0.258559692042     1.007825032230
         H           -1.031844716725     0.676883834796    -1.261548692042     1.007825032230
         H           -1.545474716725    -0.870602165204    -1.952695692042     1.007825032230
         H           -3.086755716725     0.112683834796     1.898259307958     1.007825032230
         H           -1.870810716725     1.191634834796     1.182274307958     1.007825032230
         H           -0.455611716725    -0.530662165204     2.143734307958     1.007825032230
         H           -1.597825716725    -1.802516165204     1.695272307958     1.007825032230
         H           -3.947265716725     0.683156834796    -1.905655692042     1.007825032230
         H           -4.592837716725     1.048615834796    -0.298113692042     1.007825032230
         H           -3.159265716725     1.905088834796    -0.892374692042     1.007825032230
         H            1.914217283275    -2.194872165204    -0.713373692042     1.007825032230
         H            4.157587283275    -1.086969165204    -0.735534692042     1.007825032230
         H            2.208064283275     2.509980834796     0.614026307958     1.007825032230
         H            4.324834483275     1.339687434796    -0.052422092042     1.007825032230

  Basis Set: AUG-CC-PVTZ
    Blend: AUG-CC-PVTZ
  Basis Set: (AUG-CC-PVTZ AUX)
    Blend: AUG-CC-PVTZ-JKFIT
	 Reference Energy          =    -479.8959645921619313 [Eh]
	 Singles Energy            =      -0.0000000000000000 [Eh]
	 Same-Spin Energy          =      -0.5328259874060091 [Eh]
	 Opposite-Spin Energy      =      -1.7457027831617205 [Eh]
	 Correlation Energy        =      -2.2785287705677293 [Eh]
	 Total Energy              =    -482.1744933627296632 [Eh]

	 ================> DF-SCS-MP2 Energies <==================
	-----------------------------------------------------------
	 SCS Same-Spin Scale       =       0.3333333333333333 [-]
	 SCS Opposite-Spin Scale   =       1.2000000000000000 [-]
	 SCS Same-Spin Energy      =      -0.1776086624686697 [Eh]
	 SCS Opposite-Spin Energy  =      -2.0948433397940645 [Eh]
	 SCS Correlation Energy    =      -2.2724520022627339 [Eh]
	 SCS Total Energy          =    -482.1684165944246843 [Eh]
	-----------------------------------------------------------

  Dipole Moment: [D]
     X:     1.3238      Y:    -1.0744      Z:    -0.4951     Total:     1.7754

*** Psi4 exiting successfully. Buy a developer a beer!
