                               Psi4 1.4a3.dev225

  ==> Input File <==

--------------------------------------------------------------------------
#psi4
#
memory 32 gb

molecule  {
0 1
  N        1.0430420     0.8835120     0.3262100
  C       -2.6935940    -0.1236090    -0.2650160
  C       -0.4170680    -1.0145740    -0.0079460
  C       -1.3683020    -0.3105490    -1.0112920
  C       -2.2166740     0.1783740     1.1559530
  C       -1.0996000    -0.8433070     1.3811970
  C       -3.6002280     0.9375310    -0.8724950
  C        0.9620280    -0.4146880    -0.0398380
  C        2.0893310    -1.1495780    -0.4236340
  C        3.3396130    -0.5322390    -0.4347340
  C        2.2533150     1.4653640     0.3147880
  C        3.4262710     0.8062240    -0.0568370
  H       -3.2284890    -1.0854330    -0.2500270
  H       -0.3333030    -2.0805640    -0.2540920
  H       -0.9618110     0.6780590    -1.2570810
  H       -1.4754410    -0.8694270    -1.9482280
  H       -3.0167220     0.1138590     1.9027270
  H       -1.8007770     1.1928100     1.1867420
  H       -0.3855780    -0.5294870     2.1482020
  H       -1.6058827    -1.9760607     1.7578337
  H       -3.8772320     0.6843320    -1.9011880
  H       -4.5228040     1.0497910    -0.2936460
  H       -3.0892320     1.9062640    -0.8879070
  H        1.9842510    -2.1936970    -0.7089060
  H        4.2276210    -1.0857940    -0.7310670
  H        2.2780980     2.5111560     0.6184940
  H        4.3773590     1.3311980    -0.0481150
units angstrom
no_reorient  #important for SAPT in psi4, default
symmetry c1  #important for SAPT in psi4, default
}

set PROPERTIES_ORIGIN ["COM"]
properties('MP2/aug-cc-pvtz', properties = ['dipole'])
--------------------------------------------------------------------------

    Molecular point group: c1
  Charge       = 0
  Multiplicity = 1
  Basis Set: AUG-CC-PVTZ
    Blend: AUG-CC-PVTZ
  Basis Set: (AUG-CC-PVTZ AUX)
    Blend: AUG-CC-PVTZ-JKFIT

    Orbital Energies [Eh]
    ---------------------

    Doubly Occupied:

       1A    -15.559531     2A    -11.276725     3A    -11.275474
       4A    -11.258985     5A    -11.237107     6A    -11.236376
       7A    -11.235276     8A    -11.228363     9A    -11.215270
      10A    -11.210805    11A    -11.206405    12A    -11.205878
      13A     -1.253280    14A     -1.127709    15A     -1.083021
      16A     -1.047748    17A     -0.989240    18A     -0.954194
      19A     -0.893565    20A     -0.856353    21A     -0.834116
      22A     -0.758286    23A     -0.756086    24A     -0.698039
      25A     -0.667097    26A     -0.642028    27A     -0.639790
      28A     -0.609332    29A     -0.582323    30A     -0.575824
      31A     -0.568606    32A     -0.550496    33A     -0.539300
      34A     -0.528287    35A     -0.509857    36A     -0.475029
      37A     -0.470298    38A     -0.462483    39A     -0.448102
      40A     -0.441289    41A     -0.435084    42A     -0.411215
      43A     -0.378027    44A     -0.333255

  @DF-RHF Final Energy:  -479.87692379436379

   => Energetics <=

    Nuclear Repulsion Energy =            684.8812371119317959
    One-Electron Energy =               -2008.1852187503070581
    Two-Electron Energy =                 843.4270578440114150
    Total Energy =                       -479.8769237943638473
  Basis Set: (AUG-CC-PVTZ AUX)
    Blend: AUG-CC-PVTZ-RI
    Molecular point group: c1

    Geometry (in Angstrom), charge = 0, multiplicity = 1:

       Center              X                  Y                   Z               Mass
    ------------   -----------------  -----------------  -----------------  -----------------
         N            0.973606270511     0.883490177613     0.321379930442    14.003074004430
         C           -2.763029729489    -0.123630822387    -0.269846069558    12.000000000000
         C           -0.486503729489    -1.014595822387    -0.012776069558    12.000000000000
         C           -1.437737729489    -0.310570822387    -1.016122069558    12.000000000000
         C           -2.286109729489     0.178352177613     1.151122930442    12.000000000000
         C           -1.169035729489    -0.843328822387     1.376366930442    12.000000000000
         C           -3.669663729489     0.937509177613    -0.877325069558    12.000000000000
         C            0.892592270511    -0.414709822387    -0.044668069558    12.000000000000
         C            2.019895270511    -1.149599822387    -0.428464069558    12.000000000000
         C            3.270177270511    -0.532260822387    -0.439564069558    12.000000000000
         C            2.183879270511     1.465342177613     0.309957930442    12.000000000000
         C            3.356835270511     0.806202177613    -0.061667069558    12.000000000000
         H           -3.297924729489    -1.085454822387    -0.254857069558     1.007825032230
         H           -0.402738729489    -2.080585822387    -0.258922069558     1.007825032230
         H           -1.031246729489     0.678037177613    -1.261911069558     1.007825032230
         H           -1.544876729489    -0.869448822387    -1.953058069558     1.007825032230
         H           -3.086157729489     0.113837177613     1.897896930442     1.007825032230
         H           -1.870212729489     1.192788177613     1.181911930442     1.007825032230
         H           -0.455013729489    -0.529508822387     2.143371930442     1.007825032230
         H           -1.675318429489    -1.976082522387     1.753003630442     1.007825032230
         H           -3.946667729489     0.684310177613    -1.906018069558     1.007825032230
         H           -4.592239729489     1.049769177613    -0.298476069558     1.007825032230
         H           -3.158667729489     1.906242177613    -0.892737069558     1.007825032230
         H            1.914815270511    -2.193718822387    -0.713736069558     1.007825032230
         H            4.158185270511    -1.085815822387    -0.735897069558     1.007825032230
         H            2.208662270511     2.511134177613     0.613663930442     1.007825032230
         H            4.307923270511     1.331176177613    -0.052945069558     1.007825032230

  Basis Set: AUG-CC-PVTZ
    Blend: AUG-CC-PVTZ
  Basis Set: (AUG-CC-PVTZ AUX)
    Blend: AUG-CC-PVTZ-JKFIT
	 Reference Energy          =    -479.8769237943637904 [Eh]
	 Singles Energy            =      -0.0000000000000000 [Eh]
	 Same-Spin Energy          =      -0.5328284251763875 [Eh]
	 Opposite-Spin Energy      =      -1.7472246873417676 [Eh]
	 Correlation Energy        =      -2.2800531125181553 [Eh]
	 Total Energy              =    -482.1569769068819369 [Eh]

	 ================> DF-SCS-MP2 Energies <==================
	-----------------------------------------------------------
	 SCS Same-Spin Scale       =       0.3333333333333333 [-]
	 SCS Opposite-Spin Scale   =       1.2000000000000000 [-]
	 SCS Same-Spin Energy      =      -0.1776094750587958 [Eh]
	 SCS Opposite-Spin Energy  =      -2.0966696248101209 [Eh]
	 SCS Correlation Energy    =      -2.2742790998689166 [Eh]
	 SCS Total Energy          =    -482.1512028942327106 [Eh]
	-----------------------------------------------------------

  Dipole Moment: [D]
     X:     1.4201      Y:    -0.9024      Z:    -0.5992     Total:     1.7861

*** Psi4 exiting successfully. Buy a developer a beer!
