                               Psi4 1.4a3.dev225

  ==> Input File <==

--------------------------------------------------------------------------
#psi4
#
memory 32 gb

molecule  {
0 1
  N        1.0430420     0.8835120     0.3262100
  C       -2.6935940    -0.1236090    -0.2650160
  C       -0.4266507    -0.9915355     0.0002190
  C       -1.3683020    -0.3105490    -1.0112920
  C       -2.2166740     0.1783740     1.1559530
  C       -1.0996000    -0.8433070     1.3811970
  C       -3.6002280     0.9375310    -0.8724950
  C        0.9620280    -0.4146880    -0.0398380
  C        2.0893310    -1.1495780    -0.4236340
  C        3.3396130    -0.5322390    -0.4347340
  C        2.2533150     1.4653640     0.3147880
  C        3.4262710     0.8062240    -0.0568370
  H       -3.2284890    -1.0854330    -0.2500270
  H       -0.3333030    -2.0805640    -0.2540920
  H       -0.9618110     0.6780590    -1.2570810
  H       -1.4754410    -0.8694270    -1.9482280
  H       -3.0167220     0.1138590     1.9027270
  H       -1.8007770     1.1928100     1.1867420
  H       -0.3855780    -0.5294870     2.1482020
  H       -1.5277920    -1.8013410     1.6997400
  H       -3.8772320     0.6843320    -1.9011880
  H       -4.5228040     1.0497910    -0.2936460
  H       -3.0892320     1.9062640    -0.8879070
  H        1.9842510    -2.1936970    -0.7089060
  H        4.2276210    -1.0857940    -0.7310670
  H        2.2780980     2.5111560     0.6184940
  H        4.3773590     1.3311980    -0.0481150
units angstrom
no_reorient  #important for SAPT in psi4, default
symmetry c1  #important for SAPT in psi4, default
}

set PROPERTIES_ORIGIN ["COM"]
properties('MP2/aug-cc-pvtz', properties = ['dipole'])
--------------------------------------------------------------------------

    Molecular point group: c1
  Charge       = 0
  Multiplicity = 1
  Basis Set: AUG-CC-PVTZ
    Blend: AUG-CC-PVTZ
  Basis Set: (AUG-CC-PVTZ AUX)
    Blend: AUG-CC-PVTZ-JKFIT

    Orbital Energies [Eh]
    ---------------------

    Doubly Occupied:

       1A    -15.557940     2A    -11.275262     3A    -11.274258
       4A    -11.258213     5A    -11.236164     6A    -11.235706
       7A    -11.227054     8A    -11.214574     9A    -11.210802
      10A    -11.209119    11A    -11.205199    12A    -11.203667
      13A     -1.252176    14A     -1.129571    15A     -1.082107
      16A     -1.046226    17A     -0.992151    18A     -0.955374
      19A     -0.893933    20A     -0.855250    21A     -0.837220
      22A     -0.763494    23A     -0.755276    24A     -0.696091
      25A     -0.668822    26A     -0.641912    27A     -0.639678
      28A     -0.608629    29A     -0.584384    30A     -0.577217
      31A     -0.573722    32A     -0.551841    33A     -0.538081
      34A     -0.527121    35A     -0.511341    36A     -0.475502
      37A     -0.471340    38A     -0.460912    39A     -0.448108
      40A     -0.447047    41A     -0.439171    42A     -0.410596
      43A     -0.377148    44A     -0.332877

  @DF-RHF Final Energy:  -479.89546444756223

   => Energetics <=

    Nuclear Repulsion Energy =            686.2012836363484212
    One-Electron Energy =               -2010.8889362354950663
    Two-Electron Energy =                 844.7921881515843552
    Total Energy =                       -479.8954644475621762
  Basis Set: (AUG-CC-PVTZ AUX)
    Blend: AUG-CC-PVTZ-RI
    Molecular point group: c1

    Geometry (in Angstrom), charge = 0, multiplicity = 1:

       Center              X                  Y                   Z               Mass
    ------------   -----------------  -----------------  -----------------  -----------------
         N            0.973831509690     0.880681416288     0.321135196052    14.003074004430
         C           -2.762804490310    -0.126439583712    -0.270090803948    12.000000000000
         C           -0.495861190310    -0.994366083712    -0.004855803948    12.000000000000
         C           -1.437512490310    -0.313379583712    -1.016366803948    12.000000000000
         C           -2.285884490310     0.175543416288     1.150878196052    12.000000000000
         C           -1.168810490310    -0.846137583712     1.376122196052    12.000000000000
         C           -3.669438490310     0.934700416288    -0.877569803948    12.000000000000
         C            0.892817509690    -0.417518583712    -0.044912803948    12.000000000000
         C            2.020120509690    -1.152408583712    -0.428708803948    12.000000000000
         C            3.270402509690    -0.535069583712    -0.439808803948    12.000000000000
         C            2.184104509690     1.462533416288     0.309713196052    12.000000000000
         C            3.357060509690     0.803393416288    -0.061911803948    12.000000000000
         H           -3.297699490310    -1.088263583712    -0.255101803948     1.007825032230
         H           -0.402513490310    -2.083394583712    -0.259166803948     1.007825032230
         H           -1.031021490310     0.675228416288    -1.262155803948     1.007825032230
         H           -1.544651490310    -0.872257583712    -1.953302803948     1.007825032230
         H           -3.085932490310     0.111028416288     1.897652196052     1.007825032230
         H           -1.869987490310     1.189979416288     1.181667196052     1.007825032230
         H           -0.454788490310    -0.532317583712     2.143127196052     1.007825032230
         H           -1.597002490310    -1.804171583712     1.694665196052     1.007825032230
         H           -3.946442490310     0.681501416288    -1.906262803948     1.007825032230
         H           -4.592014490310     1.046960416288    -0.298720803948     1.007825032230
         H           -3.158442490310     1.903433416288    -0.892981803948     1.007825032230
         H            1.915040509690    -2.196527583712    -0.713980803948     1.007825032230
         H            4.158410509690    -1.088624583712    -0.736141803948     1.007825032230
         H            2.208887509690     2.508325416288     0.613419196052     1.007825032230
         H            4.308148509690     1.328367416288    -0.053189803948     1.007825032230

  Basis Set: AUG-CC-PVTZ
    Blend: AUG-CC-PVTZ
  Basis Set: (AUG-CC-PVTZ AUX)
    Blend: AUG-CC-PVTZ-JKFIT
	 Reference Energy          =    -479.8954644475622331 [Eh]
	 Singles Energy            =      -0.0000000000000000 [Eh]
	 Same-Spin Energy          =      -0.5329610788999888 [Eh]
	 Opposite-Spin Energy      =      -1.7458117182144679 [Eh]
	 Correlation Energy        =      -2.2787727971144567 [Eh]
	 Total Energy              =    -482.1742372446767035 [Eh]

	 ================> DF-SCS-MP2 Energies <==================
	-----------------------------------------------------------
	 SCS Same-Spin Scale       =       0.3333333333333333 [-]
	 SCS Opposite-Spin Scale   =       1.2000000000000000 [-]
	 SCS Same-Spin Energy      =      -0.1776536929666629 [Eh]
	 SCS Opposite-Spin Energy  =      -2.0949740618573616 [Eh]
	 SCS Correlation Energy    =      -2.2726277548240246 [Eh]
	 SCS Total Energy          =    -482.1680922023862763 [Eh]
	-----------------------------------------------------------

  Dipole Moment: [D]
     X:     1.3475      Y:    -1.0498      Z:    -0.4895     Total:     1.7769

*** Psi4 exiting successfully. Buy a developer a beer!
