                               Psi4 1.4a3.dev225

  ==> Input File <==

--------------------------------------------------------------------------
#psi4
#
memory 32 gb

molecule  {
0 1
  N        1.0430420     0.8835120     0.3262100
  C       -2.6935940    -0.1236090    -0.2650160
  C       -0.4170680    -1.0145740    -0.0079460
  C       -1.3683020    -0.3105490    -1.0112920
  C       -2.2166740     0.1783740     1.1559530
  C       -1.0996000    -0.8433070     1.3811970
  C       -3.6002280     0.9375310    -0.8724950
  C        0.9620280    -0.4146880    -0.0398380
  C        2.0893310    -1.1495780    -0.4236340
  C        3.3396130    -0.5322390    -0.4347340
  C        2.2533150     1.4653640     0.3147880
  C        3.4262710     0.8062240    -0.0568370
  H       -3.2284890    -1.0854330    -0.2500270
  H       -0.3333030    -2.0805640    -0.2540920
  H       -0.9618110     0.6780590    -1.2570810
  H       -1.4754410    -0.8694270    -1.9482280
  H       -3.0167220     0.1138590     1.9027270
  H       -1.8007770     1.1928100     1.1867420
  H       -0.3855780    -0.5294870     2.1482020
  H       -1.5277920    -1.8013410     1.6997400
  H       -3.8453703     0.7502418    -1.9231511
  H       -4.5228040     1.0497910    -0.2936460
  H       -3.0892320     1.9062640    -0.8879070
  H        1.9842510    -2.1936970    -0.7089060
  H        4.2276210    -1.0857940    -0.7310670
  H        2.2780980     2.5111560     0.6184940
  H        4.3773590     1.3311980    -0.0481150
units angstrom
no_reorient  #important for SAPT in psi4, default
symmetry c1  #important for SAPT in psi4, default
}

set PROPERTIES_ORIGIN ["COM"]
properties('MP2/aug-cc-pvtz', properties = ['dipole'])
--------------------------------------------------------------------------

    Molecular point group: c1
  Charge       = 0
  Multiplicity = 1
  Basis Set: AUG-CC-PVTZ
    Blend: AUG-CC-PVTZ
  Basis Set: (AUG-CC-PVTZ AUX)
    Blend: AUG-CC-PVTZ-JKFIT

    Orbital Energies [Eh]
    ---------------------

    Doubly Occupied:

       1A    -15.558036     2A    -11.275361     3A    -11.274380
       4A    -11.257971     5A    -11.235910     6A    -11.235140
       7A    -11.226194     8A    -11.215056     9A    -11.211563
      10A    -11.209784    11A    -11.205117    12A    -11.204029
      13A     -1.251902    14A     -1.127616    15A     -1.081886
      16A     -1.046458    17A     -0.991084    18A     -0.954893
      19A     -0.893973    20A     -0.855250    21A     -0.836875
      22A     -0.764462    23A     -0.756351    24A     -0.696844
      25A     -0.668118    26A     -0.640803    27A     -0.639834
      28A     -0.608364    29A     -0.583453    30A     -0.577888
      31A     -0.574171    32A     -0.554375    33A     -0.537700
      34A     -0.526087    35A     -0.509281    36A     -0.473285
      37A     -0.469069    38A     -0.461800    39A     -0.452796
      40A     -0.446714    41A     -0.440414    42A     -0.410025
      43A     -0.377017    44A     -0.332154

  @DF-RHF Final Energy:  -479.89607771586236

   => Energetics <=

    Nuclear Repulsion Energy =            685.8463317078686714
    One-Electron Energy =               -2010.1858519587233332
    Two-Electron Energy =                 844.4434425349921867
    Total Energy =                       -479.8960777158623614
  Basis Set: (AUG-CC-PVTZ AUX)
    Blend: AUG-CC-PVTZ-RI
    Molecular point group: c1

    Geometry (in Angstrom), charge = 0, multiplicity = 1:

       Center              X                  Y                   Z               Mass
    ------------   -----------------  -----------------  -----------------  -----------------
         N            0.972918506907     0.881985015268     0.321880693984    14.003074004430
         C           -2.763717493093    -0.125135984732    -0.269345306016    12.000000000000
         C           -0.487191493093    -1.016100984732    -0.012275306016    12.000000000000
         C           -1.438425493093    -0.312075984732    -1.015621306016    12.000000000000
         C           -2.286797493093     0.176847015268     1.151623693984    12.000000000000
         C           -1.169723493093    -0.844833984732     1.376867693984    12.000000000000
         C           -3.670351493093     0.936004015268    -0.876824306016    12.000000000000
         C            0.891904506907    -0.416214984732    -0.044167306016    12.000000000000
         C            2.019207506907    -1.151104984732    -0.427963306016    12.000000000000
         C            3.269489506907    -0.533765984732    -0.439063306016    12.000000000000
         C            2.183191506907     1.463837015268     0.310458693984    12.000000000000
         C            3.356147506907     0.804697015268    -0.061166306016    12.000000000000
         H           -3.298612493093    -1.086959984732    -0.254356306016     1.007825032230
         H           -0.403426493093    -2.082090984732    -0.258421306016     1.007825032230
         H           -1.031934493093     0.676532015268    -1.261410306016     1.007825032230
         H           -1.545564493093    -0.870953984732    -1.952557306016     1.007825032230
         H           -3.086845493093     0.112332015268     1.898397693984     1.007825032230
         H           -1.870900493093     1.191283015268     1.182412693984     1.007825032230
         H           -0.455701493093    -0.531013984732     2.143872693984     1.007825032230
         H           -1.597915493093    -1.802867984732     1.695410693984     1.007825032230
         H           -3.915493793093     0.748714815268    -1.927480406016     1.007825032230
         H           -4.592927493093     1.048264015268    -0.297975306016     1.007825032230
         H           -3.159355493093     1.904737015268    -0.892236306016     1.007825032230
         H            1.914127506907    -2.195223984732    -0.713235306016     1.007825032230
         H            4.157497506907    -1.087320984732    -0.735396306016     1.007825032230
         H            2.207974506907     2.509629015268     0.614164693984     1.007825032230
         H            4.307235506907     1.329671015268    -0.052444306016     1.007825032230

  Basis Set: AUG-CC-PVTZ
    Blend: AUG-CC-PVTZ
  Basis Set: (AUG-CC-PVTZ AUX)
    Blend: AUG-CC-PVTZ-JKFIT
	 Reference Energy          =    -479.8960777158623614 [Eh]
	 Singles Energy            =      -0.0000000000000000 [Eh]
	 Same-Spin Energy          =      -0.5328090148812958 [Eh]
	 Opposite-Spin Energy      =      -1.7455475532563876 [Eh]
	 Correlation Energy        =      -2.2783565681376832 [Eh]
	 Total Energy              =    -482.1744342840000286 [Eh]

	 ================> DF-SCS-MP2 Energies <==================
	-----------------------------------------------------------
	 SCS Same-Spin Scale       =       0.3333333333333333 [-]
	 SCS Opposite-Spin Scale   =       1.2000000000000000 [-]
	 SCS Same-Spin Energy      =      -0.1776030049604319 [Eh]
	 SCS Opposite-Spin Energy  =      -2.0946570639076652 [Eh]
	 SCS Correlation Energy    =      -2.2722600688680972 [Eh]
	 SCS Total Energy          =    -482.1683377847304541 [Eh]
	-----------------------------------------------------------

  Dipole Moment: [D]
     X:     1.3479      Y:    -1.0564      Z:    -0.5007     Total:     1.7842

*** Psi4 exiting successfully. Buy a developer a beer!
