                               Psi4 1.4a3.dev225

  ==> Input File <==

--------------------------------------------------------------------------
#psi4
#
memory 32 gb

molecule  {
0 1
  N        1.0430420     0.8835120     0.3262100
  C       -2.6935940    -0.1236090    -0.2650160
  C       -0.4170680    -1.0145740    -0.0079460
  C       -1.3480238    -0.2941918    -1.0186741
  C       -2.2166740     0.1783740     1.1559530
  C       -1.0996000    -0.8433070     1.3811970
  C       -3.6002280     0.9375310    -0.8724950
  C        0.9620280    -0.4146880    -0.0398380
  C        2.0893310    -1.1495780    -0.4236340
  C        3.3396130    -0.5322390    -0.4347340
  C        2.2533150     1.4653640     0.3147880
  C        3.4262710     0.8062240    -0.0568370
  H       -3.2284890    -1.0854330    -0.2500270
  H       -0.3333030    -2.0805640    -0.2540920
  H       -0.9618110     0.6780590    -1.2570810
  H       -1.4754410    -0.8694270    -1.9482280
  H       -3.0167220     0.1138590     1.9027270
  H       -1.8007770     1.1928100     1.1867420
  H       -0.3855780    -0.5294870     2.1482020
  H       -1.5277920    -1.8013410     1.6997400
  H       -3.8772320     0.6843320    -1.9011880
  H       -4.5228040     1.0497910    -0.2936460
  H       -3.0892320     1.9062640    -0.8879070
  H        1.9842510    -2.1936970    -0.7089060
  H        4.2276210    -1.0857940    -0.7310670
  H        2.2780980     2.5111560     0.6184940
  H        4.3773590     1.3311980    -0.0481150
units angstrom
no_reorient  #important for SAPT in psi4, default
symmetry c1  #important for SAPT in psi4, default
}

set PROPERTIES_ORIGIN ["COM"]
properties('MP2/aug-cc-pvtz', properties = ['dipole'])
--------------------------------------------------------------------------

    Molecular point group: c1
  Charge       = 0
  Multiplicity = 1
  Basis Set: AUG-CC-PVTZ
    Blend: AUG-CC-PVTZ
  Basis Set: (AUG-CC-PVTZ AUX)
    Blend: AUG-CC-PVTZ-JKFIT

    Orbital Energies [Eh]
    ---------------------

    Doubly Occupied:

       1A    -15.557847     2A    -11.275121     3A    -11.274337
       4A    -11.257864     5A    -11.235689     6A    -11.234856
       7A    -11.226251     8A    -11.215468     9A    -11.211422
      10A    -11.209063    11A    -11.205042    12A    -11.203593
      13A     -1.251838    14A     -1.126135    15A     -1.081711
      16A     -1.046033    17A     -0.990753    18A     -0.955176
      19A     -0.893117    20A     -0.855137    21A     -0.836563
      22A     -0.763979    23A     -0.757043    24A     -0.696627
      25A     -0.667664    26A     -0.640339    27A     -0.639120
      28A     -0.607440    29A     -0.585105    30A     -0.579224
      31A     -0.573879    32A     -0.551342    33A     -0.538011
      34A     -0.528599    35A     -0.512400    36A     -0.472478
      37A     -0.468975    38A     -0.461974    39A     -0.454152
      40A     -0.447155    41A     -0.436865    42A     -0.409623
      43A     -0.376977    44A     -0.331832

  @DF-RHF Final Energy:  -479.89606566488135

   => Energetics <=

    Nuclear Repulsion Energy =            685.8093719774146848
    One-Electron Energy =               -2010.1232360795936529
    Two-Electron Energy =                 844.4177984372976198
    Total Energy =                       -479.8960656648813483
  Basis Set: (AUG-CC-PVTZ AUX)
    Blend: AUG-CC-PVTZ-RI
    Molecular point group: c1

    Geometry (in Angstrom), charge = 0, multiplicity = 1:

       Center              X                  Y                   Z               Mass
    ------------   -----------------  -----------------  -----------------  -----------------
         N            0.971607516391     0.881179029100     0.322293119832    14.003074004430
         C           -2.765028483609    -0.125941970900    -0.268932880168    12.000000000000
         C           -0.488502483609    -1.016906970900    -0.011862880168    12.000000000000
         C           -1.419458283609    -0.296524770900    -1.022590980168    12.000000000000
         C           -2.288108483609     0.176041029100     1.152036119832    12.000000000000
         C           -1.171034483609    -0.845639970900     1.377280119832    12.000000000000
         C           -3.671662483609     0.935198029100    -0.876411880168    12.000000000000
         C            0.890593516391    -0.417020970900    -0.043754880168    12.000000000000
         C            2.017896516391    -1.151910970900    -0.427550880168    12.000000000000
         C            3.268178516391    -0.534571970900    -0.438650880168    12.000000000000
         C            2.181880516391     1.463031029100     0.310871119832    12.000000000000
         C            3.354836516391     0.803891029100    -0.060753880168    12.000000000000
         H           -3.299923483609    -1.087765970900    -0.253943880168     1.007825032230
         H           -0.404737483609    -2.082896970900    -0.258008880168     1.007825032230
         H           -1.033245483609     0.675726029100    -1.260997880168     1.007825032230
         H           -1.546875483609    -0.871759970900    -1.952144880168     1.007825032230
         H           -3.088156483609     0.111526029100     1.898810119832     1.007825032230
         H           -1.872211483609     1.190477029100     1.182825119832     1.007825032230
         H           -0.457012483609    -0.531819970900     2.144285119832     1.007825032230
         H           -1.599226483609    -1.803673970900     1.695823119832     1.007825032230
         H           -3.948666483609     0.681999029100    -1.905104880168     1.007825032230
         H           -4.594238483609     1.047458029100    -0.297562880168     1.007825032230
         H           -3.160666483609     1.903931029100    -0.891823880168     1.007825032230
         H            1.912816516391    -2.196029970900    -0.712822880168     1.007825032230
         H            4.156186516391    -1.088126970900    -0.734983880168     1.007825032230
         H            2.206663516391     2.508823029100     0.614577119832     1.007825032230
         H            4.305924516391     1.328865029100    -0.052031880168     1.007825032230

  Basis Set: AUG-CC-PVTZ
    Blend: AUG-CC-PVTZ
  Basis Set: (AUG-CC-PVTZ AUX)
    Blend: AUG-CC-PVTZ-JKFIT
	 Reference Energy          =    -479.8960656648813483 [Eh]
	 Singles Energy            =      -0.0000000000000000 [Eh]
	 Same-Spin Energy          =      -0.5326708543535679 [Eh]
	 Opposite-Spin Energy      =      -1.7454793202716592 [Eh]
	 Correlation Energy        =      -2.2781501746252273 [Eh]
	 Total Energy              =    -482.1742158395065871 [Eh]

	 ================> DF-SCS-MP2 Energies <==================
	-----------------------------------------------------------
	 SCS Same-Spin Scale       =       0.3333333333333333 [-]
	 SCS Opposite-Spin Scale   =       1.2000000000000000 [-]
	 SCS Same-Spin Energy      =      -0.1775569514511893 [Eh]
	 SCS Opposite-Spin Energy  =      -2.0945751843259908 [Eh]
	 SCS Correlation Energy    =      -2.2721321357771802 [Eh]
	 SCS Total Energy          =    -482.1681978006585041 [Eh]
	-----------------------------------------------------------

  Dipole Moment: [D]
     X:     1.3205      Y:    -1.0699      Z:    -0.4953     Total:     1.7702

*** Psi4 exiting successfully. Buy a developer a beer!
