                               Psi4 1.4a3.dev225

  ==> Input File <==

--------------------------------------------------------------------------
#psi4
#
memory 32 gb

molecule  {
0 1
  N        1.0430420     0.8835120     0.3262100
  C       -2.6935940    -0.1236090    -0.2650160
  C       -0.4170680    -1.0145740    -0.0079460
  C       -1.4464567    -0.3780715    -0.9787313
  C       -2.2166740     0.1783740     1.1559530
  C       -1.0996000    -0.8433070     1.3811970
  C       -3.6002280     0.9375310    -0.8724950
  C        0.9620280    -0.4146880    -0.0398380
  C        2.0893310    -1.1495780    -0.4236340
  C        3.3396130    -0.5322390    -0.4347340
  C        2.2533150     1.4653640     0.3147880
  C        3.4262710     0.8062240    -0.0568370
  H       -3.2284890    -1.0854330    -0.2500270
  H       -0.3333030    -2.0805640    -0.2540920
  H       -0.9618110     0.6780590    -1.2570810
  H       -1.4754410    -0.8694270    -1.9482280
  H       -3.0167220     0.1138590     1.9027270
  H       -1.8007770     1.1928100     1.1867420
  H       -0.3855780    -0.5294870     2.1482020
  H       -1.5277920    -1.8013410     1.6997400
  H       -3.8772320     0.6843320    -1.9011880
  H       -4.5228040     1.0497910    -0.2936460
  H       -3.0892320     1.9062640    -0.8879070
  H        1.9842510    -2.1936970    -0.7089060
  H        4.2276210    -1.0857940    -0.7310670
  H        2.2780980     2.5111560     0.6184940
  H        4.3773590     1.3311980    -0.0481150
units angstrom
no_reorient  #important for SAPT in psi4, default
symmetry c1  #important for SAPT in psi4, default
}

set PROPERTIES_ORIGIN ["COM"]
properties('MP2/aug-cc-pvtz', properties = ['dipole'])
--------------------------------------------------------------------------

    Molecular point group: c1
  Charge       = 0
  Multiplicity = 1
  Basis Set: AUG-CC-PVTZ
    Blend: AUG-CC-PVTZ
  Basis Set: (AUG-CC-PVTZ AUX)
    Blend: AUG-CC-PVTZ-JKFIT

    Orbital Energies [Eh]
    ---------------------

    Doubly Occupied:

       1A    -15.558633     2A    -11.276356     3A    -11.274429
       4A    -11.258266     5A    -11.236616     6A    -11.236125
       7A    -11.226657     8A    -11.214241     9A    -11.211535
      10A    -11.211487    11A    -11.206334    12A    -11.204493
      13A     -1.252066    14A     -1.134501    15A     -1.082440
      16A     -1.048549    17A     -0.993431    18A     -0.953883
      19A     -0.897493    20A     -0.855494    21A     -0.837535
      22A     -0.768203    23A     -0.749566    24A     -0.697703
      25A     -0.670005    26A     -0.644324    27A     -0.641958
      28A     -0.610437    29A     -0.584805    30A     -0.575040
      31A     -0.572124    32A     -0.553666    33A     -0.538341
      34A     -0.522514    35A     -0.510174    36A     -0.479242
      37A     -0.471267    38A     -0.467171    39A     -0.450426
      40A     -0.446051    41A     -0.426073    42A     -0.410350
      43A     -0.376769    44A     -0.333057

  @DF-RHF Final Energy:  -479.88421592031739

   => Energetics <=

    Nuclear Repulsion Energy =            686.1121108707311578
    One-Electron Energy =               -2010.6529884149479130
    Two-Electron Energy =                 844.6566616238993674
    Total Energy =                       -479.8842159203173878
  Basis Set: (AUG-CC-PVTZ AUX)
    Blend: AUG-CC-PVTZ-RI
    Molecular point group: c1

    Geometry (in Angstrom), charge = 0, multiplicity = 1:

       Center              X                  Y                   Z               Mass
    ------------   -----------------  -----------------  -----------------  -----------------
         N            0.978938645393     0.887426258445     0.319318242332    14.003074004430
         C           -2.757697354607    -0.119694741555    -0.271907757668    12.000000000000
         C           -0.481171354607    -1.010659741555    -0.014837757668    12.000000000000
         C           -1.510560054607    -0.374157241555    -0.985623057668    12.000000000000
         C           -2.280777354607     0.182288258445     1.149061242332    12.000000000000
         C           -1.163703354607    -0.839392741555     1.374305242332    12.000000000000
         C           -3.664331354607     0.941445258445    -0.879386757668    12.000000000000
         C            0.897924645393    -0.410773741555    -0.046729757668    12.000000000000
         C            2.025227645393    -1.145663741555    -0.430525757668    12.000000000000
         C            3.275509645393    -0.528324741555    -0.441625757668    12.000000000000
         C            2.189211645393     1.469278258445     0.307896242332    12.000000000000
         C            3.362167645393     0.810138258445    -0.063728757668    12.000000000000
         H           -3.292592354607    -1.081518741555    -0.256918757668     1.007825032230
         H           -0.397406354607    -2.076649741555    -0.260983757668     1.007825032230
         H           -1.025914354607     0.681973258445    -1.263972757668     1.007825032230
         H           -1.539544354607    -0.865512741555    -1.955119757668     1.007825032230
         H           -3.080825354607     0.117773258445     1.895835242332     1.007825032230
         H           -1.864880354607     1.196724258445     1.179850242332     1.007825032230
         H           -0.449681354607    -0.525572741555     2.141310242332     1.007825032230
         H           -1.591895354607    -1.797426741555     1.692848242332     1.007825032230
         H           -3.941335354607     0.688246258445    -1.908079757668     1.007825032230
         H           -4.586907354607     1.053705258445    -0.300537757668     1.007825032230
         H           -3.153335354607     1.910178258445    -0.894798757668     1.007825032230
         H            1.920147645393    -2.189782741555    -0.715797757668     1.007825032230
         H            4.163517645393    -1.081879741555    -0.737958757668     1.007825032230
         H            2.213994645393     2.515070258445     0.611602242332     1.007825032230
         H            4.313255645393     1.335112258445    -0.055006757668     1.007825032230

  Basis Set: AUG-CC-PVTZ
    Blend: AUG-CC-PVTZ
  Basis Set: (AUG-CC-PVTZ AUX)
    Blend: AUG-CC-PVTZ-JKFIT
	 Reference Energy          =    -479.8842159203173878 [Eh]
	 Singles Energy            =      -0.0000000000000000 [Eh]
	 Same-Spin Energy          =      -0.5337361221551116 [Eh]
	 Opposite-Spin Energy      =      -1.7468143143183843 [Eh]
	 Correlation Energy        =      -2.2805504364734959 [Eh]
	 Total Energy              =    -482.1647663567908921 [Eh]

	 ================> DF-SCS-MP2 Energies <==================
	-----------------------------------------------------------
	 SCS Same-Spin Scale       =       0.3333333333333333 [-]
	 SCS Opposite-Spin Scale   =       1.2000000000000000 [-]
	 SCS Same-Spin Energy      =      -0.1779120407183705 [Eh]
	 SCS Opposite-Spin Energy  =      -2.0961771771820610 [Eh]
	 SCS Correlation Energy    =      -2.2740892179004315 [Eh]
	 SCS Total Energy          =    -482.1583051382178269 [Eh]
	-----------------------------------------------------------

  Dipole Moment: [D]
     X:     1.3562      Y:    -1.0843      Z:    -0.4744     Total:     1.8000

*** Psi4 exiting successfully. Buy a developer a beer!
