                               Psi4 1.4a3.dev225

  ==> Input File <==

--------------------------------------------------------------------------
#psi4
#
memory 32 gb

molecule  {
0 1
  N        1.0430420     0.8835120     0.3262100
  C       -2.6935940    -0.1236090    -0.2650160
  C       -0.4170680    -1.0145740    -0.0079460
  C       -1.3855989    -0.3081092    -1.0015521
  C       -2.2166740     0.1783740     1.1559530
  C       -1.0996000    -0.8433070     1.3811970
  C       -3.6002280     0.9375310    -0.8724950
  C        0.9620280    -0.4146880    -0.0398380
  C        2.0893310    -1.1495780    -0.4236340
  C        3.3396130    -0.5322390    -0.4347340
  C        2.2533150     1.4653640     0.3147880
  C        3.4262710     0.8062240    -0.0568370
  H       -3.2284890    -1.0854330    -0.2500270
  H       -0.3333030    -2.0805640    -0.2540920
  H       -0.9618110     0.6780590    -1.2570810
  H       -1.4754410    -0.8694270    -1.9482280
  H       -3.0167220     0.1138590     1.9027270
  H       -1.8007770     1.1928100     1.1867420
  H       -0.3855780    -0.5294870     2.1482020
  H       -1.5277920    -1.8013410     1.6997400
  H       -3.8772320     0.6843320    -1.9011880
  H       -4.5228040     1.0497910    -0.2936460
  H       -3.0892320     1.9062640    -0.8879070
  H        1.9842510    -2.1936970    -0.7089060
  H        4.2276210    -1.0857940    -0.7310670
  H        2.2780980     2.5111560     0.6184940
  H        4.3773590     1.3311980    -0.0481150
units angstrom
no_reorient  #important for SAPT in psi4, default
symmetry c1  #important for SAPT in psi4, default
}

set PROPERTIES_ORIGIN ["COM"]
properties('MP2/aug-cc-pvtz', properties = ['dipole'])
--------------------------------------------------------------------------

    Molecular point group: c1
  Charge       = 0
  Multiplicity = 1
  Basis Set: AUG-CC-PVTZ
    Blend: AUG-CC-PVTZ
  Basis Set: (AUG-CC-PVTZ AUX)
    Blend: AUG-CC-PVTZ-JKFIT

    Orbital Energies [Eh]
    ---------------------

    Doubly Occupied:

       1A    -15.558119     2A    -11.275474     3A    -11.274397
       4A    -11.258018     5A    -11.236011     6A    -11.235276
       7A    -11.226246     8A    -11.213718     9A    -11.211280
      10A    -11.210323    11A    -11.205384    12A    -11.203803
      13A     -1.251914    14A     -1.129008    15A     -1.081980
      16A     -1.046983    17A     -0.991740    18A     -0.953943
      19A     -0.894600    20A     -0.855278    21A     -0.836779
      22A     -0.764817    23A     -0.755146    24A     -0.696822
      25A     -0.667946    26A     -0.640957    27A     -0.640555
      28A     -0.608385    29A     -0.585242    30A     -0.576939
      31A     -0.574255    32A     -0.551960    33A     -0.537971
      34A     -0.526436    35A     -0.511817    36A     -0.472093
      37A     -0.468021    38A     -0.461429    39A     -0.452133
      40A     -0.448832    41A     -0.440213    42A     -0.410204
      43A     -0.377025    44A     -0.332162

  @DF-RHF Final Energy:  -479.89607224783936

   => Energetics <=

    Nuclear Repulsion Energy =            685.9830464891797419
    One-Electron Energy =               -2010.4549678558128107
    Two-Electron Energy =                 844.5758491187937125
    Total Energy =                       -479.8960722478393564
  Basis Set: (AUG-CC-PVTZ AUX)
    Blend: AUG-CC-PVTZ-RI
    Molecular point group: c1

    Geometry (in Angstrom), charge = 0, multiplicity = 1:

       Center              X                  Y                   Z               Mass
    ------------   -----------------  -----------------  -----------------  -----------------
         N            0.974406051285     0.882215575364     0.321017899954    14.003074004430
         C           -2.762229948715    -0.124905424636    -0.270208100046    12.000000000000
         C           -0.485703948715    -1.015870424636    -0.013138100046    12.000000000000
         C           -1.454234848715    -0.309405624636    -1.006744200046    12.000000000000
         C           -2.285309948715     0.177077575364     1.150760899954    12.000000000000
         C           -1.168235948715    -0.844603424636     1.376004899954    12.000000000000
         C           -3.668863948715     0.936234575364    -0.877687100046    12.000000000000
         C            0.893392051285    -0.415984424636    -0.045030100046    12.000000000000
         C            2.020695051285    -1.150874424636    -0.428826100046    12.000000000000
         C            3.270977051285    -0.533535424636    -0.439926100046    12.000000000000
         C            2.184679051285     1.464067575364     0.309595899954    12.000000000000
         C            3.357635051285     0.804927575364    -0.062029100046    12.000000000000
         H           -3.297124948715    -1.086729424636    -0.255219100046     1.007825032230
         H           -0.401938948715    -2.081860424636    -0.259284100046     1.007825032230
         H           -1.030446948715     0.676762575364    -1.262273100046     1.007825032230
         H           -1.544076948715    -0.870723424636    -1.953420100046     1.007825032230
         H           -3.085357948715     0.112562575364     1.897534899954     1.007825032230
         H           -1.869412948715     1.191513575364     1.181549899954     1.007825032230
         H           -0.454213948715    -0.530783424636     2.143009899954     1.007825032230
         H           -1.596427948715    -1.802637424636     1.694547899954     1.007825032230
         H           -3.945867948715     0.683035575364    -1.906380100046     1.007825032230
         H           -4.591439948715     1.048494575364    -0.298838100046     1.007825032230
         H           -3.157867948715     1.904967575364    -0.893099100046     1.007825032230
         H            1.915615051285    -2.194993424636    -0.714098100046     1.007825032230
         H            4.158985051285    -1.087090424636    -0.736259100046     1.007825032230
         H            2.209462051285     2.509859575364     0.613301899954     1.007825032230
         H            4.308723051285     1.329901575364    -0.053307100046     1.007825032230

  Basis Set: AUG-CC-PVTZ
    Blend: AUG-CC-PVTZ
  Basis Set: (AUG-CC-PVTZ AUX)
    Blend: AUG-CC-PVTZ-JKFIT
	 Reference Energy          =    -479.8960722478393564 [Eh]
	 Singles Energy            =      -0.0000000000000000 [Eh]
	 Same-Spin Energy          =      -0.5329114931238179 [Eh]
	 Opposite-Spin Energy      =      -1.7456521523566229 [Eh]
	 Correlation Energy        =      -2.2785636454804408 [Eh]
	 Total Energy              =    -482.1746358933198167 [Eh]

	 ================> DF-SCS-MP2 Energies <==================
	-----------------------------------------------------------
	 SCS Same-Spin Scale       =       0.3333333333333333 [-]
	 SCS Opposite-Spin Scale   =       1.2000000000000000 [-]
	 SCS Same-Spin Energy      =      -0.1776371643746060 [Eh]
	 SCS Opposite-Spin Energy  =      -2.0947825828279472 [Eh]
	 SCS Correlation Energy    =      -2.2724197472025529 [Eh]
	 SCS Total Energy          =    -482.1684919950419044 [Eh]
	-----------------------------------------------------------

  Dipole Moment: [D]
     X:     1.3367      Y:    -1.0657      Z:    -0.4906     Total:     1.7785

*** Psi4 exiting successfully. Buy a developer a beer!
