                               Psi4 1.4a3.dev225

  ==> Input File <==

--------------------------------------------------------------------------
#psi4
#
memory 32 gb

molecule  {
0 1
  N        1.0430420     0.8835120     0.3262100
  C       -2.6935940    -0.1236090    -0.2650160
  C       -0.4170680    -1.0145740    -0.0079460
  C       -1.3683020    -0.3105490    -1.0112920
  C       -2.2746895     0.0780063     1.0453882
  C       -1.0996000    -0.8433070     1.3811970
  C       -3.6002280     0.9375310    -0.8724950
  C        0.9620280    -0.4146880    -0.0398380
  C        2.0893310    -1.1495780    -0.4236340
  C        3.3396130    -0.5322390    -0.4347340
  C        2.2533150     1.4653640     0.3147880
  C        3.4262710     0.8062240    -0.0568370
  H       -3.2284890    -1.0854330    -0.2500270
  H       -0.3333030    -2.0805640    -0.2540920
  H       -0.9618110     0.6780590    -1.2570810
  H       -1.4754410    -0.8694270    -1.9482280
  H       -3.0167220     0.1138590     1.9027270
  H       -1.8007770     1.1928100     1.1867420
  H       -0.3855780    -0.5294870     2.1482020
  H       -1.5277920    -1.8013410     1.6997400
  H       -3.8772320     0.6843320    -1.9011880
  H       -4.5228040     1.0497910    -0.2936460
  H       -3.0892320     1.9062640    -0.8879070
  H        1.9842510    -2.1936970    -0.7089060
  H        4.2276210    -1.0857940    -0.7310670
  H        2.2780980     2.5111560     0.6184940
  H        4.3773590     1.3311980    -0.0481150
units angstrom
no_reorient  #important for SAPT in psi4, default
symmetry c1  #important for SAPT in psi4, default
}

set PROPERTIES_ORIGIN ["COM"]
properties('MP2/aug-cc-pvtz', properties = ['dipole'])
--------------------------------------------------------------------------

    Molecular point group: c1
  Charge       = 0
  Multiplicity = 1
  Basis Set: AUG-CC-PVTZ
    Blend: AUG-CC-PVTZ
  Basis Set: (AUG-CC-PVTZ AUX)
    Blend: AUG-CC-PVTZ-JKFIT

    Orbital Energies [Eh]
    ---------------------

    Doubly Occupied:

       1A    -15.557714     2A    -11.275366     3A    -11.274156
       4A    -11.257893     5A    -11.235877     6A    -11.235175
       7A    -11.226351     8A    -11.213170     9A    -11.211977
      10A    -11.211510    11A    -11.208906    12A    -11.207703
      13A     -1.251833    14A     -1.143914    15A     -1.082069
      16A     -1.052346    17A     -0.994015    18A     -0.954104
      19A     -0.899736    20A     -0.855887    21A     -0.840513
      22A     -0.767955    23A     -0.748553    24A     -0.696761
      25A     -0.669844    26A     -0.644815    27A     -0.642075
      28A     -0.612793    29A     -0.586316    30A     -0.576194
      31A     -0.573590    32A     -0.554017    33A     -0.537472
      34A     -0.525791    35A     -0.509836    36A     -0.485836
      37A     -0.473811    38A     -0.462258    39A     -0.456582
      40A     -0.446592    41A     -0.417197    42A     -0.404973
      43A     -0.376730    44A     -0.331971

  @DF-RHF Final Energy:  -479.86789343504893

   => Energetics <=

    Nuclear Repulsion Energy =            687.5468758170133015
    One-Electron Energy =               -2013.4451805303585843
    Two-Electron Energy =                 846.0304112782962420
    Total Energy =                       -479.8678934350489271
  Basis Set: (AUG-CC-PVTZ AUX)
    Blend: AUG-CC-PVTZ-RI
    Molecular point group: c1

    Geometry (in Angstrom), charge = 0, multiplicity = 1:

       Center              X                  Y                   Z               Mass
    ------------   -----------------  -----------------  -----------------  -----------------
         N            0.977438709160     0.889872517757     0.329978006536    14.003074004430
         C           -2.759197290840    -0.117248482243    -0.261247993464    12.000000000000
         C           -0.482671290840    -1.008213482243    -0.004177993464    12.000000000000
         C           -1.433905290840    -0.304188482243    -1.007523993464    12.000000000000
         C           -2.340292790840     0.084366817757     1.049156206536    12.000000000000
         C           -1.165203290840    -0.836946482243     1.384965006536    12.000000000000
         C           -3.665831290840     0.943891517757    -0.868726993464    12.000000000000
         C            0.896424709160    -0.408327482243    -0.036069993464    12.000000000000
         C            2.023727709160    -1.143217482243    -0.419865993464    12.000000000000
         C            3.274009709160    -0.525878482243    -0.430965993464    12.000000000000
         C            2.187711709160     1.471724517757     0.318556006536    12.000000000000
         C            3.360667709160     0.812584517757    -0.053068993464    12.000000000000
         H           -3.294092290840    -1.079072482243    -0.246258993464     1.007825032230
         H           -0.398906290840    -2.074203482243    -0.250323993464     1.007825032230
         H           -1.027414290840     0.684419517757    -1.253312993464     1.007825032230
         H           -1.541044290840    -0.863066482243    -1.944459993464     1.007825032230
         H           -3.082325290840     0.120219517757     1.906495006536     1.007825032230
         H           -1.866380290840     1.199170517757     1.190510006536     1.007825032230
         H           -0.451181290840    -0.523126482243     2.151970006536     1.007825032230
         H           -1.593395290840    -1.794980482243     1.703508006536     1.007825032230
         H           -3.942835290840     0.690692517757    -1.897419993464     1.007825032230
         H           -4.588407290840     1.056151517757    -0.289877993464     1.007825032230
         H           -3.154835290840     1.912624517757    -0.884138993464     1.007825032230
         H            1.918647709160    -2.187336482243    -0.705137993464     1.007825032230
         H            4.162017709160    -1.079433482243    -0.727298993464     1.007825032230
         H            2.212494709160     2.517516517757     0.622262006536     1.007825032230
         H            4.311755709160     1.337558517757    -0.044346993464     1.007825032230

  Basis Set: AUG-CC-PVTZ
    Blend: AUG-CC-PVTZ
  Basis Set: (AUG-CC-PVTZ AUX)
    Blend: AUG-CC-PVTZ-JKFIT
	 Reference Energy          =    -479.8678934350489271 [Eh]
	 Singles Energy            =      -0.0000000000000000 [Eh]
	 Same-Spin Energy          =      -0.5346373482434856 [Eh]
	 Opposite-Spin Energy      =      -1.7480078974249365 [Eh]
	 Correlation Energy        =      -2.2826452456684221 [Eh]
	 Total Energy              =    -482.1505386807173750 [Eh]

	 ================> DF-SCS-MP2 Energies <==================
	-----------------------------------------------------------
	 SCS Same-Spin Scale       =       0.3333333333333333 [-]
	 SCS Opposite-Spin Scale   =       1.2000000000000000 [-]
	 SCS Same-Spin Energy      =      -0.1782124494144952 [Eh]
	 SCS Opposite-Spin Energy  =      -2.0976094769099238 [Eh]
	 SCS Correlation Energy    =      -2.2758219263244190 [Eh]
	 SCS Total Energy          =    -482.1437153613733244 [Eh]
	-----------------------------------------------------------

  Dipole Moment: [D]
     X:     1.3327      Y:    -1.1158      Z:    -0.5398     Total:     1.8200

*** Psi4 exiting successfully. Buy a developer a beer!
