                               Psi4 1.4a3.dev225

  ==> Input File <==

--------------------------------------------------------------------------
#psi4
#
memory 32 gb

molecule  {
0 1
  N        1.0895843     0.8818534     0.3187528
  C       -2.6935940    -0.1236090    -0.2650160
  C       -0.4170680    -1.0145740    -0.0079460
  C       -1.3683020    -0.3105490    -1.0112920
  C       -2.2166740     0.1783740     1.1559530
  C       -1.0996000    -0.8433070     1.3811970
  C       -3.6002280     0.9375310    -0.8724950
  C        0.9620280    -0.4146880    -0.0398380
  C        2.0893310    -1.1495780    -0.4236340
  C        3.3396130    -0.5322390    -0.4347340
  C        2.2533150     1.4653640     0.3147880
  C        3.4262710     0.8062240    -0.0568370
  H       -3.2284890    -1.0854330    -0.2500270
  H       -0.3333030    -2.0805640    -0.2540920
  H       -0.9618110     0.6780590    -1.2570810
  H       -1.4754410    -0.8694270    -1.9482280
  H       -3.0167220     0.1138590     1.9027270
  H       -1.8007770     1.1928100     1.1867420
  H       -0.3855780    -0.5294870     2.1482020
  H       -1.5277920    -1.8013410     1.6997400
  H       -3.8772320     0.6843320    -1.9011880
  H       -4.5228040     1.0497910    -0.2936460
  H       -3.0892320     1.9062640    -0.8879070
  H        1.9842510    -2.1936970    -0.7089060
  H        4.2276210    -1.0857940    -0.7310670
  H        2.2780980     2.5111560     0.6184940
  H        4.3773590     1.3311980    -0.0481150
units angstrom
no_reorient  #important for SAPT in psi4, default
symmetry c1  #important for SAPT in psi4, default
}

set PROPERTIES_ORIGIN ["COM"]
properties('MP2/aug-cc-pvtz', properties = ['dipole'])
--------------------------------------------------------------------------

    Molecular point group: c1
  Charge       = 0
  Multiplicity = 1
  Basis Set: AUG-CC-PVTZ
    Blend: AUG-CC-PVTZ
  Basis Set: (AUG-CC-PVTZ AUX)
    Blend: AUG-CC-PVTZ-JKFIT

    Orbital Energies [Eh]
    ---------------------

    Doubly Occupied:

       1A    -15.552046     2A    -11.275317     3A    -11.269065
       4A    -11.255756     5A    -11.234154     6A    -11.233952
       7A    -11.227543     8A    -11.215246     9A    -11.212159
      10A    -11.210496    11A    -11.205748    12A    -11.204523
      13A     -1.260735    14A     -1.128994    15A     -1.080892
      16A     -1.048767    17A     -0.991732    18A     -0.955375
      19A     -0.894399    20A     -0.852889    21A     -0.840402
      22A     -0.766547    23A     -0.756368    24A     -0.698256
      25A     -0.668744    26A     -0.641825    27A     -0.640019
      28A     -0.608393    29A     -0.585936    30A     -0.578694
      31A     -0.574608    32A     -0.552432    33A     -0.540934
      34A     -0.529268    35A     -0.513548    36A     -0.474058
      37A     -0.469924    38A     -0.461649    39A     -0.454281
      40A     -0.447746    41A     -0.439977    42A     -0.401937
      43A     -0.379400    44A     -0.330524

  @DF-RHF Final Energy:  -479.89740760741972

   => Energetics <=

    Nuclear Repulsion Energy =            686.2695651396098810
    One-Electron Energy =               -2011.0034293571136459
    Two-Electron Energy =                 844.8364566100839284
    Total Energy =                       -479.8974076074197228
  Basis Set: (AUG-CC-PVTZ AUX)
    Blend: AUG-CC-PVTZ-RI
    Molecular point group: c1

    Geometry (in Angstrom), charge = 0, multiplicity = 1:

       Center              X                  Y                   Z               Mass
    ------------   -----------------  -----------------  -----------------  -----------------
         N            1.015615086178     0.880882837778     0.314934222211    14.003074004430
         C           -2.767563213822    -0.124579562222    -0.268834577789    12.000000000000
         C           -0.491037213822    -1.015544562222    -0.011764577789    12.000000000000
         C           -1.442271213822    -0.311519562222    -1.015110577789    12.000000000000
         C           -2.290643213822     0.177403437778     1.152134422211    12.000000000000
         C           -1.173569213822    -0.844277562222     1.377378422211    12.000000000000
         C           -3.674197213822     0.936560437778    -0.876313577789    12.000000000000
         C            0.888058786178    -0.415658562222    -0.043656577789    12.000000000000
         C            2.015361786178    -1.150548562222    -0.427452577789    12.000000000000
         C            3.265643786178    -0.533209562222    -0.438552577789    12.000000000000
         C            2.179345786178     1.464393437778     0.310969422211    12.000000000000
         C            3.352301786178     0.805253437778    -0.060655577789    12.000000000000
         H           -3.302458213822    -1.086403562222    -0.253845577789     1.007825032230
         H           -0.407272213822    -2.081534562222    -0.257910577789     1.007825032230
         H           -1.035780213822     0.677088437778    -1.260899577789     1.007825032230
         H           -1.549410213822    -0.870397562222    -1.952046577789     1.007825032230
         H           -3.090691213822     0.112888437778     1.898908422211     1.007825032230
         H           -1.874746213822     1.191839437778     1.182923422211     1.007825032230
         H           -0.459547213822    -0.530457562222     2.144383422211     1.007825032230
         H           -1.601761213822    -1.802311562222     1.695921422211     1.007825032230
         H           -3.951201213822     0.683361437778    -1.905006577789     1.007825032230
         H           -4.596773213822     1.048820437778    -0.297464577789     1.007825032230
         H           -3.163201213822     1.905293437778    -0.891725577789     1.007825032230
         H            1.910281786178    -2.194667562222    -0.712724577789     1.007825032230
         H            4.153651786178    -1.086764562222    -0.734885577789     1.007825032230
         H            2.204128786178     2.510185437778     0.614675422211     1.007825032230
         H            4.303389786178     1.330227437778    -0.051933577789     1.007825032230

  Basis Set: AUG-CC-PVTZ
    Blend: AUG-CC-PVTZ
  Basis Set: (AUG-CC-PVTZ AUX)
    Blend: AUG-CC-PVTZ-JKFIT
	 Reference Energy          =    -479.8974076074197228 [Eh]
	 Singles Energy            =      -0.0000000000000000 [Eh]
	 Same-Spin Energy          =      -0.5323111044441529 [Eh]
	 Opposite-Spin Energy      =      -1.7440777176050133 [Eh]
	 Correlation Energy        =      -2.2763888220491664 [Eh]
	 Total Energy              =    -482.1737964294688936 [Eh]

	 ================> DF-SCS-MP2 Energies <==================
	-----------------------------------------------------------
	 SCS Same-Spin Scale       =       0.3333333333333333 [-]
	 SCS Opposite-Spin Scale   =       1.2000000000000000 [-]
	 SCS Same-Spin Energy      =      -0.1774370348147176 [Eh]
	 SCS Opposite-Spin Energy  =      -2.0928932611260160 [Eh]
	 SCS Correlation Energy    =      -2.2703302959407337 [Eh]
	 SCS Total Energy          =    -482.1677379033604325 [Eh]
	-----------------------------------------------------------

  Dipole Moment: [D]
     X:     1.2059      Y:    -1.0697      Z:    -0.4773     Total:     1.6811

*** Psi4 exiting successfully. Buy a developer a beer!
