                               Psi4 1.3.2 release

  ==> Input File <==

--------------------------------------------------------------------------
#psi4
#
memory 32 gb

molecule  {
0 1
  O       -0.4923450     1.3632740     0.0047680
  N       -1.7507560    -0.5313030    -0.0074470
  C        0.6724550    -0.7636660     0.0116250
  C        2.0428424    -0.1021878    -0.0071650
  C       -0.5559540     0.1347490     0.0021540
  H        0.6261720    -1.4037350     0.9017330
  H        0.6181110    -1.4376660    -0.8525020
  H        2.8306620    -0.6317880     0.0008820
  H        2.0167960     0.6624200    -0.9023730
  H        2.0226490     0.6976010     0.8577070
  H       -1.8142910    -1.5376440    -0.0092160
  H       -2.6020670     0.0127290    -0.0095420
units angstrom
no_reorient  #important for SAPT in psi4, default
symmetry c1  #important for SAPT in psi4, default
}

set PROPERTIES_ORIGIN ["COM"]
properties('MP2/aug-cc-pvtz', properties = ['dipole'])
--------------------------------------------------------------------------

    Molecular point group: c1
  Charge       = 0
  Multiplicity = 1
  Basis Set: AUG-CC-PVTZ
    Blend: AUG-CC-PVTZ
  Basis Set: (AUG-CC-PVTZ AUX)
    Blend: AUG-CC-PVTZ-JKFIT

    Orbital Energies [Eh]
    ---------------------

    Doubly Occupied:

       1A    -20.520118     2A    -15.587638     3A    -11.356839
       4A    -11.245651     5A    -11.220155     6A     -1.373450
       7A     -1.210304     8A     -1.051569     9A     -0.899471
      10A     -0.784258    11A     -0.718639    12A     -0.674672
      13A     -0.631297    14A     -0.609222    15A     -0.569942
      16A     -0.538817    17A     -0.498344    18A     -0.462869
      19A     -0.425282    20A     -0.413997

  @DF-RHF Final Energy:  -247.07750138119411

   => Energetics <=

    Nuclear Repulsion Energy =            177.8171119998107770
    One-Electron Energy =                -688.2041592329952664
    Two-Electron Energy =                 263.3095458519903787
    Total Energy =                       -247.0775013811941108
  Basis Set: (AUG-CC-PVTZ AUX)
    Blend: AUG-CC-PVTZ-RI
    Molecular point group: c1

    Geometry (in Angstrom), charge = 0, multiplicity = 1:

       Center              X                  Y                   Z               Mass
    ------------   -----------------  -----------------  -----------------  -----------------
         O           -0.454675076160     1.336912679947     0.004248708192    15.994914619570
         N           -1.713086076160    -0.557664320053    -0.007966291808    14.003074004430
         C            0.710124923840    -0.790027320053     0.011105708192    12.000000000000
         C            2.080512323840    -0.128549120053    -0.007684291808    12.000000000000
         C           -0.518284076160     0.108387679947     0.001634708192    12.000000000000
         H            0.663841923840    -1.430096320053     0.901213708192     1.007825032230
         H            0.655780923840    -1.464027320053    -0.853021291808     1.007825032230
         H            2.868331923840    -0.658149320053     0.000362708192     1.007825032230
         H            2.054465923840     0.636058679947    -0.902892291808     1.007825032230
         H            2.060318923840     0.671239679947     0.857187708192     1.007825032230
         H           -1.776621076160    -1.564005320053    -0.009735291808     1.007825032230
         H           -2.564397076160    -0.013632320053    -0.010061291808     1.007825032230

  Basis Set: AUG-CC-PVTZ
    Blend: AUG-CC-PVTZ
  Basis Set: (AUG-CC-PVTZ AUX)
    Blend: AUG-CC-PVTZ-JKFIT
	 Reference Energy          =    -247.0775013811941108 [Eh]
	 Singles Energy            =      -0.0000000000000000 [Eh]
	 Same-Spin Energy          =      -0.2476880758988534 [Eh]
	 Opposite-Spin Energy      =      -0.8120850630903607 [Eh]
	 Correlation Energy        =      -1.0597731389892140 [Eh]
	 Total Energy              =    -248.1372745201833254 [Eh]

	 ================> DF-SCS-MP2 Energies <==================
	-----------------------------------------------------------
	 SCS Same-Spin Scale       =       0.3333333333333333 [-]
	 SCS Opposite-Spin Scale   =       1.2000000000000000 [-]
	 SCS Same-Spin Energy      =      -0.0825626919662844 [Eh]
	 SCS Opposite-Spin Energy  =      -0.9745020757084327 [Eh]
	 SCS Correlation Energy    =      -1.0570647676747171 [Eh]
	 SCS Total Energy          =    -248.1345661488688279 [Eh]
	-----------------------------------------------------------

  Dipole Moment: [D]
     X:    -0.9020      Y:    -3.6047      Z:    -0.0030     Total:     3.7158

*** Psi4 exiting successfully. Buy a developer a beer!
