                               Psi4 1.3.2 release

  ==> Input File <==

--------------------------------------------------------------------------
#psi4
#
memory 32 gb

molecule  {
0 1
  O       -0.4923450     1.3632740     0.0047680
  N       -1.7507560    -0.5313030    -0.0074470
  C        0.6724550    -0.7636660     0.0116250
  C        1.9374153     0.0820771    -0.0098686
  C       -0.5559540     0.1347490     0.0021540
  H        0.6261720    -1.4037350     0.9017330
  H        0.6181110    -1.4376660    -0.8525020
  H        2.8306620    -0.6317880     0.0008820
  H        2.0167960     0.6624200    -0.9023730
  H        2.0226490     0.6976010     0.8577070
  H       -1.8142910    -1.5376440    -0.0092160
  H       -2.6020670     0.0127290    -0.0095420
units angstrom
no_reorient  #important for SAPT in psi4, default
symmetry c1  #important for SAPT in psi4, default
}

set PROPERTIES_ORIGIN ["COM"]
properties('MP2/aug-cc-pvtz', properties = ['dipole'])
--------------------------------------------------------------------------

    Molecular point group: c1
  Charge       = 0
  Multiplicity = 1
  Basis Set: AUG-CC-PVTZ
    Blend: AUG-CC-PVTZ
  Basis Set: (AUG-CC-PVTZ AUX)
    Blend: AUG-CC-PVTZ-JKFIT

    Orbital Energies [Eh]
    ---------------------

    Doubly Occupied:

       1A    -20.518498     2A    -15.585223     3A    -11.351873
       4A    -11.244118     5A    -11.216412     6A     -1.372279
       7A     -1.208223     8A     -1.050756     9A     -0.891718
      10A     -0.781685    11A     -0.717899    12A     -0.668857
      13A     -0.640419    14A     -0.596523    15A     -0.552921
      16A     -0.524619    17A     -0.504421    18A     -0.500168
      19A     -0.423087    20A     -0.413181

  @DF-RHF Final Energy:  -247.10650899919906

   => Energetics <=

    Nuclear Repulsion Energy =            178.7896204178339872
    One-Electron Energy =                -690.2664953286235914
    Two-Electron Energy =                 264.3703659115905680
    Total Energy =                       -247.1065089991990362
  Basis Set: (AUG-CC-PVTZ AUX)
    Blend: AUG-CC-PVTZ-RI
    Molecular point group: c1

    Geometry (in Angstrom), charge = 0, multiplicity = 1:

       Center              X                  Y                   Z               Mass
    ------------   -----------------  -----------------  -----------------  -----------------
         O           -0.437357111263     1.306644437057     0.004692814593    15.994914619570
         N           -1.695768111263    -0.587932562943    -0.007522185407    14.003074004430
         C            0.727442888737    -0.820295562943     0.011549814593    12.000000000000
         C            1.992403188737     0.025447537057    -0.009943785407    12.000000000000
         C           -0.500966111263     0.078119437057     0.002078814593    12.000000000000
         H            0.681159888737    -1.460364562943     0.901657814593     1.007825032230
         H            0.673098888737    -1.494295562943    -0.852577185407     1.007825032230
         H            2.885649888737    -0.688417562943     0.000806814593     1.007825032230
         H            2.071783888737     0.605790437057    -0.902448185407     1.007825032230
         H            2.077636888737     0.640971437057     0.857631814593     1.007825032230
         H           -1.759303111263    -1.594273562943    -0.009291185407     1.007825032230
         H           -2.547079111263    -0.043900562943    -0.009617185407     1.007825032230

  Basis Set: AUG-CC-PVTZ
    Blend: AUG-CC-PVTZ
  Basis Set: (AUG-CC-PVTZ AUX)
    Blend: AUG-CC-PVTZ-JKFIT
	 Reference Energy          =    -247.1065089991990646 [Eh]
	 Singles Energy            =      -0.0000000000000000 [Eh]
	 Same-Spin Energy          =      -0.2473229230870233 [Eh]
	 Opposite-Spin Energy      =      -0.8108443623903974 [Eh]
	 Correlation Energy        =      -1.0581672854774207 [Eh]
	 Total Energy              =    -248.1646762846764886 [Eh]

	 ================> DF-SCS-MP2 Energies <==================
	-----------------------------------------------------------
	 SCS Same-Spin Scale       =       0.3333333333333333 [-]
	 SCS Opposite-Spin Scale   =       1.2000000000000000 [-]
	 SCS Same-Spin Energy      =      -0.0824409743623411 [Eh]
	 SCS Opposite-Spin Energy  =      -0.9730132348684768 [Eh]
	 SCS Correlation Energy    =      -1.0554542092308179 [Eh]
	 SCS Total Energy          =    -248.1619632084298814 [Eh]
	-----------------------------------------------------------

  Dipole Moment: [D]
     X:    -0.8799      Y:    -3.5502      Z:    -0.0046     Total:     3.6576

*** Psi4 exiting successfully. Buy a developer a beer!
