                               Psi4 1.3.2 release

  ==> Input File <==

--------------------------------------------------------------------------
#psi4
#
memory 32 gb

molecule  {
0 1
  O       -0.4923450     1.3632740     0.0047680
  N       -1.7507560    -0.5313030    -0.0074470
  C        0.6724550    -0.7636660     0.0116250
  C        1.9661690     0.0374190    -0.0092300
  C       -0.5559540     0.1347490     0.0021540
  H        0.6261720    -1.4037350     0.9017330
  H        0.6181110    -1.4376660    -0.8525020
  H        2.8306620    -0.6317880     0.0008820
  H        2.0167960     0.6624200    -0.9023730
  H        2.0226490     0.6976010     0.8577070
  H       -1.8142910    -1.5376440    -0.0092160
  H       -2.6020670     0.0127290    -0.0095420
units angstrom
no_reorient  #important for SAPT in psi4, default
symmetry c1  #important for SAPT in psi4, default
}

set PROPERTIES_ORIGIN ["COM"]
properties('MP2/aug-cc-pvtz', properties = ['dipole'])
--------------------------------------------------------------------------

    Molecular point group: c1
  Charge       = 0
  Multiplicity = 1
  Basis Set: AUG-CC-PVTZ
    Blend: AUG-CC-PVTZ
  Basis Set: (AUG-CC-PVTZ AUX)
    Blend: AUG-CC-PVTZ-JKFIT

    Orbital Energies [Eh]
    ---------------------

    Doubly Occupied:

       1A    -20.518570     2A    -15.585589     3A    -11.352754
       4A    -11.243778     5A    -11.215954     6A     -1.372201
       7A     -1.208488     8A     -1.050297     9A     -0.892076
      10A     -0.781594    11A     -0.717749    12A     -0.669787
      13A     -0.636936    14A     -0.598585    15A     -0.547681
      16A     -0.525730    17A     -0.515905    18A     -0.493042
      19A     -0.423438    20A     -0.413197

  @DF-RHF Final Energy:  -247.10951514141971

   => Energetics <=

    Nuclear Repulsion Energy =            178.5199101616866244
    One-Electron Energy =                -689.7321497866053051
    Two-Electron Energy =                 264.1027244834989460
    Total Energy =                       -247.1095151414197062
  Basis Set: (AUG-CC-PVTZ AUX)
    Blend: AUG-CC-PVTZ-RI
    Molecular point group: c1

    Geometry (in Angstrom), charge = 0, multiplicity = 1:

       Center              X                  Y                   Z               Mass
    ------------   -----------------  -----------------  -----------------  -----------------
         O           -0.442080332971     1.313980192363     0.004587915071    15.994914619570
         N           -1.700491332971    -0.580596807637    -0.007627084929    14.003074004430
         C            0.722719667029    -0.812959807637     0.011444915071    12.000000000000
         C            2.016433667029    -0.011874807637    -0.009410084929    12.000000000000
         C           -0.505689332971     0.085455192363     0.001973915071    12.000000000000
         H            0.676436667029    -1.453028807637     0.901552915071     1.007825032230
         H            0.668375667029    -1.486959807637    -0.852682084929     1.007825032230
         H            2.880926667029    -0.681081807637     0.000701915071     1.007825032230
         H            2.067060667029     0.613126192363    -0.902553084929     1.007825032230
         H            2.072913667029     0.648307192363     0.857526915071     1.007825032230
         H           -1.764026332971    -1.586937807637    -0.009396084929     1.007825032230
         H           -2.551802332971    -0.036564807637    -0.009722084929     1.007825032230

  Basis Set: AUG-CC-PVTZ
    Blend: AUG-CC-PVTZ
  Basis Set: (AUG-CC-PVTZ AUX)
    Blend: AUG-CC-PVTZ-JKFIT
	 Reference Energy          =    -247.1095151414197062 [Eh]
	 Singles Energy            =      -0.0000000000000000 [Eh]
	 Same-Spin Energy          =      -0.2472669877166471 [Eh]
	 Opposite-Spin Energy      =      -0.8107036000129737 [Eh]
	 Correlation Energy        =      -1.0579705877296208 [Eh]
	 Total Energy              =    -248.1674857291493197 [Eh]

	 ================> DF-SCS-MP2 Energies <==================
	-----------------------------------------------------------
	 SCS Same-Spin Scale       =       0.3333333333333333 [-]
	 SCS Opposite-Spin Scale   =       1.2000000000000000 [-]
	 SCS Same-Spin Energy      =      -0.0824223292388823 [Eh]
	 SCS Opposite-Spin Energy  =      -0.9728443200155684 [Eh]
	 SCS Correlation Energy    =      -1.0552666492544507 [Eh]
	 SCS Total Energy          =    -248.1647817906741693 [Eh]
	-----------------------------------------------------------

  Dipole Moment: [D]
     X:    -0.8601      Y:    -3.5684      Z:    -0.0042     Total:     3.6706

*** Psi4 exiting successfully. Buy a developer a beer!
