                               Psi4 1.3.2 release

  ==> Input File <==

--------------------------------------------------------------------------
#psi4
#
memory 32 gb

molecule  {
0 1
  O       -0.4923450     1.3632740     0.0047680
  N       -1.7507560    -0.5313030    -0.0074470
  C        0.6724550    -0.7636660     0.0116250
  C        1.9519870     0.0598735    -0.0095525
  C       -0.5559540     0.1347490     0.0021540
  H        0.6261720    -1.4037350     0.9017330
  H        0.6181110    -1.4376660    -0.8525020
  H        2.8306620    -0.6317880     0.0008820
  H        2.0167960     0.6624200    -0.9023730
  H        2.0226490     0.6976010     0.8577070
  H       -1.8142910    -1.5376440    -0.0092160
  H       -2.6020670     0.0127290    -0.0095420
units angstrom
no_reorient  #important for SAPT in psi4, default
symmetry c1  #important for SAPT in psi4, default
}

set PROPERTIES_ORIGIN ["COM"]
properties('MP2/aug-cc-pvtz', properties = ['dipole'])
--------------------------------------------------------------------------

    Molecular point group: c1
  Charge       = 0
  Multiplicity = 1
  Basis Set: AUG-CC-PVTZ
    Blend: AUG-CC-PVTZ
  Basis Set: (AUG-CC-PVTZ AUX)
    Blend: AUG-CC-PVTZ-JKFIT

    Orbital Energies [Eh]
    ---------------------

    Doubly Occupied:

       1A    -20.518504     2A    -15.585385     3A    -11.352281
       4A    -11.243891     5A    -11.216062     6A     -1.372206
       7A     -1.208333     8A     -1.050473     9A     -0.891793
      10A     -0.781597    11A     -0.717809    12A     -0.669257
      13A     -0.638569    14A     -0.597485    15A     -0.550177
      16A     -0.522881    17A     -0.512593    18A     -0.496822
      19A     -0.423246    20A     -0.413168

  @DF-RHF Final Energy:  -247.10873056966710

   => Energetics <=

    Nuclear Repulsion Energy =            178.6528857436963733
    One-Electron Energy =                -689.9981688693956130
    Two-Electron Energy =                 264.2365525560321089
    Total Energy =                       -247.1087305696671024
  Basis Set: (AUG-CC-PVTZ AUX)
    Blend: AUG-CC-PVTZ-RI
    Molecular point group: c1

    Geometry (in Angstrom), charge = 0, multiplicity = 1:

       Center              X                  Y                   Z               Mass
    ------------   -----------------  -----------------  -----------------  -----------------
         O           -0.439750729119     1.310291707687     0.004640890479    15.994914619570
         N           -1.698161729119    -0.584285292313    -0.007574109521    14.003074004430
         C            0.725049270881    -0.816648292313     0.011497890479    12.000000000000
         C            2.004581270881     0.006891207687    -0.009679609521    12.000000000000
         C           -0.503359729119     0.081766707687     0.002026890479    12.000000000000
         H            0.678766270881    -1.456717292313     0.901605890479     1.007825032230
         H            0.670705270881    -1.490648292313    -0.852629109521     1.007825032230
         H            2.883256270881    -0.684770292313     0.000754890479     1.007825032230
         H            2.069390270881     0.609437707687    -0.902500109521     1.007825032230
         H            2.075243270881     0.644618707687     0.857579890479     1.007825032230
         H           -1.761696729119    -1.590626292313    -0.009343109521     1.007825032230
         H           -2.549472729119    -0.040253292313    -0.009669109521     1.007825032230

  Basis Set: AUG-CC-PVTZ
    Blend: AUG-CC-PVTZ
  Basis Set: (AUG-CC-PVTZ AUX)
    Blend: AUG-CC-PVTZ-JKFIT
	 Reference Energy          =    -247.1087305696671024 [Eh]
	 Singles Energy            =      -0.0000000000000000 [Eh]
	 Same-Spin Energy          =      -0.2472832661226063 [Eh]
	 Opposite-Spin Energy      =      -0.8107396926635191 [Eh]
	 Correlation Energy        =      -1.0580229587861254 [Eh]
	 Total Energy              =    -248.1667535284532278 [Eh]

	 ================> DF-SCS-MP2 Energies <==================
	-----------------------------------------------------------
	 SCS Same-Spin Scale       =       0.3333333333333333 [-]
	 SCS Opposite-Spin Scale   =       1.2000000000000000 [-]
	 SCS Same-Spin Energy      =      -0.0824277553742021 [Eh]
	 SCS Opposite-Spin Energy  =      -0.9728876311962229 [Eh]
	 SCS Correlation Energy    =      -1.0553153865704250 [Eh]
	 SCS Total Energy          =    -248.1640459562375156 [Eh]
	-----------------------------------------------------------

  Dipole Moment: [D]
     X:    -0.8679      Y:    -3.5598      Z:    -0.0044     Total:     3.6640

*** Psi4 exiting successfully. Buy a developer a beer!
