                               Psi4 1.3.2 release

  ==> Input File <==

--------------------------------------------------------------------------
#psi4
#
memory 32 gb

molecule  {
0 1
  O       -0.4923450     1.3632740     0.0047680
  N       -1.7507560    -0.5313030    -0.0074470
  C        0.6724550    -0.7636660     0.0116250
  C        2.0189147    -0.0547696    -0.0078774
  C       -0.5559540     0.1347490     0.0021540
  H        0.6261720    -1.4037350     0.9017330
  H        0.6181110    -1.4376660    -0.8525020
  H        2.8306620    -0.6317880     0.0008820
  H        2.0167960     0.6624200    -0.9023730
  H        2.0226490     0.6976010     0.8577070
  H       -1.8142910    -1.5376440    -0.0092160
  H       -2.6020670     0.0127290    -0.0095420
units angstrom
no_reorient  #important for SAPT in psi4, default
symmetry c1  #important for SAPT in psi4, default
}

set PROPERTIES_ORIGIN ["COM"]
properties('MP2/aug-cc-pvtz', properties = ['dipole'])
--------------------------------------------------------------------------

    Molecular point group: c1
  Charge       = 0
  Multiplicity = 1
  Basis Set: AUG-CC-PVTZ
    Blend: AUG-CC-PVTZ
  Basis Set: (AUG-CC-PVTZ AUX)
    Blend: AUG-CC-PVTZ-JKFIT

    Orbital Energies [Eh]
    ---------------------

    Doubly Occupied:

       1A    -20.519400     2A    -15.586804     3A    -11.355251
       4A    -11.244524     5A    -11.217856     6A     -1.372810
       7A     -1.209538     8A     -1.050696     9A     -0.895773
      10A     -0.782748    11A     -0.717991    12A     -0.672891
      13A     -0.632453    14A     -0.604717    15A     -0.556911
      16A     -0.540656    17A     -0.505061    18A     -0.473999
      19A     -0.424549    20A     -0.413649

  @DF-RHF Final Energy:  -247.09590766230463

   => Energetics <=

    Nuclear Repulsion Energy =            178.0316255256733768
    One-Electron Energy =                -688.6985133035491344
    Two-Electron Energy =                 263.5709801155711602
    Total Energy =                       -247.0959076623046258
  Basis Set: (AUG-CC-PVTZ AUX)
    Blend: AUG-CC-PVTZ-RI
    Molecular point group: c1

    Geometry (in Angstrom), charge = 0, multiplicity = 1:

       Center              X                  Y                   Z               Mass
    ------------   -----------------  -----------------  -----------------  -----------------
         O           -0.450744596534     1.329123537278     0.004365730459    15.994914619570
         N           -1.709155596534    -0.565453462722    -0.007849269541    14.003074004430
         C            0.714055403466    -0.797816462722     0.011222730459    12.000000000000
         C            2.060515103466    -0.088920062722    -0.008279669541    12.000000000000
         C           -0.514353596534     0.100598537278     0.001751730459    12.000000000000
         H            0.667772403466    -1.437885462722     0.901330730459     1.007825032230
         H            0.659711403466    -1.471816462722    -0.852904269541     1.007825032230
         H            2.872262403466    -0.665938462722     0.000479730459     1.007825032230
         H            2.058396403466     0.628269537278    -0.902775269541     1.007825032230
         H            2.064249403466     0.663450537278     0.857304730459     1.007825032230
         H           -1.772690596534    -1.571794462722    -0.009618269541     1.007825032230
         H           -2.560466596534    -0.021421462722    -0.009944269541     1.007825032230

  Basis Set: AUG-CC-PVTZ
    Blend: AUG-CC-PVTZ
  Basis Set: (AUG-CC-PVTZ AUX)
    Blend: AUG-CC-PVTZ-JKFIT
	 Reference Energy          =    -247.0959076623046258 [Eh]
	 Singles Energy            =      -0.0000000000000000 [Eh]
	 Same-Spin Energy          =      -0.2474454290426639 [Eh]
	 Opposite-Spin Energy      =      -0.8112987110038747 [Eh]
	 Correlation Energy        =      -1.0587441400465387 [Eh]
	 Total Energy              =    -248.1546518023511680 [Eh]

	 ================> DF-SCS-MP2 Energies <==================
	-----------------------------------------------------------
	 SCS Same-Spin Scale       =       0.3333333333333333 [-]
	 SCS Opposite-Spin Scale   =       1.2000000000000000 [-]
	 SCS Same-Spin Energy      =      -0.0824818096808879 [Eh]
	 SCS Opposite-Spin Energy  =      -0.9735584532046496 [Eh]
	 SCS Correlation Energy    =      -1.0560402628855377 [Eh]
	 SCS Total Energy          =    -248.1519479251901714 [Eh]
	-----------------------------------------------------------

  Dipole Moment: [D]
     X:    -0.8715      Y:    -3.5950      Z:    -0.0035     Total:     3.6992

*** Psi4 exiting successfully. Buy a developer a beer!
