                               Psi4 1.3.2 release

  ==> Input File <==

--------------------------------------------------------------------------
#psi4
#
memory 32 gb

molecule  {
0 1
  O       -0.4923450     1.3632740     0.0047680
  N       -1.7507560    -0.5313030    -0.0074470
  C        0.6724550    -0.7636660     0.0116250
  C        1.9799569     0.0147205    -0.0089011
  C       -0.5559540     0.1347490     0.0021540
  H        0.6261720    -1.4037350     0.9017330
  H        0.6181110    -1.4376660    -0.8525020
  H        2.8306620    -0.6317880     0.0008820
  H        2.0167960     0.6624200    -0.9023730
  H        2.0226490     0.6976010     0.8577070
  H       -1.8142910    -1.5376440    -0.0092160
  H       -2.6020670     0.0127290    -0.0095420
units angstrom
no_reorient  #important for SAPT in psi4, default
symmetry c1  #important for SAPT in psi4, default
}

set PROPERTIES_ORIGIN ["COM"]
properties('MP2/aug-cc-pvtz', properties = ['dipole'])
--------------------------------------------------------------------------

    Molecular point group: c1
  Charge       = 0
  Multiplicity = 1
  Basis Set: AUG-CC-PVTZ
    Blend: AUG-CC-PVTZ
  Basis Set: (AUG-CC-PVTZ AUX)
    Blend: AUG-CC-PVTZ-JKFIT

    Orbital Energies [Eh]
    ---------------------

    Doubly Occupied:

       1A    -20.518696     2A    -15.585833     3A    -11.353289
       4A    -11.243782     5A    -11.216085     6A     -1.372262
       7A     -1.208687     8A     -1.050230     9A     -0.892592
      10A     -0.781691    11A     -0.717725    12A     -0.670435
      13A     -0.635517    14A     -0.599836    15A     -0.545475
      16A     -0.533353    17A     -0.514092    18A     -0.488834
      19A     -0.423665    20A     -0.413263

  @DF-RHF Final Energy:  -247.10874154116163

   => Energetics <=

    Nuclear Repulsion Energy =            178.3910116956656395
    One-Electron Energy =                -689.4688251435336497
    Two-Electron Energy =                 263.9690719067064038
    Total Energy =                       -247.1087415411616348
  Basis Set: (AUG-CC-PVTZ AUX)
    Blend: AUG-CC-PVTZ-RI
    Molecular point group: c1

    Geometry (in Angstrom), charge = 0, multiplicity = 1:

       Center              X                  Y                   Z               Mass
    ------------   -----------------  -----------------  -----------------  -----------------
         O           -0.444345200051     1.317708757658     0.004533888368    15.994914619570
         N           -1.702756200051    -0.576868242342    -0.007681111632    14.003074004430
         C            0.720454799949    -0.809231242342     0.011390888368    12.000000000000
         C            2.027956699949    -0.030844742342    -0.009135211632    12.000000000000
         C           -0.507954200051     0.089183757658     0.001919888368    12.000000000000
         H            0.674171799949    -1.449300242342     0.901498888368     1.007825032230
         H            0.666110799949    -1.483231242342    -0.852736111632     1.007825032230
         H            2.878661799949    -0.677353242342     0.000647888368     1.007825032230
         H            2.064795799949     0.616854757658    -0.902607111632     1.007825032230
         H            2.070648799949     0.652035757658     0.857472888368     1.007825032230
         H           -1.766291200051    -1.583209242342    -0.009450111632     1.007825032230
         H           -2.554067200051    -0.032836242342    -0.009776111632     1.007825032230

  Basis Set: AUG-CC-PVTZ
    Blend: AUG-CC-PVTZ
  Basis Set: (AUG-CC-PVTZ AUX)
    Blend: AUG-CC-PVTZ-JKFIT
	 Reference Energy          =    -247.1087415411616348 [Eh]
	 Singles Energy            =      -0.0000000000000000 [Eh]
	 Same-Spin Energy          =      -0.2472745481942992 [Eh]
	 Opposite-Spin Energy      =      -0.8107384928886243 [Eh]
	 Correlation Energy        =      -1.0580130410829236 [Eh]
	 Total Energy              =    -248.1667545822445504 [Eh]

	 ================> DF-SCS-MP2 Energies <==================
	-----------------------------------------------------------
	 SCS Same-Spin Scale       =       0.3333333333333333 [-]
	 SCS Opposite-Spin Scale   =       1.2000000000000000 [-]
	 SCS Same-Spin Energy      =      -0.0824248493980997 [Eh]
	 SCS Opposite-Spin Energy  =      -0.9728861914663491 [Eh]
	 SCS Correlation Energy    =      -1.0553110408644488 [Eh]
	 SCS Total Energy          =    -248.1640525820260734 [Eh]
	-----------------------------------------------------------

  Dipole Moment: [D]
     X:    -0.8566      Y:    -3.5762      Z:    -0.0040     Total:     3.6774

*** Psi4 exiting successfully. Buy a developer a beer!
