                               Psi4 1.3.2 release

  ==> Input File <==

--------------------------------------------------------------------------
#psi4
#
memory 32 gb

molecule  {
0 1
  O       -0.4923450     1.3632740     0.0047680
  N       -1.7507560    -0.5313030    -0.0074470
  C        0.6724550    -0.7636660     0.0116250
  C        1.9933465    -0.0082151    -0.0085660
  C       -0.5559540     0.1347490     0.0021540
  H        0.6261720    -1.4037350     0.9017330
  H        0.6181110    -1.4376660    -0.8525020
  H        2.8306620    -0.6317880     0.0008820
  H        2.0167960     0.6624200    -0.9023730
  H        2.0226490     0.6976010     0.8577070
  H       -1.8142910    -1.5376440    -0.0092160
  H       -2.6020670     0.0127290    -0.0095420
units angstrom
no_reorient  #important for SAPT in psi4, default
symmetry c1  #important for SAPT in psi4, default
}

set PROPERTIES_ORIGIN ["COM"]
properties('MP2/aug-cc-pvtz', properties = ['dipole'])
--------------------------------------------------------------------------

    Molecular point group: c1
  Charge       = 0
  Multiplicity = 1
  Basis Set: AUG-CC-PVTZ
    Blend: AUG-CC-PVTZ
  Basis Set: (AUG-CC-PVTZ AUX)
    Blend: AUG-CC-PVTZ-JKFIT

    Orbital Energies [Eh]
    ---------------------

    Doubly Occupied:

       1A    -20.518877     2A    -15.586118     3A    -11.353884
       4A    -11.243906     5A    -11.216448     6A     -1.372386
       7A     -1.208930     8A     -1.050273     9A     -0.893364
      10A     -0.781904    11A     -0.717747    12A     -0.671183
      13A     -0.634303    14A     -0.601256    15A     -0.543612
      16A     -0.541480    17A     -0.511312    18A     -0.484224
      19A     -0.423927    20A     -0.413364

  @DF-RHF Final Energy:  -247.10629156565045

   => Energetics <=

    Nuclear Repulsion Energy =            178.2664880564623502
    One-Electron Energy =                -689.2085607256005915
    Two-Electron Energy =                 263.8357811034878182
    Total Energy =                       -247.1062915656504515
  Basis Set: (AUG-CC-PVTZ AUX)
    Blend: AUG-CC-PVTZ-RI
    Molecular point group: c1

    Geometry (in Angstrom), charge = 0, multiplicity = 1:

       Center              X                  Y                   Z               Mass
    ------------   -----------------  -----------------  -----------------  -----------------
         O           -0.446544640449     1.321476270145     0.004478843222    15.994914619570
         N           -1.704955640449    -0.573100729855    -0.007736156778    14.003074004430
         C            0.718255359551    -0.805463729855     0.011335843222    12.000000000000
         C            2.039146859551    -0.050012829855    -0.008855156778    12.000000000000
         C           -0.510153640449     0.092951270145     0.001864843222    12.000000000000
         H            0.671972359551    -1.445532729855     0.901443843222     1.007825032230
         H            0.663911359551    -1.479463729855    -0.852791156778     1.007825032230
         H            2.876462359551    -0.673585729855     0.000592843222     1.007825032230
         H            2.062596359551     0.620622270145    -0.902662156778     1.007825032230
         H            2.068449359551     0.655803270145     0.857417843222     1.007825032230
         H           -1.768490640449    -1.579441729855    -0.009505156778     1.007825032230
         H           -2.556266640449    -0.029068729855    -0.009831156778     1.007825032230

  Basis Set: AUG-CC-PVTZ
    Blend: AUG-CC-PVTZ
  Basis Set: (AUG-CC-PVTZ AUX)
    Blend: AUG-CC-PVTZ-JKFIT
	 Reference Energy          =    -247.1062915656504515 [Eh]
	 Singles Energy            =      -0.0000000000000000 [Eh]
	 Same-Spin Energy          =      -0.2473064554068946 [Eh]
	 Opposite-Spin Energy      =      -0.8108471670025250 [Eh]
	 Correlation Energy        =      -1.0581536224094197 [Eh]
	 Total Energy              =    -248.1644451880598581 [Eh]

	 ================> DF-SCS-MP2 Energies <==================
	-----------------------------------------------------------
	 SCS Same-Spin Scale       =       0.3333333333333333 [-]
	 SCS Opposite-Spin Scale   =       1.2000000000000000 [-]
	 SCS Same-Spin Energy      =      -0.0824354851356315 [Eh]
	 SCS Opposite-Spin Energy  =      -0.9730166004030300 [Eh]
	 SCS Correlation Energy    =      -1.0554520855386615 [Eh]
	 SCS Total Energy          =    -248.1617436511891128 [Eh]
	-----------------------------------------------------------

  Dipole Moment: [D]
     X:    -0.8574      Y:    -3.5832      Z:    -0.0039     Total:     3.6843

*** Psi4 exiting successfully. Buy a developer a beer!
