                               Psi4 1.3.2 release

  ==> Input File <==

--------------------------------------------------------------------------
#psi4
#
memory 32 gb

molecule  {
0 1
  O       -0.4923450     1.3632740     0.0047680
  N       -1.7507560    -0.5313030    -0.0074470
  C        0.6724550    -0.7636660     0.0116250
  C        1.9071205     0.1257048    -0.0104810
  C       -0.5559540     0.1347490     0.0021540
  H        0.6261720    -1.4037350     0.9017330
  H        0.6181110    -1.4376660    -0.8525020
  H        2.8306620    -0.6317880     0.0008820
  H        2.0167960     0.6624200    -0.9023730
  H        2.0226490     0.6976010     0.8577070
  H       -1.8142910    -1.5376440    -0.0092160
  H       -2.6020670     0.0127290    -0.0095420
units angstrom
no_reorient  #important for SAPT in psi4, default
symmetry c1  #important for SAPT in psi4, default
}

set PROPERTIES_ORIGIN ["COM"]
properties('MP2/aug-cc-pvtz', properties = ['dipole'])
--------------------------------------------------------------------------

    Molecular point group: c1
  Charge       = 0
  Multiplicity = 1
  Basis Set: AUG-CC-PVTZ
    Blend: AUG-CC-PVTZ
  Basis Set: (AUG-CC-PVTZ AUX)
    Blend: AUG-CC-PVTZ-JKFIT

    Orbital Energies [Eh]
    ---------------------

    Doubly Occupied:

       1A    -20.518681     2A    -15.585029     3A    -11.351257
       4A    -11.244899     5A    -11.217858     6A     -1.372644
       7A     -1.208144     8A     -1.051635     9A     -0.892089
      10A     -0.782064    11A     -0.718150    12A     -0.668485
      13A     -0.644761    14A     -0.594986    15A     -0.558890
      16A     -0.529526    17A     -0.505669    18A     -0.486082
      19A     -0.422849    20A     -0.413342

  @DF-RHF Final Energy:  -247.09825174793428

   => Energetics <=

    Nuclear Repulsion Energy =            179.0730368756649113
    One-Electron Energy =                -690.8085019124331438
    Two-Electron Energy =                 264.6372132888339479
    Total Energy =                       -247.0982517479342846
  Basis Set: (AUG-CC-PVTZ AUX)
    Blend: AUG-CC-PVTZ-RI
    Molecular point group: c1

    Geometry (in Angstrom), charge = 0, multiplicity = 1:

       Center              X                  Y                   Z               Mass
    ------------   -----------------  -----------------  -----------------  -----------------
         O           -0.432380741023     1.299477940235     0.004793410376    15.994914619570
         N           -1.690791741023    -0.595099059765    -0.007421589624    14.003074004430
         C            0.732419258977    -0.827462059765     0.011650410376    12.000000000000
         C            1.967084758977     0.061908740235    -0.010455589624    12.000000000000
         C           -0.495989741023     0.070952940235     0.002179410376    12.000000000000
         H            0.686136258977    -1.467531059765     0.901758410376     1.007825032230
         H            0.678075258977    -1.501462059765    -0.852476589624     1.007825032230
         H            2.890626258977    -0.695584059765     0.000907410376     1.007825032230
         H            2.076760258977     0.598623940235    -0.902347589624     1.007825032230
         H            2.082613258977     0.633804940235     0.857732410376     1.007825032230
         H           -1.754326741023    -1.601440059765    -0.009190589624     1.007825032230
         H           -2.542102741023    -0.051067059765    -0.009516589624     1.007825032230

  Basis Set: AUG-CC-PVTZ
    Blend: AUG-CC-PVTZ
  Basis Set: (AUG-CC-PVTZ AUX)
    Blend: AUG-CC-PVTZ-JKFIT
	 Reference Energy          =    -247.0982517479342846 [Eh]
	 Singles Energy            =      -0.0000000000000000 [Eh]
	 Same-Spin Energy          =      -0.2474709605854071 [Eh]
	 Opposite-Spin Energy      =      -0.8112516410580068 [Eh]
	 Correlation Energy        =      -1.0587226016434139 [Eh]
	 Total Energy              =    -248.1569743495776947 [Eh]

	 ================> DF-SCS-MP2 Energies <==================
	-----------------------------------------------------------
	 SCS Same-Spin Scale       =       0.3333333333333333 [-]
	 SCS Opposite-Spin Scale   =       1.2000000000000000 [-]
	 SCS Same-Spin Energy      =      -0.0824903201951357 [Eh]
	 SCS Opposite-Spin Energy  =      -0.9735019692696082 [Eh]
	 SCS Correlation Energy    =      -1.0559922894647440 [Eh]
	 SCS Total Energy          =    -248.1542440373990246 [Eh]
	-----------------------------------------------------------

  Dipole Moment: [D]
     X:    -0.9163      Y:    -3.5279      Z:    -0.0049     Total:     3.6450

*** Psi4 exiting successfully. Buy a developer a beer!
