                               Psi4 1.3.2 release

  ==> Input File <==

--------------------------------------------------------------------------
#psi4
#
memory 32 gb

molecule  {
0 1
  O       -0.4923450     1.3632740     0.0047680
  N       -1.7507560    -0.5313030    -0.0074470
  C        0.6724550    -0.7636660     0.0116250
  C        1.8753214     0.1682490    -0.0110665
  C       -0.5559540     0.1347490     0.0021540
  H        0.6261720    -1.4037350     0.9017330
  H        0.6181110    -1.4376660    -0.8525020
  H        2.8306620    -0.6317880     0.0008820
  H        2.0167960     0.6624200    -0.9023730
  H        2.0226490     0.6976010     0.8577070
  H       -1.8142910    -1.5376440    -0.0092160
  H       -2.6020670     0.0127290    -0.0095420
units angstrom
no_reorient  #important for SAPT in psi4, default
symmetry c1  #important for SAPT in psi4, default
}

set PROPERTIES_ORIGIN ["COM"]
properties('MP2/aug-cc-pvtz', properties = ['dipole'])
--------------------------------------------------------------------------

    Molecular point group: c1
  Charge       = 0
  Multiplicity = 1
  Basis Set: AUG-CC-PVTZ
    Blend: AUG-CC-PVTZ
  Basis Set: (AUG-CC-PVTZ AUX)
    Blend: AUG-CC-PVTZ-JKFIT

    Orbital Energies [Eh]
    ---------------------

    Doubly Occupied:

       1A    -20.519142     2A    -15.585010     3A    -11.350917
       4A    -11.246085     5A    -11.220314     6A     -1.373321
       7A     -1.208258     8A     -1.052911     9A     -0.892996
      10A     -0.782645    11A     -0.718491    12A     -0.668722
      13A     -0.649853    14A     -0.593959    15A     -0.564982
      16A     -0.534278    17A     -0.509871    18A     -0.467585
      19A     -0.422607    20A     -0.413698

  @DF-RHF Final Energy:  -247.08575377288506

   => Energetics <=

    Nuclear Repulsion Energy =            179.3674519514526366
    One-Electron Energy =                -691.3551191297050309
    Two-Electron Energy =                 264.9019134053673952
    Total Energy =                       -247.0857537728850275
  Basis Set: (AUG-CC-PVTZ AUX)
    Blend: AUG-CC-PVTZ-RI
    Molecular point group: c1

    Geometry (in Angstrom), charge = 0, multiplicity = 1:

       Center              X                  Y                   Z               Mass
    ------------   -----------------  -----------------  -----------------  -----------------
         O           -0.427157267195     1.292489424358     0.004889587435    15.994914619570
         N           -1.685568267195    -0.602087575642    -0.007325412565    14.003074004430
         C            0.737642732805    -0.834450575642     0.011746587435    12.000000000000
         C            1.940509132805     0.097464424358    -0.010944912565    12.000000000000
         C           -0.490766267195     0.063964424358     0.002275587435    12.000000000000
         H            0.691359732805    -1.474519575642     0.901854587435     1.007825032230
         H            0.683298732805    -1.508450575642    -0.852380412565     1.007825032230
         H            2.895849732805    -0.702572575642     0.001003587435     1.007825032230
         H            2.081983732805     0.591635424358    -0.902251412565     1.007825032230
         H            2.087836732805     0.626816424358     0.857828587435     1.007825032230
         H           -1.749103267195    -1.608428575642    -0.009094412565     1.007825032230
         H           -2.536879267195    -0.058055575642    -0.009420412565     1.007825032230

  Basis Set: AUG-CC-PVTZ
    Blend: AUG-CC-PVTZ
  Basis Set: (AUG-CC-PVTZ AUX)
    Blend: AUG-CC-PVTZ-JKFIT
	 Reference Energy          =    -247.0857537728850559 [Eh]
	 Singles Energy            =      -0.0000000000000000 [Eh]
	 Same-Spin Energy          =      -0.2477095982698515 [Eh]
	 Opposite-Spin Energy      =      -0.8119134397882715 [Eh]
	 Correlation Energy        =      -1.0596230380581231 [Eh]
	 Total Energy              =    -248.1453768109431905 [Eh]

	 ================> DF-SCS-MP2 Energies <==================
	-----------------------------------------------------------
	 SCS Same-Spin Scale       =       0.3333333333333333 [-]
	 SCS Opposite-Spin Scale   =       1.2000000000000000 [-]
	 SCS Same-Spin Energy      =      -0.0825698660899505 [Eh]
	 SCS Opposite-Spin Energy  =      -0.9742961277459257 [Eh]
	 SCS Correlation Energy    =      -1.0568659938358762 [Eh]
	 SCS Total Energy          =    -248.1426197667209408 [Eh]
	-----------------------------------------------------------

  Dipole Moment: [D]
     X:    -0.9687      Y:    -3.5015      Z:    -0.0052     Total:     3.6331

*** Psi4 exiting successfully. Buy a developer a beer!
