                               Psi4 1.4a3.dev225

  ==> Input File <==

--------------------------------------------------------------------------
#psi4
#
memory 32 gb

molecule  {
-2 1
  P        1.2274490    -0.0222580     0.0433940
  O       -0.3905570    -0.3882050    -0.6807720
  O        2.1423100    -0.5208960    -1.0789140
  O        1.1898850    -0.8529840     1.3405840
  O        1.1572260     1.5080110     0.2493660
  C       -1.4846174    -0.0547310     0.2094691
  C       -1.9094950     1.3730130    -0.0649580
  C       -2.5698170    -1.0762850    -0.0636830
  H       -1.1173450    -0.1582630     1.2256300
  H       -2.7054590     1.6884420     0.6308980
  H       -1.0118930     1.9864150     0.0562940
  H       -2.2859860     1.4684620    -1.0931860
  H       -3.4570710    -0.8823980     0.5599660
  H       -2.1978010    -2.0840550     0.1452650
  H       -2.8699830    -1.0350880    -1.1185900
units angstrom
no_reorient  #important for SAPT in psi4, default
symmetry c1  #important for SAPT in psi4, default
}

set PROPERTIES_ORIGIN ["COM"]
properties('MP2/aug-cc-pvtz', properties = ['dipole'])
--------------------------------------------------------------------------

    Molecular point group: c1
  Charge       = -2
  Multiplicity = 1
  Basis Set: AUG-CC-PVTZ
    Blend: AUG-CC-PVTZ
  Basis Set: (AUG-CC-PVTZ AUX)
    Blend: AUG-CC-PVTZ-JKFIT

    Orbital Energies [Eh]
    ---------------------

    Doubly Occupied:

       1A    -79.672837     2A    -20.198979     3A    -20.117052
       4A    -20.116858     5A    -20.114621     6A    -10.979423
       7A    -10.963605     8A    -10.938046     9A     -7.187000
      10A     -5.086428    11A     -5.084036    12A     -5.083977
      13A     -0.998129    14A     -0.924355    15A     -0.858703
      16A     -0.858144    17A     -0.755574    18A     -0.669890
      19A     -0.503423    20A     -0.387519    21A     -0.338163
      22A     -0.316331    23A     -0.302703    24A     -0.279403
      25A     -0.243369    26A     -0.231284    27A     -0.225675
      28A     -0.190785    29A     -0.182111    30A     -0.161610
      31A     -0.117047    32A     -0.092989    33A     -0.090131
      34A     -0.080457    35A     -0.055516    36A     -0.048450
      37A     -0.025144

  @DF-RHF Final Energy:  -758.05817364106167

   => Energetics <=

    Nuclear Repulsion Energy =            502.8101176509550783
    One-Electron Energy =               -2072.7770498041763858
    Two-Electron Energy =                 811.9087585121595794
    Total Energy =                       -758.0581736410616713
  Basis Set: (AUG-CC-PVTZ AUX)
    Blend: AUG-CC-PVTZ-RI
    Molecular point group: c1

    Geometry (in Angstrom), charge = -2, multiplicity = 1:

       Center              X                  Y                   Z               Mass
    ------------   -----------------  -----------------  -----------------  -----------------
         P            1.109741676992    -0.016040029461     0.043332004183    30.973761998420
         O           -0.508264323008    -0.381987029461    -0.680833995817    15.994914619570
         O            2.024602676992    -0.514678029461    -1.078975995817    15.994914619570
         O            1.072177676992    -0.846766029461     1.340522004183    15.994914619570
         O            1.039518676992     1.514228970539     0.249304004183    15.994914619570
         C           -1.602324723008    -0.048513029461     0.209407104183    12.000000000000
         C           -2.027202323008     1.379230970539    -0.065019995817    12.000000000000
         C           -2.687524323008    -1.070067029461    -0.063744995817    12.000000000000
         H           -1.235052323008    -0.152045029461     1.225568004183     1.007825032230
         H           -2.823166323008     1.694659970539     0.630836004183     1.007825032230
         H           -1.129600323008     1.992632970539     0.056232004183     1.007825032230
         H           -2.403693323008     1.474679970539    -1.093247995817     1.007825032230
         H           -3.574778323008    -0.876180029461     0.559904004183     1.007825032230
         H           -2.315508323008    -2.077837029461     0.145203004183     1.007825032230
         H           -2.987690323008    -1.028870029461    -1.118651995817     1.007825032230

  Basis Set: AUG-CC-PVTZ
    Blend: AUG-CC-PVTZ
  Basis Set: (AUG-CC-PVTZ AUX)
    Blend: AUG-CC-PVTZ-JKFIT
	 Reference Energy          =    -758.0581736410616713 [Eh]
	 Singles Energy            =      -0.0000000000000000 [Eh]
	 Same-Spin Energy          =      -0.4698849000328555 [Eh]
	 Opposite-Spin Energy      =      -1.4040877123941551 [Eh]
	 Correlation Energy        =      -1.8739726124270106 [Eh]
	 Total Energy              =    -759.9321462534886678 [Eh]

	 ================> DF-SCS-MP2 Energies <==================
	-----------------------------------------------------------
	 SCS Same-Spin Scale       =       0.3333333333333333 [-]
	 SCS Opposite-Spin Scale   =       1.2000000000000000 [-]
	 SCS Same-Spin Energy      =      -0.1566283000109518 [Eh]
	 SCS Opposite-Spin Energy  =      -1.6849052548729861 [Eh]
	 SCS Correlation Energy    =      -1.8415335548839380 [Eh]
	 SCS Total Energy          =    -759.8997071959456662 [Eh]
	-----------------------------------------------------------

  Dipole Moment: [D]
     X:    -8.4611      Y:     0.1186      Z:     0.1062     Total:     8.4626

*** Psi4 exiting successfully. Buy a developer a beer!
