                               Psi4 1.4a3.dev225

  ==> Input File <==

--------------------------------------------------------------------------
#psi4
#
memory 32 gb

molecule  {
-2 1
  P        1.2274490    -0.0222580     0.0433940
  O       -0.3905570    -0.3882050    -0.6807720
  O        2.1423100    -0.5208960    -1.0789140
  O        1.1898850    -0.8529840     1.3405840
  O        1.1572260     1.5080110     0.2493660
  C       -1.5978444    -0.0202189     0.3016024
  C       -1.9094950     1.3730130    -0.0649580
  C       -2.5698170    -1.0762850    -0.0636830
  H       -1.1173450    -0.1582630     1.2256300
  H       -2.7054590     1.6884420     0.6308980
  H       -1.0118930     1.9864150     0.0562940
  H       -2.2859860     1.4684620    -1.0931860
  H       -3.4570710    -0.8823980     0.5599660
  H       -2.1978010    -2.0840550     0.1452650
  H       -2.8699830    -1.0350880    -1.1185900
units angstrom
no_reorient  #important for SAPT in psi4, default
symmetry c1  #important for SAPT in psi4, default
}

set PROPERTIES_ORIGIN ["COM"]
properties('MP2/aug-cc-pvtz', properties = ['dipole'])
--------------------------------------------------------------------------

    Molecular point group: c1
  Charge       = -2
  Multiplicity = 1
  Basis Set: AUG-CC-PVTZ
    Blend: AUG-CC-PVTZ
  Basis Set: (AUG-CC-PVTZ AUX)
    Blend: AUG-CC-PVTZ-JKFIT

    Orbital Energies [Eh]
    ---------------------

    Doubly Occupied:

       1A    -79.667137     2A    -20.189854     3A    -20.113211
       4A    -20.113103     5A    -20.110501     6A    -10.981387
       7A    -10.970012     8A    -10.944366     9A     -7.181184
      10A     -5.080504    11A     -5.078325    12A     -5.078274
      13A     -0.966812    14A     -0.907847    15A     -0.854633
      16A     -0.854291    17A     -0.771276    18A     -0.681470
      19A     -0.512711    20A     -0.378538    21A     -0.348389
      22A     -0.316110    23A     -0.301149    24A     -0.288019
      25A     -0.248223    26A     -0.234308    27A     -0.205283
      28A     -0.191299    29A     -0.185307    30A     -0.139979
      31A     -0.115633    32A     -0.088622    33A     -0.086153
      34A     -0.073020    35A     -0.049239    36A     -0.043692
      37A     -0.021485

  @DF-RHF Final Energy:  -758.02791881926260

   => Energetics <=

    Nuclear Repulsion Energy =            500.6492415734338124
    One-Electron Energy =               -2068.6116273324473696
    Two-Electron Energy =                 809.9344669397510188
    Total Energy =                       -758.0279188192625952
  Basis Set: (AUG-CC-PVTZ AUX)
    Blend: AUG-CC-PVTZ-RI
    Molecular point group: c1

    Geometry (in Angstrom), charge = -2, multiplicity = 1:

       Center              X                  Y                   Z               Mass
    ------------   -----------------  -----------------  -----------------  -----------------
         P            1.119586918378    -0.019040903415     0.035320888651    30.973761998420
         O           -0.498419081622    -0.384987903415    -0.688845111349    15.994914619570
         O            2.034447918378    -0.517678903415    -1.086987111349    15.994914619570
         O            1.082022918378    -0.849766903415     1.332510888651    15.994914619570
         O            1.049363918378     1.511228096585     0.241292888651    15.994914619570
         C           -1.705706481622    -0.017001803415     0.293529288651    12.000000000000
         C           -2.017357081622     1.376230096585    -0.073031111349    12.000000000000
         C           -2.677679081622    -1.073067903415    -0.071756111349    12.000000000000
         H           -1.225207081622    -0.155045903415     1.217556888651     1.007825032230
         H           -2.813321081622     1.691659096585     0.622824888651     1.007825032230
         H           -1.119755081622     1.989632096585     0.048220888651     1.007825032230
         H           -2.393848081622     1.471679096585    -1.101259111349     1.007825032230
         H           -3.564933081622    -0.879180903415     0.551892888651     1.007825032230
         H           -2.305663081622    -2.080837903415     0.137191888651     1.007825032230
         H           -2.977845081622    -1.031870903415    -1.126663111349     1.007825032230

  Basis Set: AUG-CC-PVTZ
    Blend: AUG-CC-PVTZ
  Basis Set: (AUG-CC-PVTZ AUX)
    Blend: AUG-CC-PVTZ-JKFIT
	 Reference Energy          =    -758.0279188192625952 [Eh]
	 Singles Energy            =      -0.0000000000000000 [Eh]
	 Same-Spin Energy          =      -0.4717990325050339 [Eh]
	 Opposite-Spin Energy      =      -1.4091429663820860 [Eh]
	 Correlation Energy        =      -1.8809419988871199 [Eh]
	 Total Energy              =    -759.9088608181497193 [Eh]

	 ================> DF-SCS-MP2 Energies <==================
	-----------------------------------------------------------
	 SCS Same-Spin Scale       =       0.3333333333333333 [-]
	 SCS Opposite-Spin Scale   =       1.2000000000000000 [-]
	 SCS Same-Spin Energy      =      -0.1572663441683446 [Eh]
	 SCS Opposite-Spin Energy  =      -1.6909715596585031 [Eh]
	 SCS Correlation Energy    =      -1.8482379038268477 [Eh]
	 SCS Total Energy          =    -759.8761567230894798 [Eh]
	-----------------------------------------------------------

  Dipole Moment: [D]
     X:    -8.9456      Y:     0.1867      Z:     0.2048     Total:     8.9499

*** Psi4 exiting successfully. Buy a developer a beer!
