                               Psi4 1.4a3.dev225

  ==> Input File <==

--------------------------------------------------------------------------
#psi4
#
memory 32 gb

molecule  {
-2 1
  P        1.2274490    -0.0222580     0.0433940
  O       -0.3905570    -0.3882050    -0.6807720
  O        2.0976207    -0.6692888    -1.0379653
  O        1.1898850    -0.8529840     1.3405840
  O        1.1572260     1.5080110     0.2493660
  C       -1.4468750    -0.0662350     0.1787580
  C       -1.9094950     1.3730130    -0.0649580
  C       -2.5698170    -1.0762850    -0.0636830
  H       -1.1173450    -0.1582630     1.2256300
  H       -2.7054590     1.6884420     0.6308980
  H       -1.0118930     1.9864150     0.0562940
  H       -2.2859860     1.4684620    -1.0931860
  H       -3.4570710    -0.8823980     0.5599660
  H       -2.1978010    -2.0840550     0.1452650
  H       -2.8699830    -1.0350880    -1.1185900
units angstrom
no_reorient  #important for SAPT in psi4, default
symmetry c1  #important for SAPT in psi4, default
}

set PROPERTIES_ORIGIN ["COM"]
properties('MP2/aug-cc-pvtz', properties = ['dipole'])
--------------------------------------------------------------------------

    Molecular point group: c1
  Charge       = -2
  Multiplicity = 1
  Basis Set: AUG-CC-PVTZ
    Blend: AUG-CC-PVTZ
  Basis Set: (AUG-CC-PVTZ AUX)
    Blend: AUG-CC-PVTZ-JKFIT

    Orbital Energies [Eh]
    ---------------------

    Doubly Occupied:

       1A    -79.675303     2A    -20.199798     3A    -20.128136
       4A    -20.115577     5A    -20.111281     6A    -10.978966
       7A    -10.960318     8A    -10.936143     9A     -7.189577
      10A     -5.089082    11A     -5.086685    12A     -5.086332
      13A     -1.013139    14A     -0.929146    15A     -0.867622
      16A     -0.853356    17A     -0.748777    18A     -0.665481
      19A     -0.499239    20A     -0.391209    21A     -0.334725
      22A     -0.317074    23A     -0.302699    24A     -0.276249
      25A     -0.243937    26A     -0.242182    27A     -0.224296
      28A     -0.191155    29A     -0.181222    30A     -0.160978
      31A     -0.114004    32A     -0.096139    33A     -0.091455
      34A     -0.081704    35A     -0.058454    36A     -0.048941
      37A     -0.025665

  @DF-RHF Final Energy:  -758.05780875812570

   => Energetics <=

    Nuclear Repulsion Energy =            503.8666816386104870
    One-Electron Energy =               -2074.8168853262945959
    Two-Electron Energy =                 812.8923949295583498
    Total Energy =                       -758.0578087581257023
  Basis Set: (AUG-CC-PVTZ AUX)
    Blend: AUG-CC-PVTZ-RI
    Molecular point group: c1

    Geometry (in Angstrom), charge = -2, multiplicity = 1:

       Center              X                  Y                   Z               Mass
    ------------   -----------------  -----------------  -----------------  -----------------
         P            1.111639337754     0.002158731514     0.041256491501    30.973761998420
         O           -0.506366662246    -0.363788268486    -0.682909508499    15.994914619570
         O            1.981811037754    -0.644872068486    -1.040102808499    15.994914619570
         O            1.074075337754    -0.828567268486     1.338446491501    15.994914619570
         O            1.041416337754     1.532427731514     0.247228491501    15.994914619570
         C           -1.562684662246    -0.041818268486     0.176620491501    12.000000000000
         C           -2.025304662246     1.397429731514    -0.067095508499    12.000000000000
         C           -2.685626662246    -1.051868268486    -0.065820508499    12.000000000000
         H           -1.233154662246    -0.133846268486     1.223492491501     1.007825032230
         H           -2.821268662246     1.712858731514     0.628760491501     1.007825032230
         H           -1.127702662246     2.010831731514     0.054156491501     1.007825032230
         H           -2.401795662246     1.492878731514    -1.095323508499     1.007825032230
         H           -3.572880662246    -0.857981268486     0.557828491501     1.007825032230
         H           -2.313610662246    -2.059638268486     0.143127491501     1.007825032230
         H           -2.985792662246    -1.010671268486    -1.120727508499     1.007825032230

  Basis Set: AUG-CC-PVTZ
    Blend: AUG-CC-PVTZ
  Basis Set: (AUG-CC-PVTZ AUX)
    Blend: AUG-CC-PVTZ-JKFIT
	 Reference Energy          =    -758.0578087581257023 [Eh]
	 Singles Energy            =      -0.0000000000000000 [Eh]
	 Same-Spin Energy          =      -0.4699645230836939 [Eh]
	 Opposite-Spin Energy      =      -1.4036521948116385 [Eh]
	 Correlation Energy        =      -1.8736167178953322 [Eh]
	 Total Energy              =    -759.9314254760209906 [Eh]

	 ================> DF-SCS-MP2 Energies <==================
	-----------------------------------------------------------
	 SCS Same-Spin Scale       =       0.3333333333333333 [-]
	 SCS Opposite-Spin Scale   =       1.2000000000000000 [-]
	 SCS Same-Spin Energy      =      -0.1566548410278980 [Eh]
	 SCS Opposite-Spin Energy  =      -1.6843826337739662 [Eh]
	 SCS Correlation Energy    =      -1.8410374748018641 [Eh]
	 SCS Total Energy          =    -759.8988462329275535 [Eh]
	-----------------------------------------------------------

  Dipole Moment: [D]
     X:    -8.1114      Y:     0.4666      Z:    -0.0590     Total:     8.1250

*** Psi4 exiting successfully. Buy a developer a beer!
