                               Psi4 1.4a3.dev225

  ==> Input File <==

--------------------------------------------------------------------------
#psi4
#
memory 32 gb

molecule  {
-2 1
  P        1.2274490    -0.0222580     0.0433940
  O       -0.3905570    -0.3882050    -0.6807720
  O        2.1550001    -0.4701355    -1.0898494
  O        1.1898850    -0.8529840     1.3405840
  O        1.1572260     1.5080110     0.2493660
  C       -1.4468750    -0.0662350     0.1787580
  C       -1.9094950     1.3730130    -0.0649580
  C       -2.5698170    -1.0762850    -0.0636830
  H       -1.1173450    -0.1582630     1.2256300
  H       -2.7054590     1.6884420     0.6308980
  H       -1.0118930     1.9864150     0.0562940
  H       -2.2859860     1.4684620    -1.0931860
  H       -3.4570710    -0.8823980     0.5599660
  H       -2.1978010    -2.0840550     0.1452650
  H       -2.8699830    -1.0350880    -1.1185900
units angstrom
no_reorient  #important for SAPT in psi4, default
symmetry c1  #important for SAPT in psi4, default
}

set PROPERTIES_ORIGIN ["COM"]
properties('MP2/aug-cc-pvtz', properties = ['dipole'])
--------------------------------------------------------------------------

    Molecular point group: c1
  Charge       = -2
  Multiplicity = 1
  Basis Set: AUG-CC-PVTZ
    Blend: AUG-CC-PVTZ
  Basis Set: (AUG-CC-PVTZ AUX)
    Blend: AUG-CC-PVTZ-JKFIT

    Orbital Energies [Eh]
    ---------------------

    Doubly Occupied:

       1A    -79.675114     2A    -20.203217     3A    -20.120691
       4A    -20.116386     5A    -20.115408     6A    -10.981057
       7A    -10.961919     8A    -10.935821     9A     -7.189329
      10A     -5.088786    11A     -5.086367    12A     -5.086218
      13A     -1.015164    14A     -0.929215    15A     -0.862106
      16A     -0.857233    17A     -0.750222    18A     -0.666063
      19A     -0.500792    20A     -0.392975    21A     -0.335639
      22A     -0.317659    23A     -0.303175    24A     -0.276851
      25A     -0.244257    26A     -0.243867    27A     -0.224924
      28A     -0.189757    29A     -0.182092    30A     -0.161858
      31A     -0.115606    32A     -0.094423    33A     -0.091985
      34A     -0.082580    35A     -0.058120    36A     -0.049121
      37A     -0.026064

  @DF-RHF Final Energy:  -758.06102950454476

   => Energetics <=

    Nuclear Repulsion Energy =            503.5002397509123853
    One-Electron Energy =               -2074.0584137429568727
    Two-Electron Energy =                 812.4971444874996678
    Total Energy =                       -758.0610295045447629
  Basis Set: (AUG-CC-PVTZ AUX)
    Blend: AUG-CC-PVTZ-RI
    Molecular point group: c1

    Geometry (in Angstrom), charge = -2, multiplicity = 1:

       Center              X                  Y                   Z               Mass
    ------------   -----------------  -----------------  -----------------  -----------------
         P            1.104989163109    -0.020922796460     0.047269770245    30.973761998420
         O           -0.513016836891    -0.386869796460    -0.676896229755    15.994914619570
         O            2.032540263109    -0.468800296460    -1.085973629755    15.994914619570
         O            1.067425163109    -0.851648796460     1.344459770245    15.994914619570
         O            1.034766163109     1.509346203540     0.253241770245    15.994914619570
         C           -1.569334836891    -0.064899796460     0.182633770245    12.000000000000
         C           -2.031954836891     1.374348203540    -0.061082229755    12.000000000000
         C           -2.692276836891    -1.074949796460    -0.059807229755    12.000000000000
         H           -1.239804836891    -0.156927796460     1.229505770245     1.007825032230
         H           -2.827918836891     1.689777203540     0.634773770245     1.007825032230
         H           -1.134352836891     1.987750203540     0.060169770245     1.007825032230
         H           -2.408445836891     1.469797203540    -1.089310229755     1.007825032230
         H           -3.579530836891    -0.881062796460     0.563841770245     1.007825032230
         H           -2.320260836891    -2.082719796460     0.149140770245     1.007825032230
         H           -2.992442836891    -1.033752796460    -1.114714229755     1.007825032230

  Basis Set: AUG-CC-PVTZ
    Blend: AUG-CC-PVTZ
  Basis Set: (AUG-CC-PVTZ AUX)
    Blend: AUG-CC-PVTZ-JKFIT
	 Reference Energy          =    -758.0610295045447629 [Eh]
	 Singles Energy            =      -0.0000000000000000 [Eh]
	 Same-Spin Energy          =      -0.4696583046562207 [Eh]
	 Opposite-Spin Energy      =      -1.4030903913120851 [Eh]
	 Correlation Energy        =      -1.8727486959683057 [Eh]
	 Total Energy              =    -759.9337782005130748 [Eh]

	 ================> DF-SCS-MP2 Energies <==================
	-----------------------------------------------------------
	 SCS Same-Spin Scale       =       0.3333333333333333 [-]
	 SCS Opposite-Spin Scale   =       1.2000000000000000 [-]
	 SCS Same-Spin Energy      =      -0.1565527682187402 [Eh]
	 SCS Opposite-Spin Energy  =      -1.6837084695745022 [Eh]
	 SCS Correlation Energy    =      -1.8402612377932424 [Eh]
	 SCS Total Energy          =    -759.9012907423380057 [Eh]
	-----------------------------------------------------------

  Dipole Moment: [D]
     X:    -8.2584      Y:    -0.0450      Z:     0.0900     Total:     8.2590

*** Psi4 exiting successfully. Buy a developer a beer!
