                               Psi4 1.4a3.dev225

  ==> Input File <==

--------------------------------------------------------------------------
#psi4
#
memory 32 gb

molecule  {
-2 1
  P        1.2274490    -0.0222580     0.0433940
  O       -0.4352521    -0.3983138    -0.7007760
  O        2.1423100    -0.5208960    -1.0789140
  O        1.1898850    -0.8529840     1.3405840
  O        1.1572260     1.5080110     0.2493660
  C       -1.4468750    -0.0662350     0.1787580
  C       -1.9094950     1.3730130    -0.0649580
  C       -2.5698170    -1.0762850    -0.0636830
  H       -1.1173450    -0.1582630     1.2256300
  H       -2.7054590     1.6884420     0.6308980
  H       -1.0118930     1.9864150     0.0562940
  H       -2.2859860     1.4684620    -1.0931860
  H       -3.4570710    -0.8823980     0.5599660
  H       -2.1978010    -2.0840550     0.1452650
  H       -2.8699830    -1.0350880    -1.1185900
units angstrom
no_reorient  #important for SAPT in psi4, default
symmetry c1  #important for SAPT in psi4, default
}

set PROPERTIES_ORIGIN ["COM"]
properties('MP2/aug-cc-pvtz', properties = ['dipole'])
--------------------------------------------------------------------------

    Molecular point group: c1
  Charge       = -2
  Multiplicity = 1
  Basis Set: AUG-CC-PVTZ
    Blend: AUG-CC-PVTZ
  Basis Set: (AUG-CC-PVTZ AUX)
    Blend: AUG-CC-PVTZ-JKFIT

    Orbital Energies [Eh]
    ---------------------

    Doubly Occupied:

       1A    -79.680375     2A    -20.199622     3A    -20.123356
       4A    -20.123129     5A    -20.120545     6A    -10.976347
       7A    -10.957411     8A    -10.933419     9A     -7.194431
      10A     -5.093888    11A     -5.091315    12A     -5.091268
      13A     -1.014053    14A     -0.934443    15A     -0.864021
      16A     -0.863598    17A     -0.744228    18A     -0.663544
      19A     -0.496238    20A     -0.390194    21A     -0.332784
      22A     -0.316079    23A     -0.302944    24A     -0.274199
      25A     -0.243064    26A     -0.240727    27A     -0.223528
      28A     -0.191708    29A     -0.185609    30A     -0.162428
      31A     -0.111122    32A     -0.098136    33A     -0.095135
      34A     -0.081857    35A     -0.061518    36A     -0.053854
      37A     -0.030617

  @DF-RHF Final Energy:  -758.05763789008017

   => Energetics <=

    Nuclear Repulsion Energy =            502.5791735202568589
    One-Electron Energy =               -2072.1521573504423941
    Two-Electron Energy =                 811.5153459401052487
    Total Energy =                       -758.0576378900801728
  Basis Set: (AUG-CC-PVTZ AUX)
    Blend: AUG-CC-PVTZ-RI
    Molecular point group: c1

    Geometry (in Angstrom), charge = -2, multiplicity = 1:

       Center              X                  Y                   Z               Mass
    ------------   -----------------  -----------------  -----------------  -----------------
         P            1.111640009964    -0.013868148353     0.048320805525    30.973761998420
         O           -0.551061090036    -0.389923948353    -0.695849194475    15.994914619570
         O            2.026501009964    -0.512506148353    -1.073987194475    15.994914619570
         O            1.074076009964    -0.844594148353     1.345510805525    15.994914619570
         O            1.041417009964     1.516400851647     0.254292805525    15.994914619570
         C           -1.562683990036    -0.057845148353     0.183684805525    12.000000000000
         C           -2.025303990036     1.381402851647    -0.060031194475    12.000000000000
         C           -2.685625990036    -1.067895148353    -0.058756194475    12.000000000000
         H           -1.233153990036    -0.149873148353     1.230556805525     1.007825032230
         H           -2.821267990036     1.696831851647     0.635824805525     1.007825032230
         H           -1.127701990036     1.994804851647     0.061220805525     1.007825032230
         H           -2.401794990036     1.476851851647    -1.088259194475     1.007825032230
         H           -3.572879990036    -0.874008148353     0.564892805525     1.007825032230
         H           -2.313609990036    -2.075665148353     0.150191805525     1.007825032230
         H           -2.985791990036    -1.026698148353    -1.113663194475     1.007825032230

  Basis Set: AUG-CC-PVTZ
    Blend: AUG-CC-PVTZ
  Basis Set: (AUG-CC-PVTZ AUX)
    Blend: AUG-CC-PVTZ-JKFIT
	 Reference Energy          =    -758.0576378900801728 [Eh]
	 Singles Energy            =      -0.0000000000000000 [Eh]
	 Same-Spin Energy          =      -0.4702527902900660 [Eh]
	 Opposite-Spin Energy      =      -1.4042425107613297 [Eh]
	 Correlation Energy        =      -1.8744953010513956 [Eh]
	 Total Energy              =    -759.9321331911315838 [Eh]

	 ================> DF-SCS-MP2 Energies <==================
	-----------------------------------------------------------
	 SCS Same-Spin Scale       =       0.3333333333333333 [-]
	 SCS Opposite-Spin Scale   =       1.2000000000000000 [-]
	 SCS Same-Spin Energy      =      -0.1567509300966887 [Eh]
	 SCS Opposite-Spin Energy  =      -1.6850910129135956 [Eh]
	 SCS Correlation Energy    =      -1.8418419430102844 [Eh]
	 SCS Total Energy          =    -759.8994798330904814 [Eh]
	-----------------------------------------------------------

  Dipole Moment: [D]
     X:    -7.8420      Y:     0.1262      Z:     0.1202     Total:     7.8440

*** Psi4 exiting successfully. Buy a developer a beer!
