                               Psi4 1.4a3.dev225

  ==> Input File <==

--------------------------------------------------------------------------
#psi4
#
memory 32 gb

molecule  {
-2 1
  P        1.2274490    -0.0222580     0.0433940
  O       -0.4273364    -0.2028230    -0.6674918
  O        2.1423100    -0.5208960    -1.0789140
  O        1.1898850    -0.8529840     1.3405840
  O        1.1572260     1.5080110     0.2493660
  C       -1.4468750    -0.0662350     0.1787580
  C       -1.9094950     1.3730130    -0.0649580
  C       -2.5698170    -1.0762850    -0.0636830
  H       -1.1173450    -0.1582630     1.2256300
  H       -2.7054590     1.6884420     0.6308980
  H       -1.0118930     1.9864150     0.0562940
  H       -2.2859860     1.4684620    -1.0931860
  H       -3.4570710    -0.8823980     0.5599660
  H       -2.1978010    -2.0840550     0.1452650
  H       -2.8699830    -1.0350880    -1.1185900
units angstrom
no_reorient  #important for SAPT in psi4, default
symmetry c1  #important for SAPT in psi4, default
}

set PROPERTIES_ORIGIN ["COM"]
properties('MP2/aug-cc-pvtz', properties = ['dipole'])
--------------------------------------------------------------------------

    Molecular point group: c1
  Charge       = -2
  Multiplicity = 1
  Basis Set: AUG-CC-PVTZ
    Blend: AUG-CC-PVTZ
  Basis Set: (AUG-CC-PVTZ AUX)
    Blend: AUG-CC-PVTZ-JKFIT

    Orbital Energies [Eh]
    ---------------------

    Doubly Occupied:

       1A    -79.678401     2A    -20.196814     3A    -20.124762
       4A    -20.122619     5A    -20.112299     6A    -10.975079
       7A    -10.961263     8A    -10.926993     9A     -7.192538
      10A     -5.092071    11A     -5.089546    12A     -5.089352
      13A     -1.039839    14A     -0.934999    15A     -0.865404
      16A     -0.858302    17A     -0.744702    18A     -0.662001
      19A     -0.499608    20A     -0.404196    21A     -0.333530
      22A     -0.324298    23A     -0.302497    24A     -0.274983
      25A     -0.254413    26A     -0.244889    27A     -0.224947
      28A     -0.188447    29A     -0.186432    30A     -0.155235
      31A     -0.111354    32A     -0.095993    33A     -0.093594
      34A     -0.083459    35A     -0.062903    36A     -0.045046
      37A     -0.028112

  @DF-RHF Final Energy:  -758.05422187959709

   => Energetics <=

    Nuclear Repulsion Energy =            505.4310670998442561
    One-Electron Energy =               -2077.8087376982234673
    Two-Electron Energy =                 814.3234487187820605
    Total Energy =                       -758.0542218795970939
  Basis Set: (AUG-CC-PVTZ AUX)
    Blend: AUG-CC-PVTZ-RI
    Molecular point group: c1

    Geometry (in Angstrom), charge = -2, multiplicity = 1:

       Center              X                  Y                   Z               Mass
    ------------   -----------------  -----------------  -----------------  -----------------
         P            1.110722593828    -0.036525198821     0.044463223485    30.973761998420
         O           -0.544062806172    -0.217090198821    -0.666422576515    15.994914619570
         O            2.025583593828    -0.535163198821    -1.077844776515    15.994914619570
         O            1.073158593828    -0.867251198821     1.341653223485    15.994914619570
         O            1.040499593828     1.493743801179     0.250435223485    15.994914619570
         C           -1.563601406172    -0.080502198821     0.179827223485    12.000000000000
         C           -2.026221406172     1.358745801179    -0.063888776515    12.000000000000
         C           -2.686543406172    -1.090552198821    -0.062613776515    12.000000000000
         H           -1.234071406172    -0.172530198821     1.226699223485     1.007825032230
         H           -2.822185406172     1.674174801179     0.631967223485     1.007825032230
         H           -1.128619406172     1.972147801179     0.057363223485     1.007825032230
         H           -2.402712406172     1.454194801179    -1.092116776515     1.007825032230
         H           -3.573797406172    -0.896665198821     0.561035223485     1.007825032230
         H           -2.314527406172    -2.098322198821     0.146334223485     1.007825032230
         H           -2.986709406172    -1.049355198821    -1.117520776515     1.007825032230

  Basis Set: AUG-CC-PVTZ
    Blend: AUG-CC-PVTZ
  Basis Set: (AUG-CC-PVTZ AUX)
    Blend: AUG-CC-PVTZ-JKFIT
	 Reference Energy          =    -758.0542218795970939 [Eh]
	 Singles Energy            =      -0.0000000000000000 [Eh]
	 Same-Spin Energy          =      -0.4697885639629840 [Eh]
	 Opposite-Spin Energy      =      -1.4019338091420905 [Eh]
	 Correlation Energy        =      -1.8717223731050745 [Eh]
	 Total Energy              =    -759.9259442527021520 [Eh]

	 ================> DF-SCS-MP2 Energies <==================
	-----------------------------------------------------------
	 SCS Same-Spin Scale       =       0.3333333333333333 [-]
	 SCS Opposite-Spin Scale   =       1.2000000000000000 [-]
	 SCS Same-Spin Energy      =      -0.1565961879876613 [Eh]
	 SCS Opposite-Spin Energy  =      -1.6823205709705087 [Eh]
	 SCS Correlation Energy    =      -1.8389167589581701 [Eh]
	 SCS Total Energy          =    -759.8931386385552287 [Eh]
	-----------------------------------------------------------

  Dipole Moment: [D]
     X:    -7.8772      Y:    -0.2805      Z:    -0.0329     Total:     7.8822

*** Psi4 exiting successfully. Buy a developer a beer!
