                               Psi4 1.4a3.dev225

  ==> Input File <==

--------------------------------------------------------------------------
#psi4
#
memory 32 gb

molecule  {
-2 1
  P        1.2274490    -0.0222580     0.0433940
  O       -0.3826899    -0.4187665    -0.6822167
  O        2.1423100    -0.5208960    -1.0789140
  O        1.1898850    -0.8529840     1.3405840
  O        1.1572260     1.5080110     0.2493660
  C       -1.4468750    -0.0662350     0.1787580
  C       -1.9094950     1.3730130    -0.0649580
  C       -2.5698170    -1.0762850    -0.0636830
  H       -1.1173450    -0.1582630     1.2256300
  H       -2.7054590     1.6884420     0.6308980
  H       -1.0118930     1.9864150     0.0562940
  H       -2.2859860     1.4684620    -1.0931860
  H       -3.4570710    -0.8823980     0.5599660
  H       -2.1978010    -2.0840550     0.1452650
  H       -2.8699830    -1.0350880    -1.1185900
units angstrom
no_reorient  #important for SAPT in psi4, default
symmetry c1  #important for SAPT in psi4, default
}

set PROPERTIES_ORIGIN ["COM"]
properties('MP2/aug-cc-pvtz', properties = ['dipole'])
--------------------------------------------------------------------------

    Molecular point group: c1
  Charge       = -2
  Multiplicity = 1
  Basis Set: AUG-CC-PVTZ
    Blend: AUG-CC-PVTZ
  Basis Set: (AUG-CC-PVTZ AUX)
    Blend: AUG-CC-PVTZ-JKFIT

    Orbital Energies [Eh]
    ---------------------

    Doubly Occupied:

       1A    -79.674597     2A    -20.203337     3A    -20.119764
       4A    -20.117319     5A    -20.115216     6A    -10.981634
       7A    -10.961690     8A    -10.937539     9A     -7.188837
      10A     -5.088302    11A     -5.085831    12A     -5.085772
      13A     -1.010224    14A     -0.927906    15A     -0.860229
      16A     -0.859216    17A     -0.750944    18A     -0.666567
      19A     -0.500658    20A     -0.390367    21A     -0.335779
      22A     -0.317011    23A     -0.302933    24A     -0.277218
      25A     -0.243608    26A     -0.241408    27A     -0.224396
      28A     -0.189845    29A     -0.181627    30A     -0.162799
      31A     -0.116322    32A     -0.094157    33A     -0.091263
      34A     -0.082347    35A     -0.056765    36A     -0.050402
      37A     -0.026323

  @DF-RHF Final Energy:  -758.06025381606423

   => Energetics <=

    Nuclear Repulsion Energy =            503.2253754001333732
    One-Electron Energy =               -2073.5309629757366565
    Two-Electron Energy =                 812.2453337595391076
    Total Energy =                       -758.0602538160642325
  Basis Set: (AUG-CC-PVTZ AUX)
    Blend: AUG-CC-PVTZ-RI
    Molecular point group: c1

    Geometry (in Angstrom), charge = -2, multiplicity = 1:

       Center              X                  Y                   Z               Mass
    ------------   -----------------  -----------------  -----------------  -----------------
         P            1.105548140587    -0.011497715289     0.046169814293    30.973761998420
         O           -0.504590759413    -0.408006215289    -0.679440885707    15.994914619570
         O            2.020409140587    -0.510135715289    -1.076138185707    15.994914619570
         O            1.067984140587    -0.842223715289     1.343359814293    15.994914619570
         O            1.035325140587     1.518771284711     0.252141814293    15.994914619570
         C           -1.568775859413    -0.055474715289     0.181533814293    12.000000000000
         C           -2.031395859413     1.383773284711    -0.062182185707    12.000000000000
         C           -2.691717859413    -1.065524715289    -0.060907185707    12.000000000000
         H           -1.239245859413    -0.147502715289     1.228405814293     1.007825032230
         H           -2.827359859413     1.699202284711     0.633673814293     1.007825032230
         H           -1.133793859413     1.997175284711     0.059069814293     1.007825032230
         H           -2.407886859413     1.479222284711    -1.090410185707     1.007825032230
         H           -3.578971859413    -0.871637715289     0.562741814293     1.007825032230
         H           -2.319701859413    -2.073294715289     0.148040814293     1.007825032230
         H           -2.991883859413    -1.024327715289    -1.115814185707     1.007825032230

  Basis Set: AUG-CC-PVTZ
    Blend: AUG-CC-PVTZ
  Basis Set: (AUG-CC-PVTZ AUX)
    Blend: AUG-CC-PVTZ-JKFIT
	 Reference Energy          =    -758.0602538160642325 [Eh]
	 Singles Energy            =      -0.0000000000000000 [Eh]
	 Same-Spin Energy          =      -0.4697689461454051 [Eh]
	 Opposite-Spin Energy      =      -1.4035682706441341 [Eh]
	 Correlation Energy        =      -1.8733372167895392 [Eh]
	 Total Energy              =    -759.9335910328537693 [Eh]

	 ================> DF-SCS-MP2 Energies <==================
	-----------------------------------------------------------
	 SCS Same-Spin Scale       =       0.3333333333333333 [-]
	 SCS Opposite-Spin Scale   =       1.2000000000000000 [-]
	 SCS Same-Spin Energy      =      -0.1565896487151350 [Eh]
	 SCS Opposite-Spin Energy  =      -1.6842819247729610 [Eh]
	 SCS Correlation Energy    =      -1.8408715734880960 [Eh]
	 SCS Total Energy          =    -759.9011253895523623 [Eh]
	-----------------------------------------------------------

  Dipole Moment: [D]
     X:    -8.2837      Y:     0.1464      Z:     0.0701     Total:     8.2853

*** Psi4 exiting successfully. Buy a developer a beer!
