                               Psi4 1.4a3.dev225

  ==> Input File <==

--------------------------------------------------------------------------
#psi4
#
memory 32 gb

molecule  {
-2 1
  P        1.2274490    -0.0222580     0.0433940
  O       -0.3726790    -0.3841615    -0.6727704
  O        2.1423100    -0.5208960    -1.0789140
  O        1.1898850    -0.8529840     1.3405840
  O        1.1572260     1.5080110     0.2493660
  C       -1.4468750    -0.0662350     0.1787580
  C       -1.9094950     1.3730130    -0.0649580
  C       -2.5698170    -1.0762850    -0.0636830
  H       -1.1173450    -0.1582630     1.2256300
  H       -2.7054590     1.6884420     0.6308980
  H       -1.0118930     1.9864150     0.0562940
  H       -2.2859860     1.4684620    -1.0931860
  H       -3.4570710    -0.8823980     0.5599660
  H       -2.1978010    -2.0840550     0.1452650
  H       -2.8699830    -1.0350880    -1.1185900
units angstrom
no_reorient  #important for SAPT in psi4, default
symmetry c1  #important for SAPT in psi4, default
}

set PROPERTIES_ORIGIN ["COM"]
properties('MP2/aug-cc-pvtz', properties = ['dipole'])
--------------------------------------------------------------------------

    Molecular point group: c1
  Charge       = -2
  Multiplicity = 1
  Basis Set: AUG-CC-PVTZ
    Blend: AUG-CC-PVTZ
  Basis Set: (AUG-CC-PVTZ AUX)
    Blend: AUG-CC-PVTZ-JKFIT

    Orbital Energies [Eh]
    ---------------------

    Doubly Occupied:

       1A    -79.672982     2A    -20.203342     3A    -20.116855
       4A    -20.116503     5A    -20.114627     6A    -10.982332
       7A    -10.963206     8A    -10.936969     9A     -7.187299
      10A     -5.086784    11A     -5.084327    12A     -5.084259
      13A     -1.015135    14A     -0.926960    15A     -0.858945
      16A     -0.858191    17A     -0.752182    18A     -0.666934
      19A     -0.502195    20A     -0.393449    21A     -0.336577
      22A     -0.318110    23A     -0.303286    24A     -0.277722
      25A     -0.244780    26A     -0.244302    27A     -0.225342
      28A     -0.189089    29A     -0.181311    30A     -0.161230
      31A     -0.116696    32A     -0.093319    33A     -0.090421
      34A     -0.082755    35A     -0.055880    36A     -0.048587
      37A     -0.025074

  @DF-RHF Final Energy:  -758.06207946931977

   => Energetics <=

    Nuclear Repulsion Energy =            503.9714835479425119
    One-Electron Energy =               -2075.0312106551068609
    Two-Electron Energy =                 812.9976476378444659
    Total Energy =                       -758.0620794693197695
  Basis Set: (AUG-CC-PVTZ AUX)
    Blend: AUG-CC-PVTZ-RI
    Molecular point group: c1

    Geometry (in Angstrom), charge = -2, multiplicity = 1:

       Center              X                  Y                   Z               Mass
    ------------   -----------------  -----------------  -----------------  -----------------
         P            1.104387894343    -0.015508375798     0.045075004227    30.973761998420
         O           -0.495740105657    -0.377411875798    -0.671089395773    15.994914619570
         O            2.019248894343    -0.514146375798    -1.077232995773    15.994914619570
         O            1.066823894343    -0.846234375798     1.342265004227    15.994914619570
         O            1.034164894343     1.514760624202     0.251047004227    15.994914619570
         C           -1.569936105657    -0.059485375798     0.180439004227    12.000000000000
         C           -2.032556105657     1.379762624202    -0.063276995773    12.000000000000
         C           -2.692878105657    -1.069535375798    -0.062001995773    12.000000000000
         H           -1.240406105657    -0.151513375798     1.227311004227     1.007825032230
         H           -2.828520105657     1.695191624202     0.632579004227     1.007825032230
         H           -1.134954105657     1.993164624202     0.057975004227     1.007825032230
         H           -2.409047105657     1.475211624202    -1.091504995773     1.007825032230
         H           -3.580132105657    -0.875648375798     0.561647004227     1.007825032230
         H           -2.320862105657    -2.077305375798     0.146946004227     1.007825032230
         H           -2.993044105657    -1.028338375798    -1.116908995773     1.007825032230

  Basis Set: AUG-CC-PVTZ
    Blend: AUG-CC-PVTZ
  Basis Set: (AUG-CC-PVTZ AUX)
    Blend: AUG-CC-PVTZ-JKFIT
	 Reference Energy          =    -758.0620794693197695 [Eh]
	 Singles Energy            =      -0.0000000000000000 [Eh]
	 Same-Spin Energy          =      -0.4694691080859625 [Eh]
	 Opposite-Spin Energy      =      -1.4027081349952444 [Eh]
	 Correlation Energy        =      -1.8721772430812069 [Eh]
	 Total Energy              =    -759.9342567124009520 [Eh]

	 ================> DF-SCS-MP2 Energies <==================
	-----------------------------------------------------------
	 SCS Same-Spin Scale       =       0.3333333333333333 [-]
	 SCS Opposite-Spin Scale   =       1.2000000000000000 [-]
	 SCS Same-Spin Energy      =      -0.1564897026953208 [Eh]
	 SCS Opposite-Spin Energy  =      -1.6832497619942932 [Eh]
	 SCS Correlation Energy    =      -1.8397394646896141 [Eh]
	 SCS Total Energy          =    -759.9018189340093841 [Eh]
	-----------------------------------------------------------

  Dipole Moment: [D]
     X:    -8.3792      Y:     0.0698      Z:     0.0312     Total:     8.3795

*** Psi4 exiting successfully. Buy a developer a beer!
