                               Psi4 1.4a3.dev225

  ==> Input File <==

--------------------------------------------------------------------------
#psi4
#
memory 32 gb

molecule  {
-2 1
  P        1.2274490    -0.0222580     0.0433940
  O       -0.3905570    -0.3882050    -0.6807720
  O        2.1423100    -0.5208960    -1.0789140
  O        1.1898850    -0.8529840     1.3405840
  O        1.1572260     1.5080110     0.2493660
  C       -1.4468750    -0.0662350     0.1787580
  C       -1.9094950     1.3730130    -0.0649580
  C       -2.5698170    -1.0762850    -0.0636830
  H       -1.1173450    -0.1582630     1.2256300
  H       -2.7054590     1.6884420     0.6308980
  H       -1.0118930     1.9864150     0.0562940
  H       -2.2859860     1.4684620    -1.0931860
  H       -3.4570710    -0.8823980     0.5599660
  H       -2.1638075    -2.1761414     0.1643579
  H       -2.8699830    -1.0350880    -1.1185900
units angstrom
no_reorient  #important for SAPT in psi4, default
symmetry c1  #important for SAPT in psi4, default
}

set PROPERTIES_ORIGIN ["COM"]
properties('MP2/aug-cc-pvtz', properties = ['dipole'])
--------------------------------------------------------------------------

    Molecular point group: c1
  Charge       = -2
  Multiplicity = 1
  Basis Set: AUG-CC-PVTZ
    Blend: AUG-CC-PVTZ
  Basis Set: (AUG-CC-PVTZ AUX)
    Blend: AUG-CC-PVTZ-JKFIT

    Orbital Energies [Eh]
    ---------------------

    Doubly Occupied:

       1A    -79.675350     2A    -20.202664     3A    -20.119019
       4A    -20.118478     5A    -20.116467     6A    -10.981964
       7A    -10.974138     8A    -10.937444     9A     -7.189569
      10A     -5.089042    11A     -5.086557    12A     -5.086496
      13A     -1.015009    14A     -0.929332    15A     -0.860563
      16A     -0.859913    17A     -0.748268    18A     -0.661644
      19A     -0.499899    20A     -0.393123    21A     -0.325599
      22A     -0.318701    23A     -0.302223    24A     -0.276936
      25A     -0.244627    26A     -0.241804    27A     -0.220808
      28A     -0.189035    29A     -0.182757    30A     -0.162332
      31A     -0.115690    32A     -0.094897    33A     -0.091926
      34A     -0.082975    35A     -0.057697    36A     -0.050441
      37A     -0.026829

  @DF-RHF Final Energy:  -758.05493568490886

   => Energetics <=

    Nuclear Repulsion Energy =            503.1639763967743875
    One-Electron Energy =               -2073.3773845532659834
    Two-Electron Energy =                 812.1584724715827406
    Total Energy =                       -758.0549356849088554
  Basis Set: (AUG-CC-PVTZ AUX)
    Blend: AUG-CC-PVTZ-RI
    Molecular point group: c1

    Geometry (in Angstrom), charge = -2, multiplicity = 1:

       Center              X                  Y                   Z               Mass
    ------------   -----------------  -----------------  -----------------  -----------------
         P            1.106211681561    -0.014367266638     0.045862947332    30.973761998420
         O           -0.511794318439    -0.380314266638    -0.678303052668    15.994914619570
         O            2.021072681561    -0.513005266638    -1.076445052668    15.994914619570
         O            1.068647681561    -0.845093266638     1.343052947332    15.994914619570
         O            1.035988681561     1.515901733362     0.251834947332    15.994914619570
         C           -1.568112318439    -0.058344266638     0.181226947332    12.000000000000
         C           -2.030732318439     1.380903733362    -0.062489052668    12.000000000000
         C           -2.691054318439    -1.068394266638    -0.061214052668    12.000000000000
         H           -1.238582318439    -0.150372266638     1.228098947332     1.007825032230
         H           -2.826696318439     1.696332733362     0.633366947332     1.007825032230
         H           -1.133130318439     1.994305733362     0.058762947332     1.007825032230
         H           -2.407223318439     1.476352733362    -1.090717052668     1.007825032230
         H           -3.578308318439    -0.874507266638     0.562434947332     1.007825032230
         H           -2.285044818439    -2.168250666638     0.166826847332     1.007825032230
         H           -2.991220318439    -1.027197266638    -1.116121052668     1.007825032230

  Basis Set: AUG-CC-PVTZ
    Blend: AUG-CC-PVTZ
  Basis Set: (AUG-CC-PVTZ AUX)
    Blend: AUG-CC-PVTZ-JKFIT
	 Reference Energy          =    -758.0549356849088554 [Eh]
	 Singles Energy            =      -0.0000000000000000 [Eh]
	 Same-Spin Energy          =      -0.4696539535289697 [Eh]
	 Opposite-Spin Energy      =      -1.4038068041401546 [Eh]
	 Correlation Energy        =      -1.8734607576691242 [Eh]
	 Total Energy              =    -759.9283964425779914 [Eh]

	 ================> DF-SCS-MP2 Energies <==================
	-----------------------------------------------------------
	 SCS Same-Spin Scale       =       0.3333333333333333 [-]
	 SCS Opposite-Spin Scale   =       1.2000000000000000 [-]
	 SCS Same-Spin Energy      =      -0.1565513178429899 [Eh]
	 SCS Opposite-Spin Energy  =      -1.6845681649681854 [Eh]
	 SCS Correlation Energy    =      -1.8411194828111752 [Eh]
	 SCS Total Energy          =    -759.8960551677200783 [Eh]
	-----------------------------------------------------------

  Dipole Moment: [D]
     X:    -8.2108      Y:     0.1889      Z:     0.0433     Total:     8.2131

*** Psi4 exiting successfully. Buy a developer a beer!
