                               Psi4 1.4a3.dev225

  ==> Input File <==

--------------------------------------------------------------------------
#psi4
#
memory 32 gb

molecule  {
-2 1
  P        1.2274490    -0.0222580     0.0433940
  O       -0.3905570    -0.3882050    -0.6807720
  O        2.1423100    -0.5208960    -1.0789140
  O        1.1898850    -0.8529840     1.3405840
  O        1.1572260     1.5080110     0.2493660
  C       -1.4468750    -0.0662350     0.1787580
  C       -1.9094950     1.3730130    -0.0649580
  C       -2.5698170    -1.0762850    -0.0636830
  H       -1.1173450    -0.1582630     1.2256300
  H       -2.7054590     1.6884420     0.6308980
  H       -1.0118930     1.9864150     0.0562940
  H       -2.2859860     1.4684620    -1.0931860
  H       -3.4676603    -0.8805346     0.5440250
  H       -2.1978010    -2.0840550     0.1452650
  H       -2.8699830    -1.0350880    -1.1185900
units angstrom
no_reorient  #important for SAPT in psi4, default
symmetry c1  #important for SAPT in psi4, default
}

set PROPERTIES_ORIGIN ["COM"]
properties('MP2/aug-cc-pvtz', properties = ['dipole'])
--------------------------------------------------------------------------

    Molecular point group: c1
  Charge       = -2
  Multiplicity = 1
  Basis Set: AUG-CC-PVTZ
    Blend: AUG-CC-PVTZ
  Basis Set: (AUG-CC-PVTZ AUX)
    Blend: AUG-CC-PVTZ-JKFIT

    Orbital Energies [Eh]
    ---------------------

    Doubly Occupied:

       1A    -79.675190     2A    -20.202488     3A    -20.118739
       4A    -20.118422     5A    -20.116355     6A    -10.980678
       7A    -10.961554     8A    -10.935938     9A     -7.189409
      10A     -5.088882    11A     -5.086399    12A     -5.086337
      13A     -1.014728    14A     -0.929168    15A     -0.860421
      16A     -0.859757    17A     -0.749837    18A     -0.665975
      19A     -0.500741    20A     -0.392264    21A     -0.335825
      22A     -0.317804    23A     -0.302806    24A     -0.275833
      25A     -0.244183    26A     -0.243907    27A     -0.224812
      28A     -0.189754    29A     -0.182468    30A     -0.161674
      31A     -0.115197    32A     -0.094733    33A     -0.091799
      34A     -0.082719    35A     -0.057573    36A     -0.050190
      37A     -0.026682

  @DF-RHF Final Energy:  -758.06116636733361

   => Energetics <=

    Nuclear Repulsion Energy =            503.5499694635625474
    One-Electron Energy =               -2074.1597962934420138
    Two-Electron Energy =                 812.5486604625458540
    Total Energy =                       -758.0611663673336125
  Basis Set: (AUG-CC-PVTZ AUX)
    Blend: AUG-CC-PVTZ-RI
    Molecular point group: c1

    Geometry (in Angstrom), charge = -2, multiplicity = 1:

       Center              X                  Y                   Z               Mass
    ------------   -----------------  -----------------  -----------------  -----------------
         P            1.106537253978    -0.015053348792     0.046118787510    30.973761998420
         O           -0.511468746022    -0.381000348792    -0.678047212490    15.994914619570
         O            2.021398253978    -0.513691348792    -1.076189212490    15.994914619570
         O            1.068973253978    -0.845779348792     1.343308787510    15.994914619570
         O            1.036314253978     1.515215651208     0.252090787510    15.994914619570
         C           -1.567786746022    -0.059030348792     0.181482787510    12.000000000000
         C           -2.030406746022     1.380217651208    -0.062233212490    12.000000000000
         C           -2.690728746022    -1.069080348792    -0.060958212490    12.000000000000
         H           -1.238256746022    -0.151058348792     1.228354787510     1.007825032230
         H           -2.826370746022     1.695646651208     0.633622787510     1.007825032230
         H           -1.132804746022     1.993619651208     0.059018787510     1.007825032230
         H           -2.406897746022     1.475666651208    -1.090461212490     1.007825032230
         H           -3.588572046022    -0.873329948792     0.546749787510     1.007825032230
         H           -2.318712746022    -2.076850348792     0.147989787510     1.007825032230
         H           -2.990894746022    -1.027883348792    -1.115865212490     1.007825032230

  Basis Set: AUG-CC-PVTZ
    Blend: AUG-CC-PVTZ
  Basis Set: (AUG-CC-PVTZ AUX)
    Blend: AUG-CC-PVTZ-JKFIT
	 Reference Energy          =    -758.0611663673336125 [Eh]
	 Singles Energy            =      -0.0000000000000000 [Eh]
	 Same-Spin Energy          =      -0.4696807245125609 [Eh]
	 Opposite-Spin Energy      =      -1.4031273625065031 [Eh]
	 Correlation Energy        =      -1.8728080870190640 [Eh]
	 Total Energy              =    -759.9339744543526649 [Eh]

	 ================> DF-SCS-MP2 Energies <==================
	-----------------------------------------------------------
	 SCS Same-Spin Scale       =       0.3333333333333333 [-]
	 SCS Opposite-Spin Scale   =       1.2000000000000000 [-]
	 SCS Same-Spin Energy      =      -0.1565602415041870 [Eh]
	 SCS Opposite-Spin Energy  =      -1.6837528350078037 [Eh]
	 SCS Correlation Energy    =      -1.8403130765119906 [Eh]
	 SCS Total Energy          =    -759.9014794438455738 [Eh]
	-----------------------------------------------------------

  Dipole Moment: [D]
     X:    -8.2274      Y:     0.0876      Z:     0.0543     Total:     8.2281

*** Psi4 exiting successfully. Buy a developer a beer!
