                               Psi4 1.4a3.dev225

  ==> Input File <==

--------------------------------------------------------------------------
#psi4
#
memory 32 gb

molecule  {
-2 1
  P        1.2274490    -0.0222580     0.0433940
  O       -0.3905570    -0.3882050    -0.6807720
  O        2.1423100    -0.5208960    -1.0789140
  O        1.1898850    -0.8529840     1.3405840
  O        1.1572260     1.5080110     0.2493660
  C       -1.4468750    -0.0662350     0.1787580
  C       -1.9094950     1.3730130    -0.0649580
  C       -2.5698170    -1.0762850    -0.0636830
  H       -1.1173450    -0.1582630     1.2256300
  H       -2.7054590     1.6884420     0.6308980
  H       -1.0118930     1.9864150     0.0562940
  H       -2.2859860     1.4684620    -1.0931860
  H       -3.4570710    -0.8823980     0.5599660
  H       -2.1978010    -2.0840550     0.1452650
  H       -2.8699830    -1.0350880    -1.1185900
units angstrom
no_reorient  #important for SAPT in psi4, default
symmetry c1  #important for SAPT in psi4, default
}

set PROPERTIES_ORIGIN ["COM"]
properties('MP2/aug-cc-pvtz', properties = ['dipole'])
--------------------------------------------------------------------------

    Molecular point group: c1
  Charge       = -2
  Multiplicity = 1
  Basis Set: AUG-CC-PVTZ
    Blend: AUG-CC-PVTZ
  Basis Set: (AUG-CC-PVTZ AUX)
    Blend: AUG-CC-PVTZ-JKFIT

    Orbital Energies [Eh]
    ---------------------

    Doubly Occupied:

       1A    -79.675158     2A    -20.202382     3A    -20.118717
       4A    -20.118402     5A    -20.116325     6A    -10.980560
       7A    -10.961539     8A    -10.935936     9A     -7.189376
      10A     -5.088849    11A     -5.086366    12A     -5.086305
      13A     -1.014659    14A     -0.929138    15A     -0.860395
      16A     -0.859735    17A     -0.749885    18A     -0.665946
      19A     -0.500429    20A     -0.392547    21A     -0.335424
      22A     -0.317537    23A     -0.303056    24A     -0.276728
      25A     -0.244118    26A     -0.243533    27A     -0.224804
      28A     -0.189731    29A     -0.182399    30A     -0.161622
      31A     -0.115142    32A     -0.094711    33A     -0.091774
      34A     -0.082643    35A     -0.057544    36A     -0.050156
      37A     -0.026659

  @DF-RHF Final Energy:  -758.06122203036819

   => Energetics <=

    Nuclear Repulsion Energy =            503.5629915410793274
    One-Electron Energy =               -2074.1879632052359739
    Two-Electron Energy =                 812.5637496337884613
    Total Energy =                       -758.0612220303681852
  Basis Set: (AUG-CC-PVTZ AUX)
    Blend: AUG-CC-PVTZ-RI
    Molecular point group: c1

    Geometry (in Angstrom), charge = -2, multiplicity = 1:

       Center              X                  Y                   Z               Mass
    ------------   -----------------  -----------------  -----------------  -----------------
         P            1.106459924066    -0.015039741041     0.046002376026    30.973761998420
         O           -0.511546075934    -0.380986741041    -0.678163623974    15.994914619570
         O            2.021320924066    -0.513677741041    -1.076305623974    15.994914619570
         O            1.068895924066    -0.845765741041     1.343192376026    15.994914619570
         O            1.036236924066     1.515229258959     0.251974376026    15.994914619570
         C           -1.567864075934    -0.059016741041     0.181366376026    12.000000000000
         C           -2.030484075934     1.380231258959    -0.062349623974    12.000000000000
         C           -2.690806075934    -1.069066741041    -0.061074623974    12.000000000000
         H           -1.238334075934    -0.151044741041     1.228238376026     1.007825032230
         H           -2.826448075934     1.695660258959     0.633506376026     1.007825032230
         H           -1.132882075934     1.993633258959     0.058902376026     1.007825032230
         H           -2.406975075934     1.475680258959    -1.090577623974     1.007825032230
         H           -3.578060075934    -0.875179741041     0.562574376026     1.007825032230
         H           -2.318790075934    -2.076836741041     0.147873376026     1.007825032230
         H           -2.990972075934    -1.027869741041    -1.115981623974     1.007825032230

  Basis Set: AUG-CC-PVTZ
    Blend: AUG-CC-PVTZ
  Basis Set: (AUG-CC-PVTZ AUX)
    Blend: AUG-CC-PVTZ-JKFIT
	 Reference Energy          =    -758.0612220303681852 [Eh]
	 Singles Energy            =      -0.0000000000000000 [Eh]
	 Same-Spin Energy          =      -0.4696814848304803 [Eh]
	 Opposite-Spin Energy      =      -1.4031311081434956 [Eh]
	 Correlation Energy        =      -1.8728125929739758 [Eh]
	 Total Energy              =    -759.9340346233421997 [Eh]

	 ================> DF-SCS-MP2 Energies <==================
	-----------------------------------------------------------
	 SCS Same-Spin Scale       =       0.3333333333333333 [-]
	 SCS Opposite-Spin Scale   =       1.2000000000000000 [-]
	 SCS Same-Spin Energy      =      -0.1565604949434934 [Eh]
	 SCS Opposite-Spin Energy  =      -1.6837573297721946 [Eh]
	 SCS Correlation Energy    =      -1.8403178247156879 [Eh]
	 SCS Total Energy          =    -759.9015398550839109 [Eh]
	-----------------------------------------------------------

  Dipole Moment: [D]
     X:    -8.2255      Y:     0.0858      Z:     0.0575     Total:     8.2262

*** Psi4 exiting successfully. Buy a developer a beer!
