                               Psi4 1.4a3.dev225

  ==> Input File <==

--------------------------------------------------------------------------
#psi4
#
memory 32 gb

molecule  {
-2 1
  P        1.2274490    -0.0222580     0.0433940
  O       -0.3905570    -0.3882050    -0.6807720
  O        2.1423100    -0.5208960    -1.0789140
  O        1.1898850    -0.8529840     1.3405840
  O        1.1572260     1.5080110     0.2493660
  C       -1.4468750    -0.0662350     0.1787580
  C       -1.9094950     1.3730130    -0.0649580
  C       -2.5698170    -1.0762850    -0.0636830
  H       -1.1173450    -0.1582630     1.2256300
  H       -2.7054590     1.6884420     0.6308980
  H       -1.0118930     1.9864150     0.0562940
  H       -2.2859860     1.4684620    -1.0931860
  H       -3.4462114    -0.8843204     0.5757170
  H       -2.1978010    -2.0840550     0.1452650
  H       -2.8699830    -1.0350880    -1.1185900
units angstrom
no_reorient  #important for SAPT in psi4, default
symmetry c1  #important for SAPT in psi4, default
}

set PROPERTIES_ORIGIN ["COM"]
properties('MP2/aug-cc-pvtz', properties = ['dipole'])
--------------------------------------------------------------------------

    Molecular point group: c1
  Charge       = -2
  Multiplicity = 1
  Basis Set: AUG-CC-PVTZ
    Blend: AUG-CC-PVTZ
  Basis Set: (AUG-CC-PVTZ AUX)
    Blend: AUG-CC-PVTZ-JKFIT

    Orbital Energies [Eh]
    ---------------------

    Doubly Occupied:

       1A    -79.675126     2A    -20.202275     3A    -20.118695
       4A    -20.118381     5A    -20.116295     6A    -10.980445
       7A    -10.961524     8A    -10.935935     9A     -7.189343
      10A     -5.088815    11A     -5.086334    12A     -5.086272
      13A     -1.014590    14A     -0.929108    15A     -0.860369
      16A     -0.859714    17A     -0.749941    18A     -0.665924
      19A     -0.500123    20A     -0.392836    21A     -0.335047
      22A     -0.317291    23A     -0.303304    24A     -0.277575
      25A     -0.244227    26A     -0.242958    27A     -0.224791
      28A     -0.189709    29A     -0.182329    30A     -0.161571
      31A     -0.115085    32A     -0.094689    33A     -0.091750
      34A     -0.082566    35A     -0.057516    36A     -0.050122
      37A     -0.026637

  @DF-RHF Final Energy:  -758.06120961377326

   => Energetics <=

    Nuclear Repulsion Energy =            503.5764723075917004
    One-Electron Energy =               -2074.2169423152336094
    Two-Electron Energy =                 812.5792603938685943
    Total Energy =                       -758.0612096137732578
  Basis Set: (AUG-CC-PVTZ AUX)
    Blend: AUG-CC-PVTZ-RI
    Molecular point group: c1

    Geometry (in Angstrom), charge = -2, multiplicity = 1:

       Center              X                  Y                   Z               Mass
    ------------   -----------------  -----------------  -----------------  -----------------
         P            1.106380620249    -0.015025702434     0.045887352045    30.973761998420
         O           -0.511625379751    -0.380972702434    -0.678278647955    15.994914619570
         O            2.021241620249    -0.513663702434    -1.076420647955    15.994914619570
         O            1.068816620249    -0.845751702434     1.343077352045    15.994914619570
         O            1.036157620249     1.515243297566     0.251859352045    15.994914619570
         C           -1.567943379751    -0.059002702434     0.181251352045    12.000000000000
         C           -2.030563379751     1.380245297566    -0.062464647955    12.000000000000
         C           -2.690885379751    -1.069052702434    -0.061189647955    12.000000000000
         H           -1.238413379751    -0.151030702434     1.228123352045     1.007825032230
         H           -2.826527379751     1.695674297566     0.633391352045     1.007825032230
         H           -1.132961379751     1.993647297566     0.058787352045     1.007825032230
         H           -2.407054379751     1.475694297566    -1.090692647955     1.007825032230
         H           -3.567279779751    -0.877088102434     0.578210352045     1.007825032230
         H           -2.318869379751    -2.076822702434     0.147758352045     1.007825032230
         H           -2.991051379751    -1.027855702434    -1.116096647955     1.007825032230

  Basis Set: AUG-CC-PVTZ
    Blend: AUG-CC-PVTZ
  Basis Set: (AUG-CC-PVTZ AUX)
    Blend: AUG-CC-PVTZ-JKFIT
	 Reference Energy          =    -758.0612096137732578 [Eh]
	 Singles Energy            =      -0.0000000000000000 [Eh]
	 Same-Spin Energy          =      -0.4696857217898395 [Eh]
	 Opposite-Spin Energy      =      -1.4031396424378704 [Eh]
	 Correlation Energy        =      -1.8728253642277100 [Eh]
	 Total Energy              =    -759.9340349780010229 [Eh]

	 ================> DF-SCS-MP2 Energies <==================
	-----------------------------------------------------------
	 SCS Same-Spin Scale       =       0.3333333333333333 [-]
	 SCS Opposite-Spin Scale   =       1.2000000000000000 [-]
	 SCS Same-Spin Energy      =      -0.1565619072632798 [Eh]
	 SCS Opposite-Spin Energy  =      -1.6837675709254445 [Eh]
	 SCS Correlation Energy    =      -1.8403294781887243 [Eh]
	 SCS Total Energy          =    -759.9015390919620359 [Eh]
	-----------------------------------------------------------

  Dipole Moment: [D]
     X:    -8.2235      Y:     0.0841      Z:     0.0604     Total:     8.2241

*** Psi4 exiting successfully. Buy a developer a beer!
