                               Psi4 1.4a3.dev225

  ==> Input File <==

--------------------------------------------------------------------------
#psi4
#
memory 32 gb

molecule  {
-2 1
  P        1.2274490    -0.0222580     0.0433940
  O       -0.3905570    -0.3882050    -0.6807720
  O        2.1423100    -0.5208960    -1.0789140
  O        1.1898850    -0.8529840     1.3405840
  O        1.1572260     1.5080110     0.2493660
  C       -1.5223597    -0.0432270     0.2401802
  C       -1.9094950     1.3730130    -0.0649580
  C       -2.5698170    -1.0762850    -0.0636830
  H       -1.1173450    -0.1582630     1.2256300
  H       -2.7054590     1.6884420     0.6308980
  H       -1.0118930     1.9864150     0.0562940
  H       -2.2859860     1.4684620    -1.0931860
  H       -3.4570710    -0.8823980     0.5599660
  H       -2.1978010    -2.0840550     0.1452650
  H       -2.8699830    -1.0350880    -1.1185900
units angstrom
no_reorient  #important for SAPT in psi4, default
symmetry c1  #important for SAPT in psi4, default
}

set PROPERTIES_ORIGIN ["COM"]
properties('MP2/aug-cc-pvtz', properties = ['dipole'])
--------------------------------------------------------------------------

    Molecular point group: c1
  Charge       = -2
  Multiplicity = 1
  Basis Set: AUG-CC-PVTZ
    Blend: AUG-CC-PVTZ
  Basis Set: (AUG-CC-PVTZ AUX)
    Blend: AUG-CC-PVTZ-JKFIT

    Orbital Energies [Eh]
    ---------------------

    Doubly Occupied:

       1A    -79.670763     2A    -20.195847     3A    -20.115590
       4A    -20.115505     5A    -20.113120     6A    -10.979172
       7A    -10.965665     8A    -10.940106     9A     -7.184882
      10A     -5.084270    11A     -5.081958    12A     -5.081900
      13A     -0.984968    14A     -0.919168    15A     -0.857209
      16A     -0.856733    17A     -0.761040    18A     -0.673782
      19A     -0.506548    20A     -0.383563    21A     -0.341404
      22A     -0.315690    23A     -0.302218    24A     -0.282203
      25A     -0.243891    26A     -0.228606    27A     -0.219816
      28A     -0.191471    29A     -0.183278    30A     -0.157298
      31A     -0.117519    32A     -0.091447    33A     -0.088677
      34A     -0.078073    35A     -0.053514    36A     -0.046810
      37A     -0.023803

  @DF-RHF Final Energy:  -758.05118277212227

   => Energetics <=

    Nuclear Repulsion Energy =            502.0778529651262829
    One-Electron Energy =               -2071.3830543146600576
    Two-Electron Energy =                 811.2540185774114434
    Total Energy =                       -758.0511827721222744
  Basis Set: (AUG-CC-PVTZ AUX)
    Blend: AUG-CC-PVTZ-RI
    Molecular point group: c1

    Geometry (in Angstrom), charge = -2, multiplicity = 1:

       Center              X                  Y                   Z               Mass
    ------------   -----------------  -----------------  -----------------  -----------------
         P            1.113023421222    -0.017040317881     0.040661632339    30.973761998420
         O           -0.504982578778    -0.382987317881    -0.683504367661    15.994914619570
         O            2.027884421222    -0.515678317881    -1.081646367661    15.994914619570
         O            1.075459421222    -0.847766317881     1.337851632339    15.994914619570
         O            1.042800421222     1.513228682119     0.246633632339    15.994914619570
         C           -1.636785278778    -0.038009317881     0.237447832339    12.000000000000
         C           -2.023920578778     1.378230682119    -0.067690367661    12.000000000000
         C           -2.684242578778    -1.071067317881    -0.066415367661    12.000000000000
         H           -1.231770578778    -0.153045317881     1.222897632339     1.007825032230
         H           -2.819884578778     1.693659682119     0.628165632339     1.007825032230
         H           -1.126318578778     1.991632682119     0.053561632339     1.007825032230
         H           -2.400411578778     1.473679682119    -1.095918367661     1.007825032230
         H           -3.571496578778    -0.877180317881     0.557233632339     1.007825032230
         H           -2.312226578778    -2.078837317881     0.142532632339     1.007825032230
         H           -2.984408578778    -1.029870317881    -1.121322367661     1.007825032230

  Basis Set: AUG-CC-PVTZ
    Blend: AUG-CC-PVTZ
  Basis Set: (AUG-CC-PVTZ AUX)
    Blend: AUG-CC-PVTZ-JKFIT
	 Reference Energy          =    -758.0511827721222744 [Eh]
	 Singles Energy            =      -0.0000000000000000 [Eh]
	 Same-Spin Energy          =      -0.4703168227976554 [Eh]
	 Opposite-Spin Energy      =      -1.4054250991985864 [Eh]
	 Correlation Energy        =      -1.8757419219962417 [Eh]
	 Total Energy              =    -759.9269246941184974 [Eh]

	 ================> DF-SCS-MP2 Energies <==================
	-----------------------------------------------------------
	 SCS Same-Spin Scale       =       0.3333333333333333 [-]
	 SCS Opposite-Spin Scale   =       1.2000000000000000 [-]
	 SCS Same-Spin Energy      =      -0.1567722742658851 [Eh]
	 SCS Opposite-Spin Energy  =      -1.6865101190383036 [Eh]
	 SCS Correlation Energy    =      -1.8432823933041886 [Eh]
	 SCS Total Energy          =    -759.8944651654264817 [Eh]
	-----------------------------------------------------------

  Dipole Moment: [D]
     X:    -8.6571      Y:     0.1459      Z:     0.1465     Total:     8.6596

*** Psi4 exiting successfully. Buy a developer a beer!
