                               Psi4 1.4a3.dev225

  ==> Input File <==

--------------------------------------------------------------------------
#psi4
#
memory 32 gb

molecule  {
-2 1
  P        1.2274490    -0.0222580     0.0433940
  O       -0.4084350    -0.3922485    -0.6887736
  O        2.1423100    -0.5208960    -1.0789140
  O        1.1898850    -0.8529840     1.3405840
  O        1.1572260     1.5080110     0.2493660
  C       -1.4468750    -0.0662350     0.1787580
  C       -1.9094950     1.3730130    -0.0649580
  C       -2.5698170    -1.0762850    -0.0636830
  H       -1.1173450    -0.1582630     1.2256300
  H       -2.7054590     1.6884420     0.6308980
  H       -1.0118930     1.9864150     0.0562940
  H       -2.2859860     1.4684620    -1.0931860
  H       -3.4570710    -0.8823980     0.5599660
  H       -2.1978010    -2.0840550     0.1452650
  H       -2.8699830    -1.0350880    -1.1185900
units angstrom
no_reorient  #important for SAPT in psi4, default
symmetry c1  #important for SAPT in psi4, default
}

set PROPERTIES_ORIGIN ["COM"]
properties('MP2/aug-cc-pvtz', properties = ['dipole'])
--------------------------------------------------------------------------

    Molecular point group: c1
  Charge       = -2
  Multiplicity = 1
  Basis Set: AUG-CC-PVTZ
    Blend: AUG-CC-PVTZ
  Basis Set: (AUG-CC-PVTZ AUX)
    Blend: AUG-CC-PVTZ-JKFIT

    Orbital Energies [Eh]
    ---------------------

    Doubly Occupied:

       1A    -79.677282     2A    -20.201337     3A    -20.120575
       4A    -20.120296     5A    -20.118017     6A    -10.978838
       7A    -10.959880     8A    -10.934918     9A     -7.191421
      10A     -5.090885    11A     -5.088370    12A     -5.088315
      13A     -1.014324    14A     -0.931284    15A     -0.861845
      16A     -0.861280    17A     -0.747608    18A     -0.664974
      19A     -0.498712    20A     -0.391621    21A     -0.334324
      22A     -0.316960    23A     -0.302937    24A     -0.275724
      25A     -0.243736    26A     -0.242417    27A     -0.224281
      28A     -0.190466    29A     -0.183614    30A     -0.161960
      31A     -0.113545    32A     -0.096094    33A     -0.093123
      34A     -0.082412    35A     -0.059168    36A     -0.051677
      37A     -0.028243

  @DF-RHF Final Energy:  -758.06002595481766

   => Energetics <=

    Nuclear Repulsion Energy =            503.1632719254234871
    One-Electron Energy =               -2073.3616723996674409
    Two-Electron Energy =                 812.1383745194262929
    Total Energy =                       -758.0600259548176609
  Basis Set: (AUG-CC-PVTZ AUX)
    Blend: AUG-CC-PVTZ-RI
    Molecular point group: c1

    Geometry (in Angstrom), charge = -2, multiplicity = 1:

       Center              X                  Y                   Z               Mass
    ------------   -----------------  -----------------  -----------------  -----------------
         P            1.108531953790    -0.014571106284     0.046929747826    30.973761998420
         O           -0.527352046210    -0.384561606284    -0.685237852174    15.994914619570
         O            2.023392953790    -0.513209106284    -1.075378252174    15.994914619570
         O            1.070967953790    -0.845297106284     1.344119747826    15.994914619570
         O            1.038308953790     1.515697893716     0.252901747826    15.994914619570
         C           -1.565792046210    -0.058548106284     0.182293747826    12.000000000000
         C           -2.028412046210     1.380699893716    -0.061422252174    12.000000000000
         C           -2.688734046210    -1.068598106284    -0.060147252174    12.000000000000
         H           -1.236262046210    -0.150576106284     1.229165747826     1.007825032230
         H           -2.824376046210     1.696128893716     0.634433747826     1.007825032230
         H           -1.130810046210     1.994101893716     0.059829747826     1.007825032230
         H           -2.404903046210     1.476148893716    -1.089650252174     1.007825032230
         H           -3.575988046210    -0.874711106284     0.563501747826     1.007825032230
         H           -2.316718046210    -2.076368106284     0.148800747826     1.007825032230
         H           -2.988900046210    -1.027401106284    -1.115054252174     1.007825032230

  Basis Set: AUG-CC-PVTZ
    Blend: AUG-CC-PVTZ
  Basis Set: (AUG-CC-PVTZ AUX)
    Blend: AUG-CC-PVTZ-JKFIT
	 Reference Energy          =    -758.0600259548176609 [Eh]
	 Singles Energy            =      -0.0000000000000000 [Eh]
	 Same-Spin Energy          =      -0.4699033354146058 [Eh]
	 Opposite-Spin Energy      =      -1.4035667960344238 [Eh]
	 Correlation Energy        =      -1.8734701314490296 [Eh]
	 Total Energy              =    -759.9334960862667003 [Eh]

	 ================> DF-SCS-MP2 Energies <==================
	-----------------------------------------------------------
	 SCS Same-Spin Scale       =       0.3333333333333333 [-]
	 SCS Opposite-Spin Scale   =       1.2000000000000000 [-]
	 SCS Same-Spin Energy      =      -0.1566344451382019 [Eh]
	 SCS Opposite-Spin Energy  =      -1.6842801552413085 [Eh]
	 SCS Correlation Energy    =      -1.8409146003795105 [Eh]
	 SCS Total Energy          =    -759.9009405551971668 [Eh]
	-----------------------------------------------------------

  Dipole Moment: [D]
     X:    -8.0720      Y:     0.1019      Z:     0.0831     Total:     8.0731

*** Psi4 exiting successfully. Buy a developer a beer!
