                               Psi4 1.4a3.dev225

  ==> Input File <==

--------------------------------------------------------------------------
#psi4
#
memory 32 gb

molecule  {
-2 1
  P        1.2274490    -0.0222580     0.0433940
  O       -0.4170752    -0.2649378    -0.6727929
  O        2.1423100    -0.5208960    -1.0789140
  O        1.1898850    -0.8529840     1.3405840
  O        1.1572260     1.5080110     0.2493660
  C       -1.4468750    -0.0662350     0.1787580
  C       -1.9094950     1.3730130    -0.0649580
  C       -2.5698170    -1.0762850    -0.0636830
  H       -1.1173450    -0.1582630     1.2256300
  H       -2.7054590     1.6884420     0.6308980
  H       -1.0118930     1.9864150     0.0562940
  H       -2.2859860     1.4684620    -1.0931860
  H       -3.4570710    -0.8823980     0.5599660
  H       -2.1978010    -2.0840550     0.1452650
  H       -2.8699830    -1.0350880    -1.1185900
units angstrom
no_reorient  #important for SAPT in psi4, default
symmetry c1  #important for SAPT in psi4, default
}

set PROPERTIES_ORIGIN ["COM"]
properties('MP2/aug-cc-pvtz', properties = ['dipole'])
--------------------------------------------------------------------------

    Molecular point group: c1
  Charge       = -2
  Multiplicity = 1
  Basis Set: AUG-CC-PVTZ
    Blend: AUG-CC-PVTZ
  Basis Set: (AUG-CC-PVTZ AUX)
    Blend: AUG-CC-PVTZ-JKFIT

    Orbital Energies [Eh]
    ---------------------

    Doubly Occupied:

       1A    -79.677392     2A    -20.198583     3A    -20.122690
       4A    -20.120626     5A    -20.114475     6A    -10.976684
       7A    -10.961208     8A    -10.929778     9A     -7.191542
      10A     -5.091055    11A     -5.088543    12A     -5.088401
      13A     -1.031972    14A     -0.933312    15A     -0.863738
      16A     -0.858906    17A     -0.746176    18A     -0.663343
      19A     -0.499775    20A     -0.400689    21A     -0.334051
      22A     -0.321598    23A     -0.302863    24A     -0.275293
      25A     -0.251206    26A     -0.245044    27A     -0.225348
      28A     -0.188940    29A     -0.185257    30A     -0.157151
      31A     -0.111600    32A     -0.096407    33A     -0.093230
      34A     -0.083412    35A     -0.061142    36A     -0.047241
      37A     -0.027756

  @DF-RHF Final Energy:  -758.05892899604964

   => Energetics <=

    Nuclear Repulsion Energy =            504.8440720873862233
    One-Electron Energy =               -2076.6731482302247969
    Two-Electron Energy =                 813.7701471467889860
    Total Energy =                       -758.0589289960496444
  Basis Set: (AUG-CC-PVTZ AUX)
    Blend: AUG-CC-PVTZ-RI
    Molecular point group: c1

    Geometry (in Angstrom), charge = -2, multiplicity = 1:

       Center              X                  Y                   Z               Mass
    ------------   -----------------  -----------------  -----------------  -----------------
         P            1.109533338241    -0.029326199388     0.045077611938    30.973761998420
         O           -0.534990861759    -0.272005999388    -0.671109288062    15.994914619570
         O            2.024394338241    -0.527964199388    -1.077230388062    15.994914619570
         O            1.071969338241    -0.860052199388     1.342267611938    15.994914619570
         O            1.039310338241     1.500942800612     0.251049611938    15.994914619570
         C           -1.564790661759    -0.073303199388     0.180441611938    12.000000000000
         C           -2.027410661759     1.365944800612    -0.063274388062    12.000000000000
         C           -2.687732661759    -1.083353199388    -0.061999388062    12.000000000000
         H           -1.235260661759    -0.165331199388     1.227313611938     1.007825032230
         H           -2.823374661759     1.681373800612     0.632581611938     1.007825032230
         H           -1.129808661759     1.979346800612     0.057977611938     1.007825032230
         H           -2.403901661759     1.461393800612    -1.091502388062     1.007825032230
         H           -3.574986661759    -0.889466199388     0.561649611938     1.007825032230
         H           -2.315716661759    -2.091123199388     0.146948611938     1.007825032230
         H           -2.987898661759    -1.042156199388    -1.116906388062     1.007825032230

  Basis Set: AUG-CC-PVTZ
    Blend: AUG-CC-PVTZ
  Basis Set: (AUG-CC-PVTZ AUX)
    Blend: AUG-CC-PVTZ-JKFIT
	 Reference Energy          =    -758.0589289960496444 [Eh]
	 Singles Energy            =      -0.0000000000000000 [Eh]
	 Same-Spin Energy          =      -0.4696318586713318 [Eh]
	 Opposite-Spin Energy      =      -1.4020601015666116 [Eh]
	 Correlation Energy        =      -1.8716919602379436 [Eh]
	 Total Energy              =    -759.9306209562876120 [Eh]

	 ================> DF-SCS-MP2 Energies <==================
	-----------------------------------------------------------
	 SCS Same-Spin Scale       =       0.3333333333333333 [-]
	 SCS Opposite-Spin Scale   =       1.2000000000000000 [-]
	 SCS Same-Spin Energy      =      -0.1565439528904439 [Eh]
	 SCS Opposite-Spin Energy  =      -1.6824721218799339 [Eh]
	 SCS Correlation Energy    =      -1.8390160747703779 [Eh]
	 SCS Total Energy          =    -759.8979450708200147 [Eh]
	-----------------------------------------------------------

  Dipole Moment: [D]
     X:    -7.9905      Y:    -0.1589      Z:    -0.0002     Total:     7.9920

*** Psi4 exiting successfully. Buy a developer a beer!
