                               Psi4 1.4a3.dev225

  ==> Input File <==

--------------------------------------------------------------------------
#psi4
#
memory 32 gb

molecule  {
-2 1
  P        1.2274490    -0.0222580     0.0433940
  O       -0.3905570    -0.3882050    -0.6807720
  O        2.1423100    -0.5208960    -1.0789140
  O        1.1898850    -0.8529840     1.3405840
  O        1.1572260     1.5080110     0.2493660
  C       -1.4468750    -0.0662350     0.1787580
  C       -1.9094950     1.3730130    -0.0649580
  C       -2.5698170    -1.0762850    -0.0636830
  H       -1.1233290    -0.1565918     1.2066195
  H       -2.7054590     1.6884420     0.6308980
  H       -1.0118930     1.9864150     0.0562940
  H       -2.2859860     1.4684620    -1.0931860
  H       -3.4570710    -0.8823980     0.5599660
  H       -2.1978010    -2.0840550     0.1452650
  H       -2.8699830    -1.0350880    -1.1185900
units angstrom
no_reorient  #important for SAPT in psi4, default
symmetry c1  #important for SAPT in psi4, default
}

set PROPERTIES_ORIGIN ["COM"]
properties('MP2/aug-cc-pvtz', properties = ['dipole'])
--------------------------------------------------------------------------

    Molecular point group: c1
  Charge       = -2
  Multiplicity = 1
  Basis Set: AUG-CC-PVTZ
    Blend: AUG-CC-PVTZ
  Basis Set: (AUG-CC-PVTZ AUX)
    Blend: AUG-CC-PVTZ-JKFIT

    Orbital Energies [Eh]
    ---------------------

    Doubly Occupied:

       1A    -79.675073     2A    -20.201951     3A    -20.118680
       4A    -20.118395     5A    -20.116240     6A    -10.978227
       7A    -10.961423     8A    -10.935792     9A     -7.189289
      10A     -5.088758    11A     -5.086281    12A     -5.086220
      13A     -1.014530    14A     -0.929082    15A     -0.860329
      16A     -0.859700    17A     -0.750265    18A     -0.665899
      19A     -0.503153    20A     -0.393672    21A     -0.335452
      22A     -0.317424    23A     -0.303012    24A     -0.276757
      25A     -0.244597    26A     -0.243389    27A     -0.224692
      28A     -0.189706    29A     -0.182576    30A     -0.162797
      31A     -0.115402    32A     -0.094720    33A     -0.091710
      34A     -0.082567    35A     -0.057504    36A     -0.050072
      37A     -0.026618

  @DF-RHF Final Energy:  -758.06137681851840

   => Energetics <=

    Nuclear Repulsion Energy =            503.6587553213839215
    One-Electron Energy =               -2074.3763535393190978
    Two-Electron Energy =                 812.6562213994167223
    Total Energy =                       -758.0613768185183972
  Basis Set: (AUG-CC-PVTZ AUX)
    Blend: AUG-CC-PVTZ-RI
    Molecular point group: c1

    Geometry (in Angstrom), charge = -2, multiplicity = 1:

       Center              X                  Y                   Z               Mass
    ------------   -----------------  -----------------  -----------------  -----------------
         P            1.106503623101    -0.015051945223     0.046141202983    30.973761998420
         O           -0.511502376899    -0.380998945223    -0.678024797017    15.994914619570
         O            2.021364623101    -0.513689945223    -1.076166797017    15.994914619570
         O            1.068939623101    -0.845777945223     1.343331202983    15.994914619570
         O            1.036280623101     1.515217054777     0.252113202983    15.994914619570
         C           -1.567820376899    -0.059028945223     0.181505202983    12.000000000000
         C           -2.030440376899     1.380219054777    -0.062210797017    12.000000000000
         C           -2.690762376899    -1.069078945223    -0.060935797017    12.000000000000
         H           -1.244274376899    -0.149385745223     1.209366702983     1.007825032230
         H           -2.826404376899     1.695648054777     0.633645202983     1.007825032230
         H           -1.132838376899     1.993621054777     0.059041202983     1.007825032230
         H           -2.406931376899     1.475668054777    -1.090438797017     1.007825032230
         H           -3.578016376899    -0.875191945223     0.562713202983     1.007825032230
         H           -2.318746376899    -2.076848945223     0.148012202983     1.007825032230
         H           -2.990928376899    -1.027881945223    -1.115842797017     1.007825032230

  Basis Set: AUG-CC-PVTZ
    Blend: AUG-CC-PVTZ
  Basis Set: (AUG-CC-PVTZ AUX)
    Blend: AUG-CC-PVTZ-JKFIT
	 Reference Energy          =    -758.0613768185183972 [Eh]
	 Singles Energy            =      -0.0000000000000000 [Eh]
	 Same-Spin Energy          =      -0.4696049879010613 [Eh]
	 Opposite-Spin Energy      =      -1.4029360544137079 [Eh]
	 Correlation Energy        =      -1.8725410423147693 [Eh]
	 Total Energy              =    -759.9339178608331622 [Eh]

	 ================> DF-SCS-MP2 Energies <==================
	-----------------------------------------------------------
	 SCS Same-Spin Scale       =       0.3333333333333333 [-]
	 SCS Opposite-Spin Scale   =       1.2000000000000000 [-]
	 SCS Same-Spin Energy      =      -0.1565349959670204 [Eh]
	 SCS Opposite-Spin Energy  =      -1.6835232652964496 [Eh]
	 SCS Correlation Energy    =      -1.8400582612634699 [Eh]
	 SCS Total Energy          =    -759.9014350797818906 [Eh]
	-----------------------------------------------------------

  Dipole Moment: [D]
     X:    -8.2373      Y:     0.0865      Z:     0.0675     Total:     8.2380

*** Psi4 exiting successfully. Buy a developer a beer!
