                               Psi4 1.4a3.dev225

  ==> Input File <==

--------------------------------------------------------------------------
#psi4
#
memory 32 gb

molecule  {
-2 1
  P        1.2274490    -0.0222580     0.0433940
  O       -0.3905570    -0.3882050    -0.6807720
  O        2.1423100    -0.5208960    -1.0789140
  O        1.1898850    -0.8529840     1.3405840
  O        1.1572260     1.5080110     0.2493660
  C       -1.4468750    -0.0662350     0.1787580
  C       -1.9094950     1.3730130    -0.0649580
  C       -2.5698170    -1.0762850    -0.0636830
  H       -1.1173450    -0.1582630     1.2256300
  H       -2.7054590     1.6884420     0.6308980
  H       -1.0118930     1.9864150     0.0562940
  H       -2.2859860     1.4684620    -1.0931860
  H       -3.5164430    -0.8721230     0.4616426
  H       -2.1978010    -2.0840550     0.1452650
  H       -2.8699830    -1.0350880    -1.1185900
units angstrom
no_reorient  #important for SAPT in psi4, default
symmetry c1  #important for SAPT in psi4, default
}

set PROPERTIES_ORIGIN ["COM"]
properties('MP2/aug-cc-pvtz', properties = ['dipole'])
--------------------------------------------------------------------------

    Molecular point group: c1
  Charge       = -2
  Multiplicity = 1
  Basis Set: AUG-CC-PVTZ
    Blend: AUG-CC-PVTZ
  Basis Set: (AUG-CC-PVTZ AUX)
    Blend: AUG-CC-PVTZ-JKFIT

    Orbital Energies [Eh]
    ---------------------

    Doubly Occupied:

       1A    -79.675345     2A    -20.202986     3A    -20.118847
       4A    -20.118525     5A    -20.116497     6A    -10.981310
       7A    -10.961638     8A    -10.935967     9A     -7.189566
      10A     -5.089042    11A     -5.086553    12A     -5.086492
      13A     -1.015059    14A     -0.929314    15A     -0.860547
      16A     -0.859864    17A     -0.749703    18A     -0.666228
      19A     -0.502395    20A     -0.390965    21A     -0.338192
      22A     -0.319273    23A     -0.301641    24A     -0.270784
      25A     -0.246750    26A     -0.243014    27A     -0.224778
      28A     -0.189872    29A     -0.182789    30A     -0.161920
      31A     -0.115442    32A     -0.094835    33A     -0.091917
      34A     -0.083074    35A     -0.057711    36A     -0.050355
      37A     -0.026792

  @DF-RHF Final Energy:  -758.05986575639520

   => Energetics <=

    Nuclear Repulsion Energy =            503.4917086828023116
    One-Electron Energy =               -2074.0311857817691816
    Two-Electron Energy =                 812.4796113425717294
    Total Energy =                       -758.0598657563951974
  Basis Set: (AUG-CC-PVTZ AUX)
    Blend: AUG-CC-PVTZ-RI
    Molecular point group: c1

    Geometry (in Angstrom), charge = -2, multiplicity = 1:

       Center              X                  Y                   Z               Mass
    ------------   -----------------  -----------------  -----------------  -----------------
         P            1.106893496779    -0.015114775731     0.046720397034    30.973761998420
         O           -0.511112503221    -0.381061775731    -0.677445602966    15.994914619570
         O            2.021754496779    -0.513752775731    -1.075587602966    15.994914619570
         O            1.069329496779    -0.845840775731     1.343910397034    15.994914619570
         O            1.036670496779     1.515154224269     0.252692397034    15.994914619570
         C           -1.567430503221    -0.059091775731     0.182084397034    12.000000000000
         C           -2.030050503221     1.380156224269    -0.061631602966    12.000000000000
         C           -2.690372503221    -1.069141775731    -0.060356602966    12.000000000000
         H           -1.237900503221    -0.151119775731     1.228956397034     1.007825032230
         H           -2.826014503221     1.695585224269     0.634224397034     1.007825032230
         H           -1.132448503221     1.993558224269     0.059620397034     1.007825032230
         H           -2.406541503221     1.475605224269    -1.089859602966     1.007825032230
         H           -3.636998503221    -0.864979775731     0.464968997034     1.007825032230
         H           -2.318356503221    -2.076911775731     0.148591397034     1.007825032230
         H           -2.990538503221    -1.027944775731    -1.115263602966     1.007825032230

  Basis Set: AUG-CC-PVTZ
    Blend: AUG-CC-PVTZ
  Basis Set: (AUG-CC-PVTZ AUX)
    Blend: AUG-CC-PVTZ-JKFIT
	 Reference Energy          =    -758.0598657563951974 [Eh]
	 Singles Energy            =      -0.0000000000000000 [Eh]
	 Same-Spin Energy          =      -0.4697295657433302 [Eh]
	 Opposite-Spin Energy      =      -1.4031821391146289 [Eh]
	 Correlation Energy        =      -1.8729117048579591 [Eh]
	 Total Energy              =    -759.9327774612531812 [Eh]

	 ================> DF-SCS-MP2 Energies <==================
	-----------------------------------------------------------
	 SCS Same-Spin Scale       =       0.3333333333333333 [-]
	 SCS Opposite-Spin Scale   =       1.2000000000000000 [-]
	 SCS Same-Spin Energy      =      -0.1565765219144434 [Eh]
	 SCS Opposite-Spin Energy  =      -1.6838185669375545 [Eh]
	 SCS Correlation Energy    =      -1.8403950888519980 [Eh]
	 SCS Total Energy          =    -759.9002608452472032 [Eh]
	-----------------------------------------------------------

  Dipole Moment: [D]
     X:    -8.2355      Y:     0.0966      Z:     0.0353     Total:     8.2361

*** Psi4 exiting successfully. Buy a developer a beer!
