                               Psi4 1.4a3.dev225

  ==> Input File <==

--------------------------------------------------------------------------
#psi4
#
memory 32 gb

molecule  {
-2 1
  P        1.2274490    -0.0222580     0.0433940
  O       -0.3905570    -0.3882050    -0.6807720
  O        2.1423100    -0.5208960    -1.0789140
  O        1.1898850    -0.8529840     1.3405840
  O        1.1572260     1.5080110     0.2493660
  C       -1.4468750    -0.0662350     0.1787580
  C       -1.9094950     1.3730130    -0.0649580
  C       -2.5747132    -1.0410355    -0.1643489
  H       -1.1173450    -0.1582630     1.2256300
  H       -2.7054590     1.6884420     0.6308980
  H       -1.0118930     1.9864150     0.0562940
  H       -2.2859860     1.4684620    -1.0931860
  H       -3.4570710    -0.8823980     0.5599660
  H       -2.1978010    -2.0840550     0.1452650
  H       -2.8699830    -1.0350880    -1.1185900
units angstrom
no_reorient  #important for SAPT in psi4, default
symmetry c1  #important for SAPT in psi4, default
}

set PROPERTIES_ORIGIN ["COM"]
properties('MP2/aug-cc-pvtz', properties = ['dipole'])
--------------------------------------------------------------------------

    Molecular point group: c1
  Charge       = -2
  Multiplicity = 1
  Basis Set: AUG-CC-PVTZ
    Blend: AUG-CC-PVTZ
  Basis Set: (AUG-CC-PVTZ AUX)
    Blend: AUG-CC-PVTZ-JKFIT

    Orbital Energies [Eh]
    ---------------------

    Doubly Occupied:

       1A    -79.675200     2A    -20.201940     3A    -20.118928
       4A    -20.118800     5A    -20.116355     6A    -10.981625
       7A    -10.963104     8A    -10.935066     9A     -7.189431
      10A     -5.088895    11A     -5.086427    12A     -5.086366
      13A     -1.015423    14A     -0.929535    15A     -0.860539
      16A     -0.860032    17A     -0.750878    18A     -0.666011
      19A     -0.504668    20A     -0.394159    21A     -0.333766
      22A     -0.323460    23A     -0.294684    24A     -0.289077
      25A     -0.246714    26A     -0.237693    27A     -0.216492
      28A     -0.187308    29A     -0.183431    30A     -0.165956
      31A     -0.113851    32A     -0.094847    33A     -0.091962
      34A     -0.082457    35A     -0.057761    36A     -0.050203
      37A     -0.026870

  @DF-RHF Final Energy:  -758.04813442485658

   => Energetics <=

    Nuclear Repulsion Energy =            503.7826198547016929
    One-Electron Energy =               -2074.5816816742731135
    Two-Electron Energy =                 812.7509273947147221
    Total Energy =                       -758.0481344248565847
  Basis Set: (AUG-CC-PVTZ AUX)
    Blend: AUG-CC-PVTZ-RI
    Molecular point group: c1

    Geometry (in Angstrom), charge = -2, multiplicity = 1:

       Center              X                  Y                   Z               Mass
    ------------   -----------------  -----------------  -----------------  -----------------
         P            1.106885655304    -0.018104732927     0.054755412713    30.973761998420
         O           -0.511120344696    -0.384051732927    -0.669410587287    15.994914619570
         O            2.021746655304    -0.516742732927    -1.067552587287    15.994914619570
         O            1.069321655304    -0.848830732927     1.351945412713    15.994914619570
         O            1.036662655304     1.512164267073     0.260727412713    15.994914619570
         C           -1.567438344696    -0.062081732927     0.190119412713    12.000000000000
         C           -2.030058344696     1.377166267073    -0.053596587287    12.000000000000
         C           -2.695276544696    -1.036882232927    -0.152987487287    12.000000000000
         H           -1.237908344696    -0.154109732927     1.236991412713     1.007825032230
         H           -2.826022344696     1.692595267073     0.642259412713     1.007825032230
         H           -1.132456344696     1.990568267073     0.067655412713     1.007825032230
         H           -2.406549344696     1.472615267073    -1.081824587287     1.007825032230
         H           -3.577634344696    -0.878244732927     0.571327412713     1.007825032230
         H           -2.318364344696    -2.079901732927     0.156626412713     1.007825032230
         H           -2.990546344696    -1.030934732927    -1.107228587287     1.007825032230

  Basis Set: AUG-CC-PVTZ
    Blend: AUG-CC-PVTZ
  Basis Set: (AUG-CC-PVTZ AUX)
    Blend: AUG-CC-PVTZ-JKFIT
	 Reference Energy          =    -758.0481344248565847 [Eh]
	 Singles Energy            =      -0.0000000000000000 [Eh]
	 Same-Spin Energy          =      -0.4698172686633731 [Eh]
	 Opposite-Spin Energy      =      -1.4036826992262896 [Eh]
	 Correlation Energy        =      -1.8734999678896629 [Eh]
	 Total Energy              =    -759.9216343927462276 [Eh]

	 ================> DF-SCS-MP2 Energies <==================
	-----------------------------------------------------------
	 SCS Same-Spin Scale       =       0.3333333333333333 [-]
	 SCS Opposite-Spin Scale   =       1.2000000000000000 [-]
	 SCS Same-Spin Energy      =      -0.1566057562211244 [Eh]
	 SCS Opposite-Spin Energy  =      -1.6844192390715476 [Eh]
	 SCS Correlation Energy    =      -1.8410249952926718 [Eh]
	 SCS Total Energy          =    -759.8891594201492126 [Eh]
	-----------------------------------------------------------

  Dipole Moment: [D]
     X:    -8.1925      Y:     0.1299      Z:    -0.1188     Total:     8.1944

*** Psi4 exiting successfully. Buy a developer a beer!
