                               Psi4 1.4a3.dev225

  ==> Input File <==

--------------------------------------------------------------------------
#psi4
#
memory 32 gb

molecule  {
-2 1
  P        1.2274490    -0.0222580     0.0433940
  O       -0.3905570    -0.3882050    -0.6807720
  O        2.1423100    -0.5208960    -1.0789140
  O        1.1898850    -0.8529840     1.3405840
  O        1.1572260     1.5080110     0.2493660
  C       -1.4468750    -0.0662350     0.1787580
  C       -1.9094950     1.3730130    -0.0649580
  C       -2.7166357    -1.2083437    -0.0953809
  H       -1.1173450    -0.1582630     1.2256300
  H       -2.7054590     1.6884420     0.6308980
  H       -1.0118930     1.9864150     0.0562940
  H       -2.2859860     1.4684620    -1.0931860
  H       -3.4570710    -0.8823980     0.5599660
  H       -2.1978010    -2.0840550     0.1452650
  H       -2.8699830    -1.0350880    -1.1185900
units angstrom
no_reorient  #important for SAPT in psi4, default
symmetry c1  #important for SAPT in psi4, default
}

set PROPERTIES_ORIGIN ["COM"]
properties('MP2/aug-cc-pvtz', properties = ['dipole'])
--------------------------------------------------------------------------

    Molecular point group: c1
  Charge       = -2
  Multiplicity = 1
  Basis Set: AUG-CC-PVTZ
    Blend: AUG-CC-PVTZ
  Basis Set: (AUG-CC-PVTZ AUX)
    Blend: AUG-CC-PVTZ-JKFIT

    Orbital Energies [Eh]
    ---------------------

    Doubly Occupied:

       1A    -79.677392     2A    -20.206895     3A    -20.120829
       4A    -20.120200     5A    -20.118256     6A    -10.996511
       7A    -10.951426     8A    -10.939413     9A     -7.191632
      10A     -5.091126    11A     -5.088597    12A     -5.088535
      13A     -1.015020    14A     -0.930257    15A     -0.862317
      16A     -0.861663    17A     -0.735954    18A     -0.671649
      19A     -0.497470    20A     -0.390675    21A     -0.343124
      22A     -0.322297    23A     -0.308193    24A     -0.291536
      25A     -0.255563    26A     -0.247682    27A     -0.217976
      28A     -0.191497    29A     -0.179407    30A     -0.146146
      31A     -0.114182    32A     -0.096525    33A     -0.093641
      34A     -0.079251    35A     -0.059427    36A     -0.050578
      37A     -0.028517

  @DF-RHF Final Energy:  -758.03603921452839

   => Energetics <=

    Nuclear Repulsion Energy =            499.9666535503708928
    One-Electron Energy =               -2066.8426679431390767
    Two-Electron Energy =                 808.8399751782397971
    Total Energy =                       -758.0360392145283868
  Basis Set: (AUG-CC-PVTZ AUX)
    Blend: AUG-CC-PVTZ-RI
    Molecular point group: c1

    Geometry (in Angstrom), charge = -2, multiplicity = 1:

       Center              X                  Y                   Z               Mass
    ------------   -----------------  -----------------  -----------------  -----------------
         P            1.119226009377    -0.003557057770     0.048758551470    30.973761998420
         O           -0.498779990623    -0.369504057770    -0.675407448530    15.994914619570
         O            2.034087009377    -0.502195057770    -1.073549448530    15.994914619570
         O            1.081662009377    -0.834283057770     1.345948551470    15.994914619570
         O            1.049003009377     1.526711942230     0.254730551470    15.994914619570
         C           -1.555097990623    -0.047534057770     0.184122551470    12.000000000000
         C           -2.017717990623     1.391713942230    -0.059593448530    12.000000000000
         C           -2.824858690623    -1.189642757770    -0.090016348530    12.000000000000
         H           -1.225567990623    -0.139562057770     1.230994551470     1.007825032230
         H           -2.813681990623     1.707142942230     0.636262551470     1.007825032230
         H           -1.120115990623     2.005115942230     0.061658551470     1.007825032230
         H           -2.394208990623     1.487162942230    -1.087821448530     1.007825032230
         H           -3.565293990623    -0.863697057770     0.565330551470     1.007825032230
         H           -2.306023990623    -2.065354057770     0.150629551470     1.007825032230
         H           -2.978205990623    -1.016387057770    -1.113225448530     1.007825032230

  Basis Set: AUG-CC-PVTZ
    Blend: AUG-CC-PVTZ
  Basis Set: (AUG-CC-PVTZ AUX)
    Blend: AUG-CC-PVTZ-JKFIT
	 Reference Energy          =    -758.0360392145283868 [Eh]
	 Singles Energy            =      -0.0000000000000000 [Eh]
	 Same-Spin Energy          =      -0.4703509346626205 [Eh]
	 Opposite-Spin Energy      =      -1.4048882151560194 [Eh]
	 Correlation Energy        =      -1.8752391498186398 [Eh]
	 Total Energy              =    -759.9112783643470266 [Eh]

	 ================> DF-SCS-MP2 Energies <==================
	-----------------------------------------------------------
	 SCS Same-Spin Scale       =       0.3333333333333333 [-]
	 SCS Opposite-Spin Scale   =       1.2000000000000000 [-]
	 SCS Same-Spin Energy      =      -0.1567836448875402 [Eh]
	 SCS Opposite-Spin Energy  =      -1.6858658581872232 [Eh]
	 SCS Correlation Energy    =      -1.8426495030747634 [Eh]
	 SCS Total Energy          =    -759.8786887176031541 [Eh]
	-----------------------------------------------------------

  Dipole Moment: [D]
     X:    -7.9082      Y:     0.3558      Z:     0.0841     Total:     7.9166

*** Psi4 exiting successfully. Buy a developer a beer!
