                               Psi4 1.4a3.dev225

  ==> Input File <==

--------------------------------------------------------------------------
#psi4
#
memory 32 gb

molecule  {
-2 1
  P        1.2274490    -0.0222580     0.0433940
  O       -0.3905570    -0.3882050    -0.6807720
  O        2.1423100    -0.5208960    -1.0789140
  O        1.1898850    -0.8529840     1.3405840
  O        1.1572260     1.5080110     0.2493660
  C       -1.4468750    -0.0662350     0.1787580
  C       -1.9094950     1.3730130    -0.0649580
  C       -2.6065217    -1.1092997    -0.0716075
  H       -1.1173450    -0.1582630     1.2256300
  H       -2.7054590     1.6884420     0.6308980
  H       -1.0118930     1.9864150     0.0562940
  H       -2.2859860     1.4684620    -1.0931860
  H       -3.4570710    -0.8823980     0.5599660
  H       -2.1978010    -2.0840550     0.1452650
  H       -2.8699830    -1.0350880    -1.1185900
units angstrom
no_reorient  #important for SAPT in psi4, default
symmetry c1  #important for SAPT in psi4, default
}

set PROPERTIES_ORIGIN ["COM"]
properties('MP2/aug-cc-pvtz', properties = ['dipole'])
--------------------------------------------------------------------------

    Molecular point group: c1
  Charge       = -2
  Multiplicity = 1
  Basis Set: AUG-CC-PVTZ
    Blend: AUG-CC-PVTZ
  Basis Set: (AUG-CC-PVTZ AUX)
    Blend: AUG-CC-PVTZ-JKFIT

    Orbital Energies [Eh]
    ---------------------

    Doubly Occupied:

       1A    -79.675418     2A    -20.202928     3A    -20.118960
       4A    -20.118579     5A    -20.116549     6A    -10.984193
       7A    -10.958083     8A    -10.936330     9A     -7.189637
      10A     -5.089113    11A     -5.086624    12A     -5.086562
      13A     -1.013994    14A     -0.929026    15A     -0.860610
      16A     -0.859943    17A     -0.745208    18A     -0.667330
      19A     -0.499016    20A     -0.391362    21A     -0.336496
      22A     -0.314260    23A     -0.307061    24A     -0.281634
      25A     -0.246629    26A     -0.244615    27A     -0.223232
      28A     -0.189781    29A     -0.181218    30A     -0.158850
      31A     -0.114893    32A     -0.094922    33A     -0.091978
      34A     -0.082019    35A     -0.057757    36A     -0.050119
      37A     -0.026861

  @DF-RHF Final Energy:  -758.05957466615200

   => Energetics <=

    Nuclear Repulsion Energy =            502.6305004585652796
    One-Electron Energy =               -2072.3165766053057268
    Two-Electron Energy =                 811.6265014805885585
    Total Energy =                       -758.0595746661520025
  Basis Set: (AUG-CC-PVTZ AUX)
    Blend: AUG-CC-PVTZ-RI
    Molecular point group: c1

    Geometry (in Angstrom), charge = -2, multiplicity = 1:

       Center              X                  Y                   Z               Mass
    ------------   -----------------  -----------------  -----------------  -----------------
         P            1.109651447568    -0.012169068050     0.046691422061    30.973761998420
         O           -0.508354552432    -0.378116068050    -0.677474577939    15.994914619570
         O            2.024512447568    -0.510807068050    -1.075616577939    15.994914619570
         O            1.072087447568    -0.842895068050     1.343881422061    15.994914619570
         O            1.039428447568     1.518099931950     0.252663422061    15.994914619570
         C           -1.564672552432    -0.056146068050     0.182055422061    12.000000000000
         C           -2.027292552432     1.383101931950    -0.061660577939    12.000000000000
         C           -2.724319252432    -1.099210768050    -0.068310077939    12.000000000000
         H           -1.235142552432    -0.148174068050     1.228927422061     1.007825032230
         H           -2.823256552432     1.698530931950     0.634195422061     1.007825032230
         H           -1.129690552432     1.996503931950     0.059591422061     1.007825032230
         H           -2.403783552432     1.478550931950    -1.089888577939     1.007825032230
         H           -3.574868552432    -0.872309068050     0.563263422061     1.007825032230
         H           -2.315598552432    -2.073966068050     0.148562422061     1.007825032230
         H           -2.987780552432    -1.024999068050    -1.115292577939     1.007825032230

  Basis Set: AUG-CC-PVTZ
    Blend: AUG-CC-PVTZ
  Basis Set: (AUG-CC-PVTZ AUX)
    Blend: AUG-CC-PVTZ-JKFIT
	 Reference Energy          =    -758.0595746661520025 [Eh]
	 Singles Energy            =      -0.0000000000000000 [Eh]
	 Same-Spin Energy          =      -0.4695764385235706 [Eh]
	 Opposite-Spin Energy      =      -1.4030989648867069 [Eh]
	 Correlation Energy        =      -1.8726754034102775 [Eh]
	 Total Energy              =    -759.9322500695623148 [Eh]

	 ================> DF-SCS-MP2 Energies <==================
	-----------------------------------------------------------
	 SCS Same-Spin Scale       =       0.3333333333333333 [-]
	 SCS Opposite-Spin Scale   =       1.2000000000000000 [-]
	 SCS Same-Spin Energy      =      -0.1565254795078569 [Eh]
	 SCS Opposite-Spin Energy  =      -1.6837187578640482 [Eh]
	 SCS Correlation Energy    =      -1.8402442373719050 [Eh]
	 SCS Total Energy          =    -759.8998189035238511 [Eh]
	-----------------------------------------------------------

  Dipole Moment: [D]
     X:    -8.1967      Y:     0.1169      Z:     0.0581     Total:     8.1977

*** Psi4 exiting successfully. Buy a developer a beer!
