                               Psi4 1.4a3.dev225

  ==> Input File <==

--------------------------------------------------------------------------
#psi4
#
memory 32 gb

molecule  {
-2 1
  P        1.2274490    -0.0222580     0.0433940
  O       -0.3360504    -0.5695776    -0.6861181
  O        2.1423100    -0.5208960    -1.0789140
  O        1.1898850    -0.8529840     1.3405840
  O        1.1572260     1.5080110     0.2493660
  C       -1.4468750    -0.0662350     0.1787580
  C       -1.9094950     1.3730130    -0.0649580
  C       -2.5698170    -1.0762850    -0.0636830
  H       -1.1173450    -0.1582630     1.2256300
  H       -2.7054590     1.6884420     0.6308980
  H       -1.0118930     1.9864150     0.0562940
  H       -2.2859860     1.4684620    -1.0931860
  H       -3.4570710    -0.8823980     0.5599660
  H       -2.1978010    -2.0840550     0.1452650
  H       -2.8699830    -1.0350880    -1.1185900
units angstrom
no_reorient  #important for SAPT in psi4, default
symmetry c1  #important for SAPT in psi4, default
}

set PROPERTIES_ORIGIN ["COM"]
properties('MP2/aug-cc-pvtz', properties = ['dipole'])
--------------------------------------------------------------------------

    Molecular point group: c1
  Charge       = -2
  Multiplicity = 1
  Basis Set: AUG-CC-PVTZ
    Blend: AUG-CC-PVTZ
  Basis Set: (AUG-CC-PVTZ AUX)
    Blend: AUG-CC-PVTZ-JKFIT

    Orbital Energies [Eh]
    ---------------------

    Doubly Occupied:

       1A    -79.672072     2A    -20.207829     3A    -20.124948
       4A    -20.111981     5A    -20.109736     6A    -10.987289
       7A    -10.962725     8A    -10.945485     9A     -7.186432
      10A     -5.085883    11A     -5.083460    12A     -5.083331
      13A     -0.989394    14A     -0.920344    15A     -0.860842
      16A     -0.854959    17A     -0.756768    18A     -0.669429
      19A     -0.502156    20A     -0.379416    21A     -0.337473
      22A     -0.317216    23A     -0.301801    24A     -0.280053
      25A     -0.240520    26A     -0.229995    27A     -0.220750
      28A     -0.189837    29A     -0.177817    30A     -0.167544
      31A     -0.122310    32A     -0.092129    33A     -0.088716
      34A     -0.080416    35A     -0.054290    36A     -0.047632
      37A     -0.024417

  @DF-RHF Final Energy:  -758.04638173189880

   => Energetics <=

    Nuclear Repulsion Energy =            501.4750304761965936
    One-Electron Energy =               -2070.1080320760001996
    Two-Electron Energy =                 810.5866198679049148
    Total Energy =                       -758.0463817318988049
  Basis Set: (AUG-CC-PVTZ AUX)
    Blend: AUG-CC-PVTZ-RI
    Molecular point group: c1

    Geometry (in Angstrom), charge = -2, multiplicity = 1:

       Center              X                  Y                   Z               Mass
    ------------   -----------------  -----------------  -----------------  -----------------
         P            1.100142702043     0.005981034113     0.046621979903    30.973761998420
         O           -0.463356697957    -0.541338565887    -0.682890120097    15.994914619570
         O            2.015003702043    -0.492656965887    -1.075686020097    15.994914619570
         O            1.062578702043    -0.824744965887     1.343811979903    15.994914619570
         O            1.029919702043     1.536250034113     0.252593979903    15.994914619570
         C           -1.574181297957    -0.037995965887     0.181985979903    12.000000000000
         C           -2.036801297957     1.401252034113    -0.061730020097    12.000000000000
         C           -2.697123297957    -1.048045965887    -0.060455020097    12.000000000000
         H           -1.244651297957    -0.130023965887     1.228857979903     1.007825032230
         H           -2.832765297957     1.716681034113     0.634125979903     1.007825032230
         H           -1.139199297957     2.014654034113     0.059521979903     1.007825032230
         H           -2.413292297957     1.496701034113    -1.089958020097     1.007825032230
         H           -3.584377297957    -0.854158965887     0.563193979903     1.007825032230
         H           -2.325107297957    -2.055815965887     0.148492979903     1.007825032230
         H           -2.997289297957    -1.006848965887    -1.115362020097     1.007825032230

  Basis Set: AUG-CC-PVTZ
    Blend: AUG-CC-PVTZ
  Basis Set: (AUG-CC-PVTZ AUX)
    Blend: AUG-CC-PVTZ-JKFIT
	 Reference Energy          =    -758.0463817318988049 [Eh]
	 Singles Energy            =      -0.0000000000000000 [Eh]
	 Same-Spin Energy          =      -0.4706360098455458 [Eh]
	 Opposite-Spin Energy      =      -1.4067486548553960 [Eh]
	 Correlation Energy        =      -1.8773846647009418 [Eh]
	 Total Energy              =    -759.9237663965997172 [Eh]

	 ================> DF-SCS-MP2 Energies <==================
	-----------------------------------------------------------
	 SCS Same-Spin Scale       =       0.3333333333333333 [-]
	 SCS Opposite-Spin Scale   =       1.2000000000000000 [-]
	 SCS Same-Spin Energy      =      -0.1568786699485152 [Eh]
	 SCS Opposite-Spin Energy  =      -1.6880983858264751 [Eh]
	 SCS Correlation Energy    =      -1.8449770557749903 [Eh]
	 SCS Total Energy          =    -759.8913587876737665 [Eh]
	-----------------------------------------------------------

  Dipole Moment: [D]
     X:    -8.5552      Y:     0.4379      Z:     0.1224     Total:     8.5673

*** Psi4 exiting successfully. Buy a developer a beer!
