                               Psi4 1.4a3.dev225

  ==> Input File <==

--------------------------------------------------------------------------
#psi4
#
memory 32 gb

molecule  {
-2 1
  P        1.2274490    -0.0222580     0.0433940
  O       -0.3905570    -0.3882050    -0.6807720
  O        2.1423100    -0.5208960    -1.0789140
  O        1.1898850    -0.8529840     1.3405840
  O        1.1572260     1.5080110     0.2493660
  C       -1.4468750    -0.0662350     0.1787580
  C       -1.9094950     1.3730130    -0.0649580
  C       -2.5698170    -1.0762850    -0.0636830
  H       -1.1173450    -0.1582630     1.2256300
  H       -2.7054590     1.6884420     0.6308980
  H       -1.0118930     1.9864150     0.0562940
  H       -2.2859860     1.4684620    -1.0931860
  H       -3.4570710    -0.8823980     0.5599660
  H       -2.1298140    -2.2682278     0.1834508
  H       -2.8699830    -1.0350880    -1.1185900
units angstrom
no_reorient  #important for SAPT in psi4, default
symmetry c1  #important for SAPT in psi4, default
}

set PROPERTIES_ORIGIN ["COM"]
properties('MP2/aug-cc-pvtz', properties = ['dipole'])
--------------------------------------------------------------------------

    Molecular point group: c1
  Charge       = -2
  Multiplicity = 1
  Basis Set: AUG-CC-PVTZ
    Blend: AUG-CC-PVTZ
  Basis Set: (AUG-CC-PVTZ AUX)
    Blend: AUG-CC-PVTZ-JKFIT

    Orbital Energies [Eh]
    ---------------------

    Doubly Occupied:

       1A    -79.675612     2A    -20.203105     3A    -20.119411
       4A    -20.118587     5A    -20.116661     6A    -10.986167
       7A    -10.983641     8A    -10.939266     9A     -7.189831
      10A     -5.089307    11A     -5.086818    12A     -5.086756
      13A     -1.015545    14A     -0.929617    15A     -0.860809
      16A     -0.860127    17A     -0.748122    18A     -0.659077
      19A     -0.500161    20A     -0.394108    21A     -0.320946
      22A     -0.319169    23A     -0.301189    24A     -0.277137
      25A     -0.245526    26A     -0.240950    27A     -0.214398
      28A     -0.187515    29A     -0.183201    30A     -0.163221
      31A     -0.116377    32A     -0.095144    33A     -0.092128
      34A     -0.083412    35A     -0.057905    36A     -0.050804
      37A     -0.027054

  @DF-RHF Final Energy:  -758.04174624247003

   => Energetics <=

    Nuclear Repulsion Energy =            502.8044409433634883
    One-Electron Energy =               -2072.6147698749209667
    Two-Electron Energy =                 811.7685826890874523
    Total Energy =                       -758.0417462424700261
  Basis Set: (AUG-CC-PVTZ AUX)
    Blend: AUG-CC-PVTZ-RI
    Molecular point group: c1

    Geometry (in Angstrom), charge = -2, multiplicity = 1:

       Center              X                  Y                   Z               Mass
    ------------   -----------------  -----------------  -----------------  -----------------
         P            1.105963439056    -0.013694792235     0.045723518637    30.973761998420
         O           -0.512042560944    -0.379641792235    -0.678442481363    15.994914619570
         O            2.020824439056    -0.512332792235    -1.076584481363    15.994914619570
         O            1.068399439056    -0.844420792235     1.342913518637    15.994914619570
         O            1.035740439056     1.516574207765     0.251695518637    15.994914619570
         C           -1.568360560944    -0.057671792235     0.181087518637    12.000000000000
         C           -2.030980560944     1.381576207765    -0.062628481363    12.000000000000
         C           -2.691302560944    -1.067721792235    -0.061353481363    12.000000000000
         H           -1.238830560944    -0.149699792235     1.227959518637     1.007825032230
         H           -2.826944560944     1.697005207765     0.633227518637     1.007825032230
         H           -1.133378560944     1.994978207765     0.058623518637     1.007825032230
         H           -2.407471560944     1.477025207765    -1.090856481363     1.007825032230
         H           -3.578556560944    -0.873834792235     0.562295518637     1.007825032230
         H           -2.251299560944    -2.259664592235     0.185780318637     1.007825032230
         H           -2.991468560944    -1.026524792235    -1.116260481363     1.007825032230

  Basis Set: AUG-CC-PVTZ
    Blend: AUG-CC-PVTZ
  Basis Set: (AUG-CC-PVTZ AUX)
    Blend: AUG-CC-PVTZ-JKFIT
	 Reference Energy          =    -758.0417462424700261 [Eh]
	 Singles Energy            =      -0.0000000000000000 [Eh]
	 Same-Spin Energy          =      -0.4696067577314862 [Eh]
	 Opposite-Spin Energy      =      -1.4045984897651778 [Eh]
	 Correlation Energy        =      -1.8742052474966640 [Eh]
	 Total Energy              =    -759.9159514899666874 [Eh]

	 ================> DF-SCS-MP2 Energies <==================
	-----------------------------------------------------------
	 SCS Same-Spin Scale       =       0.3333333333333333 [-]
	 SCS Opposite-Spin Scale   =       1.2000000000000000 [-]
	 SCS Same-Spin Energy      =      -0.1565355859104954 [Eh]
	 SCS Opposite-Spin Energy  =      -1.6855181877182133 [Eh]
	 SCS Correlation Energy    =      -1.8420537736287086 [Eh]
	 SCS Total Energy          =    -759.8838000160986894 [Eh]
	-----------------------------------------------------------

  Dipole Moment: [D]
     X:    -8.1964      Y:     0.3147      Z:     0.0257     Total:     8.2025

*** Psi4 exiting successfully. Buy a developer a beer!
