                               Psi4 1.4a3.dev225

  ==> Input File <==

--------------------------------------------------------------------------
#psi4
#
memory 32 gb

molecule  {
-2 1
  P        1.2274490    -0.0222580     0.0433940
  O       -0.3905570    -0.3882050    -0.6807720
  O        2.1423100    -0.5208960    -1.0789140
  O        1.1898850    -0.8529840     1.3405840
  O        1.1572260     1.5080110     0.2493660
  C       -1.4468750    -0.0662350     0.1787580
  C       -1.9699173     1.5609915    -0.0967895
  C       -2.5698170    -1.0762850    -0.0636830
  H       -1.1173450    -0.1582630     1.2256300
  H       -2.7054590     1.6884420     0.6308980
  H       -1.0118930     1.9864150     0.0562940
  H       -2.2859860     1.4684620    -1.0931860
  H       -3.4570710    -0.8823980     0.5599660
  H       -2.1978010    -2.0840550     0.1452650
  H       -2.8699830    -1.0350880    -1.1185900
units angstrom
no_reorient  #important for SAPT in psi4, default
symmetry c1  #important for SAPT in psi4, default
}

set PROPERTIES_ORIGIN ["COM"]
properties('MP2/aug-cc-pvtz', properties = ['dipole'])
--------------------------------------------------------------------------

    Molecular point group: c1
  Charge       = -2
  Multiplicity = 1
  Basis Set: AUG-CC-PVTZ
    Blend: AUG-CC-PVTZ
  Basis Set: (AUG-CC-PVTZ AUX)
    Blend: AUG-CC-PVTZ-JKFIT

    Orbital Energies [Eh]
    ---------------------

    Doubly Occupied:

       1A    -79.676676     2A    -20.207380     3A    -20.120143
       4A    -20.119897     5A    -20.117725     6A    -10.994323
       7A    -10.964773     8A    -10.929803     9A     -7.190932
      10A     -5.090420    11A     -5.087904    12A     -5.087845
      13A     -1.014982    14A     -0.930020    15A     -0.861762
      16A     -0.861041    17A     -0.739235    18A     -0.665190
      19A     -0.501497    20A     -0.391660    21A     -0.329534
      22A     -0.321834    23A     -0.307274    24A     -0.293206
      25A     -0.252713    26A     -0.252135    27A     -0.221894
      28A     -0.184824    29A     -0.180547    30A     -0.165276
      31A     -0.096906    32A     -0.094416    33A     -0.091346
      34A     -0.084781    35A     -0.058763    36A     -0.049749
      37A     -0.027983

  @DF-RHF Final Energy:  -758.03546369241189

   => Energetics <=

    Nuclear Repulsion Energy =            500.0288853039577930
    One-Electron Energy =               -2066.9959270396802822
    Two-Electron Energy =                 808.9315780433105374
    Total Energy =                       -758.0354636924118950
  Basis Set: (AUG-CC-PVTZ AUX)
    Blend: AUG-CC-PVTZ-RI
    Molecular point group: c1

    Geometry (in Angstrom), charge = -2, multiplicity = 1:

       Center              X                  Y                   Z               Mass
    ------------   -----------------  -----------------  -----------------  -----------------
         P            1.111713725091    -0.031384726848     0.048770168171    30.973761998420
         O           -0.506292274909    -0.397331726848    -0.675395831829    15.994914619570
         O            2.026574725091    -0.530022726848    -1.073537831829    15.994914619570
         O            1.074149725091    -0.862110726848     1.345960168171    15.994914619570
         O            1.041490725091     1.498884273152     0.254742168171    15.994914619570
         C           -1.562610274909    -0.075361726848     0.184134168171    12.000000000000
         C           -2.085652574909     1.551864773152    -0.091413331829    12.000000000000
         C           -2.685552274909    -1.085411726848    -0.058306831829    12.000000000000
         H           -1.233080274909    -0.167389726848     1.231006168171     1.007825032230
         H           -2.821194274909     1.679315273152     0.636274168171     1.007825032230
         H           -1.127628274909     1.977288273152     0.061670168171     1.007825032230
         H           -2.401721274909     1.459335273152    -1.087809831829     1.007825032230
         H           -3.572806274909    -0.891524726848     0.565342168171     1.007825032230
         H           -2.313536274909    -2.093181726848     0.150641168171     1.007825032230
         H           -2.985718274909    -1.044214726848    -1.113213831829     1.007825032230

  Basis Set: AUG-CC-PVTZ
    Blend: AUG-CC-PVTZ
  Basis Set: (AUG-CC-PVTZ AUX)
    Blend: AUG-CC-PVTZ-JKFIT
	 Reference Energy          =    -758.0354636924118950 [Eh]
	 Singles Energy            =      -0.0000000000000000 [Eh]
	 Same-Spin Energy          =      -0.4704430561227275 [Eh]
	 Opposite-Spin Energy      =      -1.4053423028899874 [Eh]
	 Correlation Energy        =      -1.8757853590127149 [Eh]
	 Total Energy              =    -759.9112490514246474 [Eh]

	 ================> DF-SCS-MP2 Energies <==================
	-----------------------------------------------------------
	 SCS Same-Spin Scale       =       0.3333333333333333 [-]
	 SCS Opposite-Spin Scale   =       1.2000000000000000 [-]
	 SCS Same-Spin Energy      =      -0.1568143520409092 [Eh]
	 SCS Opposite-Spin Energy  =      -1.6864107634679848 [Eh]
	 SCS Correlation Energy    =      -1.8432251155088939 [Eh]
	 SCS Total Energy          =    -759.8786888079207529 [Eh]
	-----------------------------------------------------------

  Dipole Moment: [D]
     X:    -8.1114      Y:    -0.2529      Z:     0.0710     Total:     8.1157

*** Psi4 exiting successfully. Buy a developer a beer!
