                               Psi4 1.4a3.dev225

  ==> Input File <==

--------------------------------------------------------------------------
#psi4
#
memory 32 gb

molecule  {
-2 1
  P        1.2274490    -0.0222580     0.0433940
  O       -0.3905570    -0.3882050    -0.6807720
  O        2.1285053    -0.5710490    -1.0666113
  O        1.1898850    -0.8529840     1.3405840
  O        1.1572260     1.5080110     0.2493660
  C       -1.4468750    -0.0662350     0.1787580
  C       -1.9094950     1.3730130    -0.0649580
  C       -2.5698170    -1.0762850    -0.0636830
  H       -1.1173450    -0.1582630     1.2256300
  H       -2.7054590     1.6884420     0.6308980
  H       -1.0118930     1.9864150     0.0562940
  H       -2.2859860     1.4684620    -1.0931860
  H       -3.4570710    -0.8823980     0.5599660
  H       -2.1978010    -2.0840550     0.1452650
  H       -2.8699830    -1.0350880    -1.1185900
units angstrom
no_reorient  #important for SAPT in psi4, default
symmetry c1  #important for SAPT in psi4, default
}

set PROPERTIES_ORIGIN ["COM"]
properties('MP2/aug-cc-pvtz', properties = ['dipole'])
--------------------------------------------------------------------------

    Molecular point group: c1
  Charge       = -2
  Multiplicity = 1
  Basis Set: AUG-CC-PVTZ
    Blend: AUG-CC-PVTZ
  Basis Set: (AUG-CC-PVTZ AUX)
    Blend: AUG-CC-PVTZ-JKFIT

    Orbital Energies [Eh]
    ---------------------

    Doubly Occupied:

       1A    -79.675205     2A    -20.201534     3A    -20.121941
       4A    -20.116170     5A    -20.116069     6A    -10.980045
       7A    -10.961145     8A    -10.936027     9A     -7.189434
      10A     -5.088920    11A     -5.086448    12A     -5.086325
      13A     -1.014153    14A     -0.929101    15A     -0.862764
      16A     -0.857903    17A     -0.749532    18A     -0.665810
      19A     -0.500048    20A     -0.392109    21A     -0.335199
      22A     -0.317399    23A     -0.302937    24A     -0.276586
      25A     -0.244046    26A     -0.243113    27A     -0.224660
      28A     -0.189995    29A     -0.182317    30A     -0.161396
      31A     -0.114718    32A     -0.095096    33A     -0.091630
      34A     -0.082501    35A     -0.057449    36A     -0.050441
      37A     -0.026781

  @DF-RHF Final Energy:  -758.06074551894051

   => Energetics <=

    Nuclear Repulsion Energy =            503.6450476912063436
    One-Electron Energy =               -2074.3576958341982390
    Two-Electron Energy =                 812.6519026240513313
    Total Energy =                       -758.0607455189405073
  Basis Set: (AUG-CC-PVTZ AUX)
    Blend: AUG-CC-PVTZ-RI
    Molecular point group: c1

    Geometry (in Angstrom), charge = -2, multiplicity = 1:

       Center              X                  Y                   Z               Mass
    ------------   -----------------  -----------------  -----------------  -----------------
         P            1.108059865263    -0.009227093837     0.044576514069    30.973761998420
         O           -0.509946134737    -0.375174093837    -0.679589485931    15.994914619570
         O            2.009116165263    -0.558018093837    -1.065428785931    15.994914619570
         O            1.070495865263    -0.839953093837     1.341766514069    15.994914619570
         O            1.037836865263     1.521041906163     0.250548514069    15.994914619570
         C           -1.566264134737    -0.053204093837     0.179940514069    12.000000000000
         C           -2.028884134737     1.386043906163    -0.063775485931    12.000000000000
         C           -2.689206134737    -1.063254093837    -0.062500485931    12.000000000000
         H           -1.236734134737    -0.145232093837     1.226812514069     1.007825032230
         H           -2.824848134737     1.701472906163     0.632080514069     1.007825032230
         H           -1.131282134737     1.999445906163     0.057476514069     1.007825032230
         H           -2.405375134737     1.481492906163    -1.092003485931     1.007825032230
         H           -3.576460134737    -0.869367093837     0.561148514069     1.007825032230
         H           -2.317190134737    -2.071024093837     0.146447514069     1.007825032230
         H           -2.989372134737    -1.022057093837    -1.117407485931     1.007825032230

  Basis Set: AUG-CC-PVTZ
    Blend: AUG-CC-PVTZ
  Basis Set: (AUG-CC-PVTZ AUX)
    Blend: AUG-CC-PVTZ-JKFIT
	 Reference Energy          =    -758.0607455189405073 [Eh]
	 Singles Energy            =      -0.0000000000000000 [Eh]
	 Same-Spin Energy          =      -0.4697404708482008 [Eh]
	 Opposite-Spin Energy      =      -1.4032383983516041 [Eh]
	 Correlation Energy        =      -1.8729788691998048 [Eh]
	 Total Energy              =    -759.9337243881402628 [Eh]

	 ================> DF-SCS-MP2 Energies <==================
	-----------------------------------------------------------
	 SCS Same-Spin Scale       =       0.3333333333333333 [-]
	 SCS Opposite-Spin Scale   =       1.2000000000000000 [-]
	 SCS Same-Spin Energy      =      -0.1565801569494003 [Eh]
	 SCS Opposite-Spin Energy  =      -1.6838860780219249 [Eh]
	 SCS Correlation Energy    =      -1.8404662349713252 [Eh]
	 SCS Total Energy          =    -759.9012117539118663 [Eh]
	-----------------------------------------------------------

  Dipole Moment: [D]
     X:    -8.1900      Y:     0.2149      Z:     0.0217     Total:     8.1928

*** Psi4 exiting successfully. Buy a developer a beer!
