                               Psi4 1.4a3.dev225

  ==> Input File <==

--------------------------------------------------------------------------
#psi4
#
memory 32 gb

molecule  {
-2 1
  P        1.2274490    -0.0222580     0.0433940
  O       -0.3905570    -0.3882050    -0.6807720
  O        2.1423100    -0.5208960    -1.0789140
  O        1.1898850    -0.8529840     1.3405840
  O        1.1572260     1.5080110     0.2493660
  C       -1.4468750    -0.0662350     0.1787580
  C       -1.9094950     1.3730130    -0.0649580
  C       -2.5698170    -1.0762850    -0.0636830
  H       -1.1173450    -0.1582630     1.2256300
  H       -2.6910302     1.6827241     0.6182839
  H       -1.0118930     1.9864150     0.0562940
  H       -2.2859860     1.4684620    -1.0931860
  H       -3.4570710    -0.8823980     0.5599660
  H       -2.1978010    -2.0840550     0.1452650
  H       -2.8699830    -1.0350880    -1.1185900
units angstrom
no_reorient  #important for SAPT in psi4, default
symmetry c1  #important for SAPT in psi4, default
}

set PROPERTIES_ORIGIN ["COM"]
properties('MP2/aug-cc-pvtz', properties = ['dipole'])
--------------------------------------------------------------------------

    Molecular point group: c1
  Charge       = -2
  Multiplicity = 1
  Basis Set: AUG-CC-PVTZ
    Blend: AUG-CC-PVTZ
  Basis Set: (AUG-CC-PVTZ AUX)
    Blend: AUG-CC-PVTZ-JKFIT

    Orbital Energies [Eh]
    ---------------------

    Doubly Occupied:

       1A    -79.674962     2A    -20.201980     3A    -20.118509
       4A    -20.118241     5A    -20.116150     6A    -10.980222
       7A    -10.961475     8A    -10.933031     9A     -7.189177
      10A     -5.088649    11A     -5.086169    12A     -5.086107
      13A     -1.014319    14A     -0.928934    15A     -0.860217
      16A     -0.859552    17A     -0.750232    18A     -0.667013
      19A     -0.500803    20A     -0.392504    21A     -0.335326
      22A     -0.319036    23A     -0.302972    24A     -0.277464
      25A     -0.244371    26A     -0.243380    27A     -0.224705
      28A     -0.189491    29A     -0.182215    30A     -0.161494
      31A     -0.114834    32A     -0.094534    33A     -0.091600
      34A     -0.082410    35A     -0.057367    36A     -0.049945
      37A     -0.026482

  @DF-RHF Final Energy:  -758.06124068271879

   => Energetics <=

    Nuclear Repulsion Energy =            503.6606568457801814
    One-Electron Energy =               -2074.3920501218249228
    Two-Electron Energy =                 812.6701525933260655
    Total Energy =                       -758.0612406827187897
  Basis Set: (AUG-CC-PVTZ AUX)
    Blend: AUG-CC-PVTZ-RI
    Molecular point group: c1

    Geometry (in Angstrom), charge = -2, multiplicity = 1:

       Center              X                  Y                   Z               Mass
    ------------   -----------------  -----------------  -----------------  -----------------
         P            1.106354555644    -0.014997985240     0.046094492336    30.973761998420
         O           -0.511651444356    -0.380944985240    -0.678071507664    15.994914619570
         O            2.021215555644    -0.513635985240    -1.076213507664    15.994914619570
         O            1.068790555644    -0.845723985240     1.343284492336    15.994914619570
         O            1.036131555644     1.515271014760     0.252066492336    15.994914619570
         C           -1.567969444356    -0.058974985240     0.181458492336    12.000000000000
         C           -2.030589444356     1.380273014760    -0.062257507664    12.000000000000
         C           -2.690911444356    -1.069024985240    -0.060982507664    12.000000000000
         H           -1.238439444356    -0.151002985240     1.228330492336     1.007825032230
         H           -2.812124644356     1.689984114760     0.620984392336     1.007825032230
         H           -1.132987444356     1.993675014760     0.058994492336     1.007825032230
         H           -2.407080444356     1.475722014760    -1.090485507664     1.007825032230
         H           -3.578165444356    -0.875137985240     0.562666492336     1.007825032230
         H           -2.318895444356    -2.076794985240     0.147965492336     1.007825032230
         H           -2.991077444356    -1.027827985240    -1.115889507664     1.007825032230

  Basis Set: AUG-CC-PVTZ
    Blend: AUG-CC-PVTZ
  Basis Set: (AUG-CC-PVTZ AUX)
    Blend: AUG-CC-PVTZ-JKFIT
	 Reference Energy          =    -758.0612406827187897 [Eh]
	 Singles Energy            =      -0.0000000000000000 [Eh]
	 Same-Spin Energy          =      -0.4697052199699078 [Eh]
	 Opposite-Spin Energy      =      -1.4030307253714391 [Eh]
	 Correlation Energy        =      -1.8727359453413470 [Eh]
	 Total Energy              =    -759.9339766280601225 [Eh]

	 ================> DF-SCS-MP2 Energies <==================
	-----------------------------------------------------------
	 SCS Same-Spin Scale       =       0.3333333333333333 [-]
	 SCS Opposite-Spin Scale   =       1.2000000000000000 [-]
	 SCS Same-Spin Energy      =      -0.1565684066566359 [Eh]
	 SCS Opposite-Spin Energy  =      -1.6836368704457270 [Eh]
	 SCS Correlation Energy    =      -1.8402052771023629 [Eh]
	 SCS Total Energy          =    -759.9014459598211033 [Eh]
	-----------------------------------------------------------

  Dipole Moment: [D]
     X:    -8.2527      Y:     0.1016      Z:     0.0718     Total:     8.2536

*** Psi4 exiting successfully. Buy a developer a beer!
