                               Psi4 1.4a3.dev225

  ==> Input File <==

--------------------------------------------------------------------------
#psi4
#
memory 32 gb

molecule  {
-2 1
  P        1.2274490    -0.0222580     0.0433940
  O       -0.3905570    -0.3882050    -0.6807720
  O        2.1423100    -0.5208960    -1.0789140
  O        1.1898850    -0.8529840     1.3405840
  O        1.1572260     1.5080110     0.2493660
  C       -1.4619719    -0.0616334     0.1910424
  C       -1.9094950     1.3730130    -0.0649580
  C       -2.5698170    -1.0762850    -0.0636830
  H       -1.1173450    -0.1582630     1.2256300
  H       -2.7054590     1.6884420     0.6308980
  H       -1.0118930     1.9864150     0.0562940
  H       -2.2859860     1.4684620    -1.0931860
  H       -3.4570710    -0.8823980     0.5599660
  H       -2.1978010    -2.0840550     0.1452650
  H       -2.8699830    -1.0350880    -1.1185900
units angstrom
no_reorient  #important for SAPT in psi4, default
symmetry c1  #important for SAPT in psi4, default
}

set PROPERTIES_ORIGIN ["COM"]
properties('MP2/aug-cc-pvtz', properties = ['dipole'])
--------------------------------------------------------------------------

    Molecular point group: c1
  Charge       = -2
  Multiplicity = 1
  Basis Set: AUG-CC-PVTZ
    Blend: AUG-CC-PVTZ
  Basis Set: (AUG-CC-PVTZ AUX)
    Blend: AUG-CC-PVTZ-JKFIT

    Orbital Energies [Eh]
    ---------------------

    Doubly Occupied:

       1A    -79.674195     2A    -20.200977     3A    -20.118024
       4A    -20.117758     5A    -20.115615     6A    -10.980001
       7A    -10.962371     8A    -10.936791     9A     -7.188390
      10A     -5.087844    11A     -5.085400    12A     -5.085339
      13A     -1.007617    14A     -0.927270    15A     -0.859690
      16A     -0.859074    17A     -0.752188    18A     -0.667531
      19A     -0.501599    20A     -0.390401    21A     -0.336439
      22A     -0.316983    23A     -0.302936    24A     -0.277781
      25A     -0.243654    26A     -0.238449    27A     -0.225047
      28A     -0.190170    29A     -0.182051    30A     -0.162150
      31A     -0.116099    32A     -0.093996    33A     -0.091091
      34A     -0.081801    35A     -0.056726    36A     -0.049466
      37A     -0.026029

  @DF-RHF Final Energy:  -758.06052181967743

   => Energetics <=

    Nuclear Repulsion Energy =            503.2589180123870847
    One-Electron Energy =               -2073.6209926253973208
    Two-Electron Energy =                 812.3015527933328030
    Total Energy =                       -758.0605218196774331
  Basis Set: (AUG-CC-PVTZ AUX)
    Blend: AUG-CC-PVTZ-RI
    Molecular point group: c1

    Geometry (in Angstrom), charge = -2, multiplicity = 1:

       Center              X                  Y                   Z               Mass
    ------------   -----------------  -----------------  -----------------  -----------------
         P            1.107772620019    -0.015439856409     0.044934230767    30.973761998420
         O           -0.510233379981    -0.381386856409    -0.679231769233    15.994914619570
         O            2.022633620019    -0.514077856409    -1.077373769233    15.994914619570
         O            1.070208620019    -0.846165856409     1.342124230767    15.994914619570
         O            1.037549620019     1.514829143591     0.250906230767    15.994914619570
         C           -1.581648279981    -0.054815256409     0.192582630767    12.000000000000
         C           -2.029171379981     1.379831143591    -0.063417769233    12.000000000000
         C           -2.689493379981    -1.069466856409    -0.062142769233    12.000000000000
         H           -1.237021379981    -0.151444856409     1.227170230767     1.007825032230
         H           -2.825135379981     1.695260143591     0.632438230767     1.007825032230
         H           -1.131569379981     1.993233143591     0.057834230767     1.007825032230
         H           -2.405662379981     1.475280143591    -1.091645769233     1.007825032230
         H           -3.576747379981    -0.875579856409     0.561506230767     1.007825032230
         H           -2.317477379981    -2.077236856409     0.146805230767     1.007825032230
         H           -2.989659379981    -1.028269856409    -1.117049769233     1.007825032230

  Basis Set: AUG-CC-PVTZ
    Blend: AUG-CC-PVTZ
  Basis Set: (AUG-CC-PVTZ AUX)
    Blend: AUG-CC-PVTZ-JKFIT
	 Reference Energy          =    -758.0605218196774331 [Eh]
	 Singles Energy            =      -0.0000000000000000 [Eh]
	 Same-Spin Energy          =      -0.4697345347797249 [Eh]
	 Opposite-Spin Energy      =      -1.4034667606379463 [Eh]
	 Correlation Energy        =      -1.8732012954176711 [Eh]
	 Total Energy              =    -759.9337231150950629 [Eh]

	 ================> DF-SCS-MP2 Energies <==================
	-----------------------------------------------------------
	 SCS Same-Spin Scale       =       0.3333333333333333 [-]
	 SCS Opposite-Spin Scale   =       1.2000000000000000 [-]
	 SCS Same-Spin Energy      =      -0.1565781782599083 [Eh]
	 SCS Opposite-Spin Energy  =      -1.6841601127655355 [Eh]
	 SCS Correlation Energy    =      -1.8407382910254437 [Eh]
	 SCS Total Energy          =    -759.9012601107028786 [Eh]
	-----------------------------------------------------------

  Dipole Moment: [D]
     X:    -8.3248      Y:     0.0996      Z:     0.0781     Total:     8.3258

*** Psi4 exiting successfully. Buy a developer a beer!
