                               Psi4 1.4a3.dev225

  ==> Input File <==

--------------------------------------------------------------------------
#psi4
#
memory 32 gb

molecule  {
-2 1
  P        1.2274490    -0.0222580     0.0433940
  O       -0.3905570    -0.3882050    -0.6807720
  O        2.1423100    -0.5208960    -1.0789140
  O        1.1898850    -0.8529840     1.3405840
  O        1.1572260     1.5080110     0.2493660
  C       -1.4468750    -0.0662350     0.1787580
  C       -1.9094950     1.3730130    -0.0649580
  C       -2.5698170    -1.0762850    -0.0636830
  H       -1.1173450    -0.1582630     1.2256300
  H       -2.7054590     1.6884420     0.6308980
  H       -1.0118930     1.9864150     0.0562940
  H       -2.2859860     1.4684620    -1.0931860
  H       -3.4120445    -0.8904361     0.6217824
  H       -2.1978010    -2.0840550     0.1452650
  H       -2.8699830    -1.0350880    -1.1185900
units angstrom
no_reorient  #important for SAPT in psi4, default
symmetry c1  #important for SAPT in psi4, default
}

set PROPERTIES_ORIGIN ["COM"]
properties('MP2/aug-cc-pvtz', properties = ['dipole'])
--------------------------------------------------------------------------

    Molecular point group: c1
  Charge       = -2
  Multiplicity = 1
  Basis Set: AUG-CC-PVTZ
    Blend: AUG-CC-PVTZ
  Basis Set: (AUG-CC-PVTZ AUX)
    Blend: AUG-CC-PVTZ-JKFIT

    Orbital Energies [Eh]
    ---------------------

    Doubly Occupied:

       1A    -79.675027     2A    -20.201945     3A    -20.118628
       4A    -20.118321     5A    -20.116204     6A    -10.980122
       7A    -10.961481     8A    -10.935942     9A     -7.189243
      10A     -5.088713    11A     -5.086235    12A     -5.086174
      13A     -1.014382    14A     -0.929019    15A     -0.860290
      16A     -0.859650    17A     -0.750152    18A     -0.665900
      19A     -0.499245    20A     -0.393754    21A     -0.334061
      22A     -0.316740    23A     -0.303970    24A     -0.279810
      25A     -0.244516    26A     -0.241105    27A     -0.224726
      28A     -0.189647    29A     -0.182109    30A     -0.161414
      31A     -0.114904    32A     -0.094620    33A     -0.091677
      34A     -0.082327    35A     -0.057430    36A     -0.050017
      37A     -0.026569

  @DF-RHF Final Energy:  -758.06076416191831

   => Energetics <=

    Nuclear Repulsion Energy =            503.6196753067562213
    One-Electron Energy =               -2074.3087364887510375
    Two-Electron Energy =                 812.6282970200766158
    Total Energy =                       -758.0607641619183141
  Basis Set: (AUG-CC-PVTZ AUX)
    Blend: AUG-CC-PVTZ-RI
    Molecular point group: c1

    Geometry (in Angstrom), charge = -2, multiplicity = 1:

       Center              X                  Y                   Z               Mass
    ------------   -----------------  -----------------  -----------------  -----------------
         P            1.106131111465    -0.014981041640     0.045550952725    30.973761998420
         O           -0.511874888535    -0.380928041640    -0.678615047275    15.994914619570
         O            2.020992111465    -0.513619041640    -1.076757047275    15.994914619570
         O            1.068567111465    -0.845707041640     1.342740952725    15.994914619570
         O            1.035908111465     1.515287958360     0.251522952725    15.994914619570
         C           -1.568192888535    -0.058958041640     0.180914952725    12.000000000000
         C           -2.030812888535     1.380289958360    -0.062801047275    12.000000000000
         C           -2.691134888535    -1.069008041640    -0.061526047275    12.000000000000
         H           -1.238662888535    -0.150986041640     1.227786952725     1.007825032230
         H           -2.826776888535     1.695718958360     0.633054952725     1.007825032230
         H           -1.133210888535     1.993691958360     0.058450952725     1.007825032230
         H           -2.407303888535     1.475738958360    -1.091029047275     1.007825032230
         H           -3.533362388535    -0.883159141640     0.623939352725     1.007825032230
         H           -2.319118888535    -2.076778041640     0.147421952725     1.007825032230
         H           -2.991300888535    -1.027811041640    -1.116433047275     1.007825032230

  Basis Set: AUG-CC-PVTZ
    Blend: AUG-CC-PVTZ
  Basis Set: (AUG-CC-PVTZ AUX)
    Blend: AUG-CC-PVTZ-JKFIT
	 Reference Energy          =    -758.0607641619183141 [Eh]
	 Singles Energy            =      -0.0000000000000000 [Eh]
	 Same-Spin Energy          =      -0.4697192131813129 [Eh]
	 Opposite-Spin Energy      =      -1.4031935831573041 [Eh]
	 Correlation Energy        =      -1.8729127963386172 [Eh]
	 Total Energy              =    -759.9336769582569104 [Eh]

	 ================> DF-SCS-MP2 Energies <==================
	-----------------------------------------------------------
	 SCS Same-Spin Scale       =       0.3333333333333333 [-]
	 SCS Opposite-Spin Scale   =       1.2000000000000000 [-]
	 SCS Same-Spin Energy      =      -0.1565730710604376 [Eh]
	 SCS Opposite-Spin Energy  =      -1.6838322997887649 [Eh]
	 SCS Correlation Energy    =      -1.8404053708492025 [Eh]
	 SCS Total Energy          =    -759.9011695327675397 [Eh]
	-----------------------------------------------------------

  Dipole Moment: [D]
     X:    -8.2165      Y:     0.0790      Z:     0.0678     Total:     8.2171

*** Psi4 exiting successfully. Buy a developer a beer!
