                               Psi4 1.4a3.dev225

  ==> Input File <==

--------------------------------------------------------------------------
#psi4
#
memory 32 gb

molecule  {
-2 1
  P        1.2274490    -0.0222580     0.0433940
  O       -0.3905570    -0.3882050    -0.6807720
  O        2.1423100    -0.5208960    -1.0789140
  O        1.1898850    -0.8529840     1.3405840
  O        1.1572260     1.5080110     0.2493660
  C       -1.4468750    -0.0662350     0.1787580
  C       -1.9094950     1.3730130    -0.0649580
  C       -2.5653148    -1.0920743    -0.0128762
  H       -1.1173450    -0.1582630     1.2256300
  H       -2.7054590     1.6884420     0.6308980
  H       -1.0118930     1.9864150     0.0562940
  H       -2.2859860     1.4684620    -1.0931860
  H       -3.4570710    -0.8823980     0.5599660
  H       -2.1978010    -2.0840550     0.1452650
  H       -2.8699830    -1.0350880    -1.1185900
units angstrom
no_reorient  #important for SAPT in psi4, default
symmetry c1  #important for SAPT in psi4, default
}

set PROPERTIES_ORIGIN ["COM"]
properties('MP2/aug-cc-pvtz', properties = ['dipole'])
--------------------------------------------------------------------------

    Molecular point group: c1
  Charge       = -2
  Multiplicity = 1
  Basis Set: AUG-CC-PVTZ
    Blend: AUG-CC-PVTZ
  Basis Set: (AUG-CC-PVTZ AUX)
    Blend: AUG-CC-PVTZ-JKFIT

    Orbital Energies [Eh]
    ---------------------

    Doubly Occupied:

       1A    -79.675299     2A    -20.202900     3A    -20.118767
       4A    -20.118386     5A    -20.116446     6A    -10.980804
       7A    -10.962390     8A    -10.936613     9A     -7.189513
      10A     -5.088991    11A     -5.086499    12A     -5.086438
      13A     -1.014632    14A     -0.929138    15A     -0.860472
      16A     -0.859754    17A     -0.750213    18A     -0.666933
      19A     -0.500311    20A     -0.391677    21A     -0.341734
      22A     -0.318063    23A     -0.305338    24A     -0.267706
      25A     -0.245931    26A     -0.241456    27A     -0.227381
      28A     -0.190694    29A     -0.181929    30A     -0.158988
      31A     -0.115969    32A     -0.094788    33A     -0.091834
      34A     -0.082808    35A     -0.057584    36A     -0.050310
      37A     -0.026707

  @DF-RHF Final Energy:  -758.05833538636341

   => Energetics <=

    Nuclear Repulsion Energy =            503.4767306026489564
    One-Electron Energy =               -2073.9993416782085660
    Two-Electron Energy =                 812.4642756891961426
    Total Energy =                       -758.0583353863634102
  Basis Set: (AUG-CC-PVTZ AUX)
    Blend: AUG-CC-PVTZ-RI
    Molecular point group: c1

    Geometry (in Angstrom), charge = -2, multiplicity = 1:

       Center              X                  Y                   Z               Mass
    ------------   -----------------  -----------------  -----------------  -----------------
         P            1.106068451663    -0.013666839968     0.041584655782    30.973761998420
         O           -0.511937548337    -0.379613839968    -0.682581344218    15.994914619570
         O            2.020929451663    -0.512304839968    -1.080723344218    15.994914619570
         O            1.068504451663    -0.844392839968     1.338774655782    15.994914619570
         O            1.035845451663     1.516602160032     0.247556655782    15.994914619570
         C           -1.568255548337    -0.057643839968     0.176948655782    12.000000000000
         C           -2.030875548337     1.381604160032    -0.066767344218    12.000000000000
         C           -2.686695348337    -1.083483139968    -0.014685544218    12.000000000000
         H           -1.238725548337    -0.149671839968     1.223820655782     1.007825032230
         H           -2.826839548337     1.697033160032     0.629088655782     1.007825032230
         H           -1.133273548337     1.995006160032     0.054484655782     1.007825032230
         H           -2.407366548337     1.477053160032    -1.094995344218     1.007825032230
         H           -3.578451548337    -0.873806839968     0.558156655782     1.007825032230
         H           -2.319181548337    -2.075463839968     0.143455655782     1.007825032230
         H           -2.991363548337    -1.026496839968    -1.120399344218     1.007825032230

  Basis Set: AUG-CC-PVTZ
    Blend: AUG-CC-PVTZ
  Basis Set: (AUG-CC-PVTZ AUX)
    Blend: AUG-CC-PVTZ-JKFIT
	 Reference Energy          =    -758.0583353863634102 [Eh]
	 Singles Energy            =      -0.0000000000000000 [Eh]
	 Same-Spin Energy          =      -0.4697421048570130 [Eh]
	 Opposite-Spin Energy      =      -1.4032531059735285 [Eh]
	 Correlation Energy        =      -1.8729952108305414 [Eh]
	 Total Energy              =    -759.9313305971940053 [Eh]

	 ================> DF-SCS-MP2 Energies <==================
	-----------------------------------------------------------
	 SCS Same-Spin Scale       =       0.3333333333333333 [-]
	 SCS Opposite-Spin Scale   =       1.2000000000000000 [-]
	 SCS Same-Spin Energy      =      -0.1565807016190043 [Eh]
	 SCS Opposite-Spin Energy  =      -1.6839037271682342 [Eh]
	 SCS Correlation Energy    =      -1.8404844287872386 [Eh]
	 SCS Total Energy          =    -759.8988198151506595 [Eh]
	-----------------------------------------------------------

  Dipole Moment: [D]
     X:    -8.2152      Y:     0.0778      Z:     0.1569     Total:     8.2170

*** Psi4 exiting successfully. Buy a developer a beer!
