                               Psi4 1.4a3.dev225

  ==> Input File <==

--------------------------------------------------------------------------
#psi4
#
memory 32 gb

molecule  {
-2 1
  P        1.2274490    -0.0222580     0.0433940
  O       -0.3905570    -0.3882050    -0.6807720
  O        2.1423100    -0.5208960    -1.0789140
  O        1.1898850    -0.8529840     1.3405840
  O        1.1572260     1.5080110     0.2493660
  C       -1.4468750    -0.0662350     0.1787580
  C       -1.9094950     1.3730130    -0.0649580
  C       -2.5698170    -1.0762850    -0.0636830
  H       -1.1323051    -0.1540851     1.1781038
  H       -2.7054590     1.6884420     0.6308980
  H       -1.0118930     1.9864150     0.0562940
  H       -2.2859860     1.4684620    -1.0931860
  H       -3.4570710    -0.8823980     0.5599660
  H       -2.1978010    -2.0840550     0.1452650
  H       -2.8699830    -1.0350880    -1.1185900
units angstrom
no_reorient  #important for SAPT in psi4, default
symmetry c1  #important for SAPT in psi4, default
}

set PROPERTIES_ORIGIN ["COM"]
properties('MP2/aug-cc-pvtz', properties = ['dipole'])
--------------------------------------------------------------------------

    Molecular point group: c1
  Charge       = -2
  Multiplicity = 1
  Basis Set: AUG-CC-PVTZ
    Blend: AUG-CC-PVTZ
  Basis Set: (AUG-CC-PVTZ AUX)
    Blend: AUG-CC-PVTZ-JKFIT

    Orbital Energies [Eh]
    ---------------------

    Doubly Occupied:

       1A    -79.674951     2A    -20.201340     3A    -20.118627
       4A    -20.118383     5A    -20.116119     6A    -10.974678
       7A    -10.961267     8A    -10.935595     9A     -7.189163
      10A     -5.088629    11A     -5.086159    12A     -5.086099
      13A     -1.014382    14A     -0.929009    15A     -0.860233
      16A     -0.859647    17A     -0.750920    18A     -0.665845
      19A     -0.507622    20A     -0.395322    21A     -0.335500
      22A     -0.317275    23A     -0.302954    24A     -0.276815
      25A     -0.245363    26A     -0.243175    27A     -0.224540
      28A     -0.189691    29A     -0.182895    30A     -0.164475
      31A     -0.115749    32A     -0.094725    33A     -0.091616
      34A     -0.082445    35A     -0.057437    36A     -0.049949
      37A     -0.026555

  @DF-RHF Final Energy:  -758.06061635495450

   => Energetics <=

    Nuclear Repulsion Energy =            503.8062000517003298
    One-Electron Energy =               -2074.6633304770466566
    Two-Electron Energy =                 812.7965140703919360
    Total Energy =                       -758.0606163549545045
  Basis Set: (AUG-CC-PVTZ AUX)
    Blend: AUG-CC-PVTZ-RI
    Molecular point group: c1

    Geometry (in Angstrom), charge = -2, multiplicity = 1:

       Center              X                  Y                   Z               Mass
    ------------   -----------------  -----------------  -----------------  -----------------
         P            1.106569172384    -0.015070250767     0.046349443052    30.973761998420
         O           -0.511436827616    -0.381017250767    -0.677816556948    15.994914619570
         O            2.021430172384    -0.513708250767    -1.075958556948    15.994914619570
         O            1.069005172384    -0.845796250767     1.343539443052    15.994914619570
         O            1.036346172384     1.515198749233     0.252321443052    15.994914619570
         C           -1.567754827616    -0.059047250767     0.181713443052    12.000000000000
         C           -2.030374827616     1.380200749233    -0.062002556948    12.000000000000
         C           -2.690696827616    -1.069097250767    -0.060727556948    12.000000000000
         H           -1.253184927616    -0.146897350767     1.181059243052     1.007825032230
         H           -2.826338827616     1.695629749233     0.633853443052     1.007825032230
         H           -1.132772827616     1.993602749233     0.059249443052     1.007825032230
         H           -2.406865827616     1.475649749233    -1.090230556948     1.007825032230
         H           -3.577950827616    -0.875210250767     0.562921443052     1.007825032230
         H           -2.318680827616    -2.076867250767     0.148220443052     1.007825032230
         H           -2.990862827616    -1.027900250767    -1.115634556948     1.007825032230

  Basis Set: AUG-CC-PVTZ
    Blend: AUG-CC-PVTZ
  Basis Set: (AUG-CC-PVTZ AUX)
    Blend: AUG-CC-PVTZ-JKFIT
	 Reference Energy          =    -758.0606163549545045 [Eh]
	 Singles Energy            =      -0.0000000000000000 [Eh]
	 Same-Spin Energy          =      -0.4694968401738945 [Eh]
	 Opposite-Spin Energy      =      -1.4026682462201556 [Eh]
	 Correlation Energy        =      -1.8721650863940500 [Eh]
	 Total Energy              =    -759.9327814413485385 [Eh]

	 ================> DF-SCS-MP2 Energies <==================
	-----------------------------------------------------------
	 SCS Same-Spin Scale       =       0.3333333333333333 [-]
	 SCS Opposite-Spin Scale   =       1.2000000000000000 [-]
	 SCS Same-Spin Energy      =      -0.1564989467246315 [Eh]
	 SCS Opposite-Spin Energy  =      -1.6832018954641867 [Eh]
	 SCS Correlation Energy    =      -1.8397008421888181 [Eh]
	 SCS Total Energy          =    -759.9003171971432948 [Eh]
	-----------------------------------------------------------

  Dipole Moment: [D]
     X:    -8.2545      Y:     0.0874      Z:     0.0807     Total:     8.2553

*** Psi4 exiting successfully. Buy a developer a beer!
