                               Psi4 1.4a3.dev225

  ==> Input File <==

--------------------------------------------------------------------------
#psi4
#
memory 32 gb

molecule  {
-2 1
  P        1.2274490    -0.0222580     0.0433940
  O       -0.3905570    -0.3882050    -0.6807720
  O        2.1423100    -0.5208960    -1.0789140
  O        1.1898850    -0.8529840     1.3405840
  O        1.1572260     1.5080110     0.2493660
  C       -1.4468750    -0.0662350     0.1787580
  C       -1.9094950     1.3730130    -0.0649580
  C       -2.5715553    -1.0679276    -0.0889795
  H       -1.1173450    -0.1582630     1.2256300
  H       -2.7054590     1.6884420     0.6308980
  H       -1.0118930     1.9864150     0.0562940
  H       -2.2859860     1.4684620    -1.0931860
  H       -3.4570710    -0.8823980     0.5599660
  H       -2.1978010    -2.0840550     0.1452650
  H       -2.8699830    -1.0350880    -1.1185900
units angstrom
no_reorient  #important for SAPT in psi4, default
symmetry c1  #important for SAPT in psi4, default
}

set PROPERTIES_ORIGIN ["COM"]
properties('MP2/aug-cc-pvtz', properties = ['dipole'])
--------------------------------------------------------------------------

    Molecular point group: c1
  Charge       = -2
  Multiplicity = 1
  Basis Set: AUG-CC-PVTZ
    Blend: AUG-CC-PVTZ
  Basis Set: (AUG-CC-PVTZ AUX)
    Blend: AUG-CC-PVTZ-JKFIT

    Orbital Energies [Eh]
    ---------------------

    Doubly Occupied:

       1A    -79.675128     2A    -20.202197     3A    -20.118731
       4A    -20.118456     5A    -20.116298     6A    -10.980629
       7A    -10.961526     8A    -10.935657     9A     -7.189349
      10A     -5.088819    11A     -5.086341    12A     -5.086279
      13A     -1.014760    14A     -0.929188    15A     -0.860393
      16A     -0.859768    17A     -0.749919    18A     -0.665675
      19A     -0.500941    20A     -0.393005    21A     -0.333235
      22A     -0.318511    23A     -0.301137    24A     -0.281091
      25A     -0.244911    26A     -0.242232    27A     -0.223086
      28A     -0.189209    29A     -0.182655    30A     -0.162802
      31A     -0.114767    32A     -0.094708    33A     -0.091783
      34A     -0.082580    35A     -0.057561    36A     -0.050124
      37A     -0.026674

  @DF-RHF Final Energy:  -758.06049380452453

   => Energetics <=

    Nuclear Repulsion Energy =            503.6114371185896061
    One-Electron Energy =               -2074.2836143306972190
    Two-Electron Energy =                 812.6116834075832003
    Total Energy =                       -758.0604938045245262
  Basis Set: (AUG-CC-PVTZ AUX)
    Blend: AUG-CC-PVTZ-RI
    Molecular point group: c1

    Geometry (in Angstrom), charge = -2, multiplicity = 1:

       Center              X                  Y                   Z               Mass
    ------------   -----------------  -----------------  -----------------  -----------------
         P            1.106611071611    -0.015766428318     0.048201941048    30.973761998420
         O           -0.511394928389    -0.381713428318    -0.675964058952    15.994914619570
         O            2.021472071611    -0.514404428318    -1.074106058952    15.994914619570
         O            1.069047071611    -0.846492428318     1.345391941048    15.994914619570
         O            1.036388071611     1.514502571682     0.254173941048    15.994914619570
         C           -1.567712928389    -0.059743428318     0.183565941048    12.000000000000
         C           -2.030332928389     1.379504571682    -0.060150058952    12.000000000000
         C           -2.692393228389    -1.061436028318    -0.084171558952    12.000000000000
         H           -1.238182928389    -0.151771428318     1.230437941048     1.007825032230
         H           -2.826296928389     1.694933571682     0.635705941048     1.007825032230
         H           -1.132730928389     1.992906571682     0.061101941048     1.007825032230
         H           -2.406823928389     1.474953571682    -1.088378058952     1.007825032230
         H           -3.577908928389    -0.875906428318     0.564773941048     1.007825032230
         H           -2.318638928389    -2.077563428318     0.150072941048     1.007825032230
         H           -2.990820928389    -1.028596428318    -1.113782058952     1.007825032230

  Basis Set: AUG-CC-PVTZ
    Blend: AUG-CC-PVTZ
  Basis Set: (AUG-CC-PVTZ AUX)
    Blend: AUG-CC-PVTZ-JKFIT
	 Reference Energy          =    -758.0604938045245262 [Eh]
	 Singles Energy            =      -0.0000000000000000 [Eh]
	 Same-Spin Energy          =      -0.4696823254147295 [Eh]
	 Opposite-Spin Energy      =      -1.4031649246827231 [Eh]
	 Correlation Energy        =      -1.8728472500974527 [Eh]
	 Total Energy              =    -759.9333410546220193 [Eh]

	 ================> DF-SCS-MP2 Energies <==================
	-----------------------------------------------------------
	 SCS Same-Spin Scale       =       0.3333333333333333 [-]
	 SCS Opposite-Spin Scale   =       1.2000000000000000 [-]
	 SCS Same-Spin Energy      =      -0.1565607751382432 [Eh]
	 SCS Opposite-Spin Energy  =      -1.6837979096192677 [Eh]
	 SCS Correlation Energy    =      -1.8403586847575109 [Eh]
	 SCS Total Energy          =    -759.9008524892819878 [Eh]
	-----------------------------------------------------------

  Dipole Moment: [D]
     X:    -8.2240      Y:     0.0933      Z:     0.0105     Total:     8.2245

*** Psi4 exiting successfully. Buy a developer a beer!
