                               Psi4 1.4a3.dev225

  ==> Input File <==

--------------------------------------------------------------------------
#psi4
#
memory 32 gb

molecule  {
-2 1
  P        1.2274490    -0.0222580     0.0433940
  O       -0.3905570    -0.3882050    -0.6807720
  O        2.1423100    -0.5208960    -1.0789140
  O        1.1898850    -0.8529840     1.3405840
  O        1.1572260     1.5080110     0.2493660
  C       -1.4468750    -0.0662350     0.1787580
  C       -1.9094950     1.3730130    -0.0649580
  C       -2.4964076    -1.0102556    -0.0478341
  H       -1.1173450    -0.1582630     1.2256300
  H       -2.7054590     1.6884420     0.6308980
  H       -1.0118930     1.9864150     0.0562940
  H       -2.2859860     1.4684620    -1.0931860
  H       -3.4570710    -0.8823980     0.5599660
  H       -2.1978010    -2.0840550     0.1452650
  H       -2.8699830    -1.0350880    -1.1185900
units angstrom
no_reorient  #important for SAPT in psi4, default
symmetry c1  #important for SAPT in psi4, default
}

set PROPERTIES_ORIGIN ["COM"]
properties('MP2/aug-cc-pvtz', properties = ['dipole'])
--------------------------------------------------------------------------

    Molecular point group: c1
  Charge       = -2
  Multiplicity = 1
  Basis Set: AUG-CC-PVTZ
    Blend: AUG-CC-PVTZ
  Basis Set: (AUG-CC-PVTZ AUX)
    Blend: AUG-CC-PVTZ-JKFIT

    Orbital Energies [Eh]
    ---------------------

    Doubly Occupied:

       1A    -79.675158     2A    -20.202347     3A    -20.118724
       4A    -20.118534     5A    -20.116334     6A    -10.973580
       7A    -10.970091     8A    -10.936057     9A     -7.189383
      10A     -5.088853    11A     -5.086374    12A     -5.086314
      13A     -1.017615    14A     -0.930128    15A     -0.860430
      16A     -0.859802    17A     -0.762532    18A     -0.663824
      19A     -0.503698    20A     -0.396718    21A     -0.337738
      22A     -0.325024    23A     -0.297665    24A     -0.266765
      25A     -0.244913    26A     -0.238642    27A     -0.220438
      28A     -0.190578    29A     -0.183458    30A     -0.164918
      31A     -0.115820    32A     -0.094689    33A     -0.091827
      34A     -0.083857    35A     -0.057566    36A     -0.050613
      37A     -0.026717

  @DF-RHF Final Energy:  -758.05007848598882

   => Energetics <=

    Nuclear Repulsion Energy =            505.5228846810219352
    One-Electron Energy =               -2078.0504768373220941
    Two-Electron Energy =                 814.4775136703113958
    Total Energy =                       -758.0500784859888199
  Basis Set: (AUG-CC-PVTZ AUX)
    Blend: AUG-CC-PVTZ-RI
    Molecular point group: c1

    Geometry (in Angstrom), charge = -2, multiplicity = 1:

       Center              X                  Y                   Z               Mass
    ------------   -----------------  -----------------  -----------------  -----------------
         P            1.100076877063    -0.020781087024     0.044624292652    30.973761998420
         O           -0.517929122937    -0.386728087024    -0.679541707348    15.994914619570
         O            2.014937877063    -0.519419087024    -1.077683707348    15.994914619570
         O            1.062512877063    -0.851507087024     1.341814292652    15.994914619570
         O            1.029853877063     1.509487912976     0.250596292652    15.994914619570
         C           -1.574247122937    -0.064758087024     0.179988292652    12.000000000000
         C           -2.036867122937     1.374489912976    -0.063727707348    12.000000000000
         C           -2.623779722937    -1.008778687024    -0.046603807348    12.000000000000
         H           -1.244717122937    -0.156786087024     1.226860292652     1.007825032230
         H           -2.832831122937     1.689918912976     0.632128292652     1.007825032230
         H           -1.139265122937     1.987891912976     0.057524292652     1.007825032230
         H           -2.413358122937     1.469938912976    -1.091955707348     1.007825032230
         H           -3.584443122937    -0.880921087024     0.561196292652     1.007825032230
         H           -2.325173122937    -2.082578087024     0.146495292652     1.007825032230
         H           -2.997355122937    -1.033611087024    -1.117359707348     1.007825032230

  Basis Set: AUG-CC-PVTZ
    Blend: AUG-CC-PVTZ
  Basis Set: (AUG-CC-PVTZ AUX)
    Blend: AUG-CC-PVTZ-JKFIT
	 Reference Energy          =    -758.0500784859888199 [Eh]
	 Singles Energy            =      -0.0000000000000000 [Eh]
	 Same-Spin Energy          =      -0.4705408891092617 [Eh]
	 Opposite-Spin Energy      =      -1.4042540513650712 [Eh]
	 Correlation Energy        =      -1.8747949404743329 [Eh]
	 Total Energy              =    -759.9248734264631366 [Eh]

	 ================> DF-SCS-MP2 Energies <==================
	-----------------------------------------------------------
	 SCS Same-Spin Scale       =       0.3333333333333333 [-]
	 SCS Opposite-Spin Scale   =       1.2000000000000000 [-]
	 SCS Same-Spin Energy      =      -0.1568469630364206 [Eh]
	 SCS Opposite-Spin Energy  =      -1.6851048616380855 [Eh]
	 SCS Correlation Energy    =      -1.8419518246745061 [Eh]
	 SCS Total Energy          =    -759.8920303106633583 [Eh]
	-----------------------------------------------------------

  Dipole Moment: [D]
     X:    -8.1926      Y:     0.0884      Z:     0.0686     Total:     8.1934

*** Psi4 exiting successfully. Buy a developer a beer!
