                               Psi4 1.4a3.dev225

  ==> Input File <==

--------------------------------------------------------------------------
#psi4
#
memory 32 gb

molecule  {
-2 1
  P        1.2274490    -0.0222580     0.0433940
  O       -0.3905570    -0.3882050    -0.6807720
  O        2.1423100    -0.5208960    -1.0789140
  O        1.1898850    -0.8529840     1.3405840
  O        1.1481396     1.7060189     0.2760176
  C       -1.4468750    -0.0662350     0.1787580
  C       -1.9094950     1.3730130    -0.0649580
  C       -2.5698170    -1.0762850    -0.0636830
  H       -1.1173450    -0.1582630     1.2256300
  H       -2.7054590     1.6884420     0.6308980
  H       -1.0118930     1.9864150     0.0562940
  H       -2.2859860     1.4684620    -1.0931860
  H       -3.4570710    -0.8823980     0.5599660
  H       -2.1978010    -2.0840550     0.1452650
  H       -2.8699830    -1.0350880    -1.1185900
units angstrom
no_reorient  #important for SAPT in psi4, default
symmetry c1  #important for SAPT in psi4, default
}

set PROPERTIES_ORIGIN ["COM"]
properties('MP2/aug-cc-pvtz', properties = ['dipole'])
--------------------------------------------------------------------------

    Molecular point group: c1
  Charge       = -2
  Multiplicity = 1
  Basis Set: AUG-CC-PVTZ
    Blend: AUG-CC-PVTZ
  Basis Set: (AUG-CC-PVTZ AUX)
    Blend: AUG-CC-PVTZ-JKFIT

    Orbital Energies [Eh]
    ---------------------

    Doubly Occupied:

       1A    -79.703359     2A    -20.215221     3A    -20.135693
       4A    -20.133523     5A    -20.127375     6A    -10.984989
       7A    -10.965024     8A    -10.933737     9A     -7.214389
      10A     -5.113792    11A     -5.111411    12A     -5.110729
      13A     -1.022288    14A     -0.928925    15A     -0.875227
      16A     -0.815513    17A     -0.753336    18A     -0.666729
      19A     -0.504489    20A     -0.400977    21A     -0.338853
      22A     -0.319630    23A     -0.309503    24A     -0.278072
      25A     -0.249070    26A     -0.246862    27A     -0.226558
      28A     -0.188892    29A     -0.182257    30A     -0.161466
      31A     -0.118269    32A     -0.099572    33A     -0.089905
      34A     -0.071656    35A     -0.068438    36A     -0.041172
      37A     -0.030689

  @DF-RHF Final Energy:  -758.02495504783280

   => Energetics <=

    Nuclear Repulsion Energy =            496.0650905410594191
    One-Electron Energy =               -2058.7049125094058581
    Two-Electron Energy =                 804.6148669205136912
    Total Energy =                       -758.0249550478328047
  Basis Set: (AUG-CC-PVTZ AUX)
    Blend: AUG-CC-PVTZ-RI
    Molecular point group: c1

    Geometry (in Angstrom), charge = -2, multiplicity = 1:

       Center              X                  Y                   Z               Mass
    ------------   -----------------  -----------------  -----------------  -----------------
         P            1.107513022337    -0.037988519107     0.042913501019    30.973761998420
         O           -0.510492977663    -0.403935519107    -0.681252498981    15.994914619570
         O            2.022374022337    -0.536626519107    -1.079394498981    15.994914619570
         O            1.069949022337    -0.868714519107     1.340103501019    15.994914619570
         O            1.028203622337     1.690288380893     0.275537101019    15.994914619570
         C           -1.566810977663    -0.081965519107     0.178277501019    12.000000000000
         C           -2.029430977663     1.357282480893    -0.065438498981    12.000000000000
         C           -2.689752977663    -1.092015519107    -0.064163498981    12.000000000000
         H           -1.237280977663    -0.173993519107     1.225149501019     1.007825032230
         H           -2.825394977663     1.672711480893     0.630417501019     1.007825032230
         H           -1.131828977663     1.970684480893     0.055813501019     1.007825032230
         H           -2.405921977663     1.452731480893    -1.093666498981     1.007825032230
         H           -3.577006977663    -0.898128519107     0.559485501019     1.007825032230
         H           -2.317736977663    -2.099785519107     0.144784501019     1.007825032230
         H           -2.989918977663    -1.050818519107    -1.119070498981     1.007825032230

  Basis Set: AUG-CC-PVTZ
    Blend: AUG-CC-PVTZ
  Basis Set: (AUG-CC-PVTZ AUX)
    Blend: AUG-CC-PVTZ-JKFIT
	 Reference Energy          =    -758.0249550478328047 [Eh]
	 Singles Energy            =      -0.0000000000000000 [Eh]
	 Same-Spin Energy          =      -0.4732154586053545 [Eh]
	 Opposite-Spin Energy      =      -1.4127418130765825 [Eh]
	 Correlation Energy        =      -1.8859572716819371 [Eh]
	 Total Energy              =    -759.9109123195147504 [Eh]

	 ================> DF-SCS-MP2 Energies <==================
	-----------------------------------------------------------
	 SCS Same-Spin Scale       =       0.3333333333333333 [-]
	 SCS Opposite-Spin Scale   =       1.2000000000000000 [-]
	 SCS Same-Spin Energy      =      -0.1577384862017848 [Eh]
	 SCS Opposite-Spin Energy  =      -1.6952901756918990 [Eh]
	 SCS Correlation Energy    =      -1.8530286618936838 [Eh]
	 SCS Total Energy          =    -759.8779837097264362 [Eh]
	-----------------------------------------------------------

  Dipole Moment: [D]
     X:    -8.2933      Y:    -1.2561      Z:    -0.1140     Total:     8.3887

*** Psi4 exiting successfully. Buy a developer a beer!
