                               Psi4 1.4a3.dev225

  ==> Input File <==

--------------------------------------------------------------------------
#psi4
#
memory 32 gb

molecule  {
-2 1
  P        1.2274490    -0.0222580     0.0433940
  O       -0.3905570    -0.3882050    -0.6807720
  O        2.1423100    -0.5208960    -1.0789140
  O        1.1898850    -0.8529840     1.3405840
  O        1.1572260     1.5080110     0.2493660
  C       -1.4468750    -0.0662350     0.1787580
  C       -1.9094950     1.3730130    -0.0649580
  C       -2.5698170    -1.0762850    -0.0636830
  H       -1.1173450    -0.1582630     1.2256300
  H       -2.6333150     1.6598524     0.5678275
  H       -1.0118930     1.9864150     0.0562940
  H       -2.2859860     1.4684620    -1.0931860
  H       -3.4570710    -0.8823980     0.5599660
  H       -2.1978010    -2.0840550     0.1452650
  H       -2.8699830    -1.0350880    -1.1185900
units angstrom
no_reorient  #important for SAPT in psi4, default
symmetry c1  #important for SAPT in psi4, default
}

set PROPERTIES_ORIGIN ["COM"]
properties('MP2/aug-cc-pvtz', properties = ['dipole'])
--------------------------------------------------------------------------

    Molecular point group: c1
  Charge       = -2
  Multiplicity = 1
  Basis Set: AUG-CC-PVTZ
    Blend: AUG-CC-PVTZ
  Basis Set: (AUG-CC-PVTZ AUX)
    Blend: AUG-CC-PVTZ-JKFIT

    Orbital Energies [Eh]
    ---------------------

    Doubly Occupied:

       1A    -79.674261     2A    -20.200532     3A    -20.117766
       4A    -20.117668     5A    -20.115525     6A    -10.979019
       7A    -10.961269     8A    -10.921329     9A     -7.188465
      10A     -5.087932    11A     -5.085463    12A     -5.085400
      13A     -1.013103    14A     -0.928208    15A     -0.859588
      16A     -0.858894    17A     -0.752297    18A     -0.672207
      19A     -0.502785    20A     -0.392613    21A     -0.335862
      22A     -0.325540    23A     -0.302607    24A     -0.279913
      25A     -0.245661    26A     -0.242240    27A     -0.224176
      28A     -0.188638    29A     -0.181560    30A     -0.161026
      31A     -0.113721    32A     -0.093905    33A     -0.090975
      34A     -0.081573    35A     -0.056734    36A     -0.049193
      37A     -0.025848

  @DF-RHF Final Energy:  -758.05556174249523

   => Energetics <=

    Nuclear Repulsion Energy =            504.0753935668041663
    One-Electron Energy =               -2075.2349209100511871
    Two-Electron Energy =                 813.1039656007517351
    Total Energy =                       -758.0555617424952288
  Basis Set: (AUG-CC-PVTZ AUX)
    Blend: AUG-CC-PVTZ-RI
    Molecular point group: c1

    Geometry (in Angstrom), charge = -2, multiplicity = 1:

       Center              X                  Y                   Z               Mass
    ------------   -----------------  -----------------  -----------------  -----------------
         P            1.105933081955    -0.014830961306     0.046462957576    30.973761998420
         O           -0.512072918045    -0.380777961306    -0.677703042424    15.994914619570
         O            2.020794081955    -0.513468961306    -1.075845042424    15.994914619570
         O            1.068369081955    -0.845556961306     1.343652957576    15.994914619570
         O            1.035710081955     1.515438038694     0.252434957576    15.994914619570
         C           -1.568390918045    -0.058807961306     0.181826957576    12.000000000000
         C           -2.031010918045     1.380440038694    -0.061889042424    12.000000000000
         C           -2.691332918045    -1.068857961306    -0.060614042424    12.000000000000
         H           -1.238860918045    -0.150835961306     1.228698957576     1.007825032230
         H           -2.754830918045     1.667279438694     0.570896457576     1.007825032230
         H           -1.133408918045     1.993842038694     0.059362957576     1.007825032230
         H           -2.407501918045     1.475889038694    -1.090117042424     1.007825032230
         H           -3.578586918045    -0.874970961306     0.563034957576     1.007825032230
         H           -2.319316918045    -2.076627961306     0.148333957576     1.007825032230
         H           -2.991498918045    -1.027660961306    -1.115521042424     1.007825032230

  Basis Set: AUG-CC-PVTZ
    Blend: AUG-CC-PVTZ
  Basis Set: (AUG-CC-PVTZ AUX)
    Blend: AUG-CC-PVTZ-JKFIT
	 Reference Energy          =    -758.0555617424952288 [Eh]
	 Singles Energy            =      -0.0000000000000000 [Eh]
	 Same-Spin Energy          =      -0.4697993857597939 [Eh]
	 Opposite-Spin Energy      =      -1.4027150685661463 [Eh]
	 Correlation Energy        =      -1.8725144543259402 [Eh]
	 Total Energy              =    -759.9280761968211664 [Eh]

	 ================> DF-SCS-MP2 Energies <==================
	-----------------------------------------------------------
	 SCS Same-Spin Scale       =       0.3333333333333333 [-]
	 SCS Opposite-Spin Scale   =       1.2000000000000000 [-]
	 SCS Same-Spin Energy      =      -0.1565997952532646 [Eh]
	 SCS Opposite-Spin Energy  =      -1.6832580822793755 [Eh]
	 SCS Correlation Energy    =      -1.8398578775326402 [Eh]
	 SCS Total Energy          =    -759.8954196200278375 [Eh]
	-----------------------------------------------------------

  Dipole Moment: [D]
     X:    -8.3508      Y:     0.1587      Z:     0.1226     Total:     8.3532

*** Psi4 exiting successfully. Buy a developer a beer!
