                               Psi4 1.4a3.dev225

  ==> Input File <==

--------------------------------------------------------------------------
#psi4
#
memory 32 gb

molecule  {
-2 1
  P        1.2274490    -0.0222580     0.0433940
  O       -0.3905570    -0.3882050    -0.6807720
  O        2.1423100    -0.5208960    -1.0789140
  O        1.1898850    -0.8529840     1.3405840
  O        1.1663124     1.3100031     0.2227144
  C       -1.4468750    -0.0662350     0.1787580
  C       -1.9094950     1.3730130    -0.0649580
  C       -2.5698170    -1.0762850    -0.0636830
  H       -1.1173450    -0.1582630     1.2256300
  H       -2.7054590     1.6884420     0.6308980
  H       -1.0118930     1.9864150     0.0562940
  H       -2.2859860     1.4684620    -1.0931860
  H       -3.4570710    -0.8823980     0.5599660
  H       -2.1978010    -2.0840550     0.1452650
  H       -2.8699830    -1.0350880    -1.1185900
units angstrom
no_reorient  #important for SAPT in psi4, default
symmetry c1  #important for SAPT in psi4, default
}

set PROPERTIES_ORIGIN ["COM"]
properties('MP2/aug-cc-pvtz', properties = ['dipole'])
--------------------------------------------------------------------------

    Molecular point group: c1
  Charge       = -2
  Multiplicity = 1
  Basis Set: AUG-CC-PVTZ
    Blend: AUG-CC-PVTZ
  Basis Set: (AUG-CC-PVTZ AUX)
    Blend: AUG-CC-PVTZ-JKFIT

    Orbital Energies [Eh]
    ---------------------

    Doubly Occupied:

       1A    -79.629899     2A    -20.188281     3A    -20.106632
       4A    -20.099062     5A    -20.097106     6A    -10.976220
       7A    -10.958072     8A    -10.939095     9A     -7.155463
      10A     -5.055018    11A     -5.053073    12A     -5.050639
      13A     -1.022724    14A     -0.969309    15A     -0.871376
      16A     -0.843744    17A     -0.746686    18A     -0.665659
      19A     -0.496653    20A     -0.385078    21A     -0.332454
      22A     -0.317592    23A     -0.297345    24A     -0.276129
      25A     -0.247282    26A     -0.240374    27A     -0.223414
      28A     -0.201334    29A     -0.194398    30A     -0.172668
      31A     -0.113505    32A     -0.098070    33A     -0.093933
      34A     -0.079065    35A     -0.052155    36A     -0.041582
      37A     -0.015811

  @DF-RHF Final Energy:  -758.03006266193142

   => Energetics <=

    Nuclear Repulsion Energy =            512.6149192779937493
    One-Electron Energy =               -2092.6761593389087466
    Two-Electron Energy =                 822.0311773989835729
    Total Energy =                       -758.0300626619314244
  Basis Set: (AUG-CC-PVTZ AUX)
    Blend: AUG-CC-PVTZ-RI
    Molecular point group: c1

    Geometry (in Angstrom), charge = -2, multiplicity = 1:

       Center              X                  Y                   Z               Mass
    ------------   -----------------  -----------------  -----------------  -----------------
         P            1.105406825796     0.007909037025     0.049091251033    30.973761998420
         O           -0.512599174204    -0.358037962975    -0.675074748967    15.994914619570
         O            2.020267825796    -0.490728962975    -1.073216748967    15.994914619570
         O            1.067842825796    -0.822816962975     1.346281251033    15.994914619570
         O            1.044270225796     1.340170137025     0.228411651033    15.994914619570
         C           -1.568917174204    -0.036067962975     0.184455251033    12.000000000000
         C           -2.031537174204     1.403180037025    -0.059260748967    12.000000000000
         C           -2.691859174204    -1.046117962975    -0.057985748967    12.000000000000
         H           -1.239387174204    -0.128095962975     1.231327251033     1.007825032230
         H           -2.827501174204     1.718609037025     0.636595251033     1.007825032230
         H           -1.133935174204     2.016582037025     0.061991251033     1.007825032230
         H           -2.408028174204     1.498629037025    -1.087488748967     1.007825032230
         H           -3.579113174204    -0.852230962975     0.565663251033     1.007825032230
         H           -2.319843174204    -2.053887962975     0.150962251033     1.007825032230
         H           -2.992025174204    -1.004920962975    -1.112892748967     1.007825032230

  Basis Set: AUG-CC-PVTZ
    Blend: AUG-CC-PVTZ
  Basis Set: (AUG-CC-PVTZ AUX)
    Blend: AUG-CC-PVTZ-JKFIT
	 Reference Energy          =    -758.0300626619314244 [Eh]
	 Singles Energy            =      -0.0000000000000000 [Eh]
	 Same-Spin Energy          =      -0.4658513554418083 [Eh]
	 Opposite-Spin Energy      =      -1.3935963024846667 [Eh]
	 Correlation Energy        =      -1.8594476579264749 [Eh]
	 Total Energy              =    -759.8895103198578909 [Eh]

	 ================> DF-SCS-MP2 Energies <==================
	-----------------------------------------------------------
	 SCS Same-Spin Scale       =       0.3333333333333333 [-]
	 SCS Opposite-Spin Scale   =       1.2000000000000000 [-]
	 SCS Same-Spin Energy      =      -0.1552837851472694 [Eh]
	 SCS Opposite-Spin Energy  =      -1.6723155629816000 [Eh]
	 SCS Correlation Energy    =      -1.8275993481288695 [Eh]
	 SCS Total Energy          =    -759.8576620100602668 [Eh]
	-----------------------------------------------------------

  Dipole Moment: [D]
     X:    -8.1808      Y:     1.3981      Z:     0.2177     Total:     8.3023

*** Psi4 exiting successfully. Buy a developer a beer!
