                               Psi4 1.4a3.dev225

  ==> Input File <==

--------------------------------------------------------------------------
#psi4
#
memory 32 gb

molecule  {
-2 1
  P        1.2274490    -0.0222580     0.0433940
  O       -0.3905570    -0.3882050    -0.6807720
  O        2.1423100    -0.5208960    -1.0789140
  O        1.1898850    -0.8529840     1.3405840
  O        1.1572260     1.5080110     0.2493660
  C       -1.4468750    -0.0662350     0.1787580
  C       -1.9034528     1.3542152    -0.0617749
  C       -2.5698170    -1.0762850    -0.0636830
  H       -1.1173450    -0.1582630     1.2256300
  H       -2.7054590     1.6884420     0.6308980
  H       -1.0118930     1.9864150     0.0562940
  H       -2.2859860     1.4684620    -1.0931860
  H       -3.4570710    -0.8823980     0.5599660
  H       -2.1978010    -2.0840550     0.1452650
  H       -2.8699830    -1.0350880    -1.1185900
units angstrom
no_reorient  #important for SAPT in psi4, default
symmetry c1  #important for SAPT in psi4, default
}

set PROPERTIES_ORIGIN ["COM"]
properties('MP2/aug-cc-pvtz', properties = ['dipole'])
--------------------------------------------------------------------------

    Molecular point group: c1
  Charge       = -2
  Multiplicity = 1
  Basis Set: AUG-CC-PVTZ
    Blend: AUG-CC-PVTZ
  Basis Set: (AUG-CC-PVTZ AUX)
    Blend: AUG-CC-PVTZ-JKFIT

    Orbital Energies [Eh]
    ---------------------

    Doubly Occupied:

       1A    -79.675136     2A    -20.202195     3A    -20.118668
       4A    -20.118384     5A    -20.116300     6A    -10.979292
       7A    -10.961410     8A    -10.937102     9A     -7.189352
      10A     -5.088825    11A     -5.086343    12A     -5.086281
      13A     -1.015028    14A     -0.929227    15A     -0.860373
      16A     -0.859716    17A     -0.751712    18A     -0.666182
      19A     -0.500452    20A     -0.392990    21A     -0.336755
      22A     -0.317719    23A     -0.302880    24A     -0.275157
      25A     -0.244683    26A     -0.242430    27A     -0.223306
      28A     -0.190510    29A     -0.182208    30A     -0.161233
      31A     -0.116586    32A     -0.094684    33A     -0.091753
      34A     -0.082557    35A     -0.057535    36A     -0.050175
      37A     -0.026629

  @DF-RHF Final Energy:  -758.06078518477295

   => Energetics <=

    Nuclear Repulsion Energy =            503.9333281200806027
    One-Electron Energy =               -2074.9246860704770370
    Two-Electron Energy =                 812.9305727656234239
    Total Energy =                       -758.0607851847729535
  Basis Set: (AUG-CC-PVTZ AUX)
    Blend: AUG-CC-PVTZ-RI
    Molecular point group: c1

    Geometry (in Angstrom), charge = -2, multiplicity = 1:

       Center              X                  Y                   Z               Mass
    ------------   -----------------  -----------------  -----------------  -----------------
         P            1.105934546572    -0.013405246808     0.045725601159    30.973761998420
         O           -0.512071453428    -0.379352246808    -0.678440398841    15.994914619570
         O            2.020795546572    -0.512043246808    -1.076582398841    15.994914619570
         O            1.068370546572    -0.844131246808     1.342915601159    15.994914619570
         O            1.035711546572     1.516863753192     0.251697601159    15.994914619570
         C           -1.568389453428    -0.057382246808     0.181089601159    12.000000000000
         C           -2.024967253428     1.363067953192    -0.059443298841    12.000000000000
         C           -2.691331453428    -1.067432246808    -0.061351398841    12.000000000000
         H           -1.238859453428    -0.149410246808     1.227961601159     1.007825032230
         H           -2.826973453428     1.697294753192     0.633229601159     1.007825032230
         H           -1.133407453428     1.995267753192     0.058625601159     1.007825032230
         H           -2.407500453428     1.477314753192    -1.090854398841     1.007825032230
         H           -3.578585453428    -0.873545246808     0.562297601159     1.007825032230
         H           -2.319315453428    -2.075202246808     0.147596601159     1.007825032230
         H           -2.991497453428    -1.026235246808    -1.116258398841     1.007825032230

  Basis Set: AUG-CC-PVTZ
    Blend: AUG-CC-PVTZ
  Basis Set: (AUG-CC-PVTZ AUX)
    Blend: AUG-CC-PVTZ-JKFIT
	 Reference Energy          =    -758.0607851847729535 [Eh]
	 Singles Energy            =      -0.0000000000000000 [Eh]
	 Same-Spin Energy          =      -0.4697775418408744 [Eh]
	 Opposite-Spin Energy      =      -1.4032067157157440 [Eh]
	 Correlation Energy        =      -1.8729842575566185 [Eh]
	 Total Energy              =    -759.9337694423295488 [Eh]

	 ================> DF-SCS-MP2 Energies <==================
	-----------------------------------------------------------
	 SCS Same-Spin Scale       =       0.3333333333333333 [-]
	 SCS Opposite-Spin Scale   =       1.2000000000000000 [-]
	 SCS Same-Spin Energy      =      -0.1565925139469581 [Eh]
	 SCS Opposite-Spin Energy  =      -1.6838480588588927 [Eh]
	 SCS Correlation Energy    =      -1.8404405728058508 [Eh]
	 SCS Total Energy          =    -759.9012257575787999 [Eh]
	-----------------------------------------------------------

  Dipole Moment: [D]
     X:    -8.2197      Y:     0.0961      Z:     0.0593     Total:     8.2204

*** Psi4 exiting successfully. Buy a developer a beer!
