                               Psi4 1.4a3.dev225

  ==> Input File <==

--------------------------------------------------------------------------
#psi4
#
memory 32 gb

molecule  {
-2 1
  P        1.2274490    -0.0222580     0.0433940
  O       -0.4799472    -0.4084225    -0.7207801
  O        2.1423100    -0.5208960    -1.0789140
  O        1.1898850    -0.8529840     1.3405840
  O        1.1572260     1.5080110     0.2493660
  C       -1.4468750    -0.0662350     0.1787580
  C       -1.9094950     1.3730130    -0.0649580
  C       -2.5698170    -1.0762850    -0.0636830
  H       -1.1173450    -0.1582630     1.2256300
  H       -2.7054590     1.6884420     0.6308980
  H       -1.0118930     1.9864150     0.0562940
  H       -2.2859860     1.4684620    -1.0931860
  H       -3.4570710    -0.8823980     0.5599660
  H       -2.1978010    -2.0840550     0.1452650
  H       -2.8699830    -1.0350880    -1.1185900
units angstrom
no_reorient  #important for SAPT in psi4, default
symmetry c1  #important for SAPT in psi4, default
}

set PROPERTIES_ORIGIN ["COM"]
properties('MP2/aug-cc-pvtz', properties = ['dipole'])
--------------------------------------------------------------------------

    Molecular point group: c1
  Charge       = -2
  Multiplicity = 1
  Basis Set: AUG-CC-PVTZ
    Blend: AUG-CC-PVTZ
  Basis Set: (AUG-CC-PVTZ AUX)
    Blend: AUG-CC-PVTZ-JKFIT

    Orbital Energies [Eh]
    ---------------------

    Doubly Occupied:

       1A    -79.685308     2A    -20.196406     3A    -20.127974
       4A    -20.127828     5A    -20.124741     6A    -10.972438
       7A    -10.953351     8A    -10.931000     9A     -7.199306
      10A     -5.098762    11A     -5.096071    12A     -5.096038
      13A     -1.014104    14A     -0.939550    15A     -0.867657
      16A     -0.867460    17A     -0.738701    18A     -0.661229
      19A     -0.492408    20A     -0.387720    21A     -0.330563
      22A     -0.314555    23A     -0.303342    24A     -0.271622
      25A     -0.241662    26A     -0.237943    27A     -0.222380
      28A     -0.194040    29A     -0.189199    30A     -0.163272
      31A     -0.107379    32A     -0.101271    33A     -0.098402
      34A     -0.080509    35A     -0.065138    36A     -0.057125
      37A     -0.034567

  @DF-RHF Final Energy:  -758.05221381776289

   => Energetics <=

    Nuclear Repulsion Energy =            501.6434084503050599
    One-Electron Energy =               -2070.2092064532985205
    Two-Electron Energy =                 810.5135841852305703
    Total Energy =                       -758.0522138177628904
  Basis Set: (AUG-CC-PVTZ AUX)
    Blend: AUG-CC-PVTZ-RI
    Molecular point group: c1

    Geometry (in Angstrom), charge = -2, multiplicity = 1:

       Center              X                  Y                   Z               Mass
    ------------   -----------------  -----------------  -----------------  -----------------
         P            1.116820095863    -0.012696567256     0.050639246614    30.973761998420
         O           -0.590576104137    -0.398861067256    -0.713534853386    15.994914619570
         O            2.031681095863    -0.511334567256    -1.071668753386    15.994914619570
         O            1.079256095863    -0.843422567256     1.347829246614    15.994914619570
         O            1.046597095863     1.517572432744     0.256611246614    15.994914619570
         C           -1.557503904137    -0.056673567256     0.186003246614    12.000000000000
         C           -2.020123904137     1.382574432744    -0.057712753386    12.000000000000
         C           -2.680445904137    -1.066723567256    -0.056437753386    12.000000000000
         H           -1.227973904137    -0.148701567256     1.232875246614     1.007825032230
         H           -2.816087904137     1.698003432744     0.638143246614     1.007825032230
         H           -1.122521904137     1.995976432744     0.063539246614     1.007825032230
         H           -2.396614904137     1.478023432744    -1.085940753386     1.007825032230
         H           -3.567699904137    -0.872836567256     0.567211246614     1.007825032230
         H           -2.308429904137    -2.074493567256     0.152510246614     1.007825032230
         H           -2.980611904137    -1.025526567256    -1.111344753386     1.007825032230

  Basis Set: AUG-CC-PVTZ
    Blend: AUG-CC-PVTZ
  Basis Set: (AUG-CC-PVTZ AUX)
    Blend: AUG-CC-PVTZ-JKFIT
	 Reference Energy          =    -758.0522138177628904 [Eh]
	 Singles Energy            =      -0.0000000000000000 [Eh]
	 Same-Spin Energy          =      -0.4708755989369906 [Eh]
	 Opposite-Spin Energy      =      -1.4054222732288317 [Eh]
	 Correlation Energy        =      -1.8762978721658223 [Eh]
	 Total Energy              =    -759.9285116899287686 [Eh]

	 ================> DF-SCS-MP2 Energies <==================
	-----------------------------------------------------------
	 SCS Same-Spin Scale       =       0.3333333333333333 [-]
	 SCS Opposite-Spin Scale   =       1.2000000000000000 [-]
	 SCS Same-Spin Energy      =      -0.1569585329789969 [Eh]
	 SCS Opposite-Spin Energy  =      -1.6865067278745980 [Eh]
	 SCS Correlation Energy    =      -1.8434652608535949 [Eh]
	 SCS Total Energy          =    -759.8956790786164675 [Eh]
	-----------------------------------------------------------

  Dipole Moment: [D]
     X:    -7.4596      Y:     0.1671      Z:     0.1787     Total:     7.4636

*** Psi4 exiting successfully. Buy a developer a beer!
