                               Psi4 1.4a3.dev225

  ==> Input File <==

--------------------------------------------------------------------------
#psi4
#
memory 32 gb

molecule  {
-2 1
  P        1.2274490    -0.0222580     0.0433940
  O       -0.3561560    -0.5096894    -0.6852230
  O        2.1423100    -0.5208960    -1.0789140
  O        1.1898850    -0.8529840     1.3405840
  O        1.1572260     1.5080110     0.2493660
  C       -1.4468750    -0.0662350     0.1787580
  C       -1.9094950     1.3730130    -0.0649580
  C       -2.5698170    -1.0762850    -0.0636830
  H       -1.1173450    -0.1582630     1.2256300
  H       -2.7054590     1.6884420     0.6308980
  H       -1.0118930     1.9864150     0.0562940
  H       -2.2859860     1.4684620    -1.0931860
  H       -3.4570710    -0.8823980     0.5599660
  H       -2.1978010    -2.0840550     0.1452650
  H       -2.8699830    -1.0350880    -1.1185900
units angstrom
no_reorient  #important for SAPT in psi4, default
symmetry c1  #important for SAPT in psi4, default
}

set PROPERTIES_ORIGIN ["COM"]
properties('MP2/aug-cc-pvtz', properties = ['dipole'])
--------------------------------------------------------------------------

    Molecular point group: c1
  Charge       = -2
  Multiplicity = 1
  Basis Set: AUG-CC-PVTZ
    Blend: AUG-CC-PVTZ
  Basis Set: (AUG-CC-PVTZ AUX)
    Blend: AUG-CC-PVTZ-JKFIT

    Orbital Energies [Eh]
    ---------------------

    Doubly Occupied:

       1A    -79.673006     2A    -20.206105     3A    -20.122885
       4A    -20.114091     5A    -20.111895     6A    -10.984999
       7A    -10.962263     8A    -10.942352     9A     -7.187318
      10A     -5.086768    11A     -5.084335    12A     -5.084238
      13A     -0.997304    14A     -0.923670    15A     -0.860647
      16A     -0.856651    17A     -0.754354    18A     -0.668334
      19A     -0.501493    20A     -0.383744    21A     -0.336821
      22A     -0.316663    23A     -0.302266    24A     -0.278872
      25A     -0.241842    26A     -0.234513    27A     -0.222548
      28A     -0.189952    29A     -0.179245    30A     -0.166089
      31A     -0.119956    32A     -0.092812    33A     -0.089601
      34A     -0.081262    35A     -0.055140    36A     -0.049424
      37A     -0.025212

  @DF-RHF Final Energy:  -758.05368196525751

   => Energetics <=

    Nuclear Repulsion Energy =            502.1844284814504817
    One-Electron Energy =               -2071.4988795684980687
    Two-Electron Energy =                 811.2607691217899628
    Total Energy =                       -758.0536819652575105
  Basis Set: (AUG-CC-PVTZ AUX)
    Blend: AUG-CC-PVTZ-RI
    Molecular point group: c1

    Geometry (in Angstrom), charge = -2, multiplicity = 1:

       Center              X                  Y                   Z               Mass
    ------------   -----------------  -----------------  -----------------  -----------------
         P            1.102472906809    -0.000959906175     0.046518239339    30.973761998420
         O           -0.481132093191    -0.488391306175    -0.682098760661    15.994914619570
         O            2.017333906809    -0.499597906175    -1.075789760661    15.994914619570
         O            1.064908906809    -0.831685906175     1.343708239339    15.994914619570
         O            1.032249906809     1.529309093825     0.252490239339    15.994914619570
         C           -1.571851093191    -0.044936906175     0.181882239339    12.000000000000
         C           -2.034471093191     1.394311093825    -0.061833760661    12.000000000000
         C           -2.694793093191    -1.054986906175    -0.060558760661    12.000000000000
         H           -1.242321093191    -0.136964906175     1.228754239339     1.007825032230
         H           -2.830435093191     1.709740093825     0.634022239339     1.007825032230
         H           -1.136869093191     2.007713093825     0.059418239339     1.007825032230
         H           -2.410962093191     1.489760093825    -1.090061760661     1.007825032230
         H           -3.582047093191    -0.861099906175     0.563090239339     1.007825032230
         H           -2.322777093191    -2.062756906175     0.148389239339     1.007825032230
         H           -2.994959093191    -1.013789906175    -1.115465760661     1.007825032230

  Basis Set: AUG-CC-PVTZ
    Blend: AUG-CC-PVTZ
  Basis Set: (AUG-CC-PVTZ AUX)
    Blend: AUG-CC-PVTZ-JKFIT
	 Reference Energy          =    -758.0536819652575105 [Eh]
	 Singles Energy            =      -0.0000000000000000 [Eh]
	 Same-Spin Energy          =      -0.4702058931555710 [Eh]
	 Opposite-Spin Energy      =      -1.4052809843503784 [Eh]
	 Correlation Energy        =      -1.8754868775059494 [Eh]
	 Total Energy              =    -759.9291688427634881 [Eh]

	 ================> DF-SCS-MP2 Energies <==================
	-----------------------------------------------------------
	 SCS Same-Spin Scale       =       0.3333333333333333 [-]
	 SCS Opposite-Spin Scale   =       1.2000000000000000 [-]
	 SCS Same-Spin Energy      =      -0.1567352977185237 [Eh]
	 SCS Opposite-Spin Energy  =      -1.6863371812204540 [Eh]
	 SCS Correlation Energy    =      -1.8430724789389776 [Eh]
	 SCS Total Energy          =    -759.8967544441965174 [Eh]
	-----------------------------------------------------------

  Dipole Moment: [D]
     X:    -8.4515      Y:     0.3242      Z:     0.1038     Total:     8.4583

*** Psi4 exiting successfully. Buy a developer a beer!
