                               Psi4 1.4a3.dev225

  ==> Input File <==

--------------------------------------------------------------------------
#psi4
#
memory 32 gb

molecule  {
-2 1
  P        1.2274490    -0.0222580     0.0433940
  O       -0.3905570    -0.3882050    -0.6807720
  O        2.1423100    -0.5208960    -1.0789140
  O        1.1898850    -0.8529840     1.3405840
  O        1.1594976     1.4585090     0.2427031
  C       -1.4468750    -0.0662350     0.1787580
  C       -1.9094950     1.3730130    -0.0649580
  C       -2.5698170    -1.0762850    -0.0636830
  H       -1.1173450    -0.1582630     1.2256300
  H       -2.7054590     1.6884420     0.6308980
  H       -1.0118930     1.9864150     0.0562940
  H       -2.2859860     1.4684620    -1.0931860
  H       -3.4570710    -0.8823980     0.5599660
  H       -2.1978010    -2.0840550     0.1452650
  H       -2.8699830    -1.0350880    -1.1185900
units angstrom
no_reorient  #important for SAPT in psi4, default
symmetry c1  #important for SAPT in psi4, default
}

set PROPERTIES_ORIGIN ["COM"]
properties('MP2/aug-cc-pvtz', properties = ['dipole'])
--------------------------------------------------------------------------

    Molecular point group: c1
  Charge       = -2
  Multiplicity = 1
  Basis Set: AUG-CC-PVTZ
    Blend: AUG-CC-PVTZ
  Basis Set: (AUG-CC-PVTZ AUX)
    Blend: AUG-CC-PVTZ-JKFIT

    Orbital Energies [Eh]
    ---------------------

    Doubly Occupied:

       1A    -79.665554     2A    -20.198892     3A    -20.116221
       4A    -20.113655     5A    -20.111608     6A    -10.979438
       7A    -10.960649     8A    -10.936655     9A     -7.181552
      10A     -5.080868    11A     -5.078821    12A     -5.078318
      13A     -1.013592    14A     -0.935541    15A     -0.867512
      16A     -0.856122    17A     -0.749038    18A     -0.665827
      19A     -0.499430    20A     -0.390492    21A     -0.334612
      22A     -0.317310    23A     -0.301491    24A     -0.276513
      25A     -0.244077    26A     -0.242379    27A     -0.224315
      28A     -0.191390    29A     -0.183920    30A     -0.163172
      31A     -0.114745    32A     -0.095712    33A     -0.092039
      34A     -0.082779    35A     -0.055548    36A     -0.050206
      37A     -0.024500

  @DF-RHF Final Energy:  -758.06325509280975

   => Energetics <=

    Nuclear Repulsion Energy =            505.6580812071098308
    One-Electron Energy =               -2078.4936902326385280
    Two-Electron Energy =                 814.7723539327190565
    Total Energy =                       -758.0632550928097544
  Basis Set: (AUG-CC-PVTZ AUX)
    Blend: AUG-CC-PVTZ-RI
    Molecular point group: c1

    Geometry (in Angstrom), charge = -2, multiplicity = 1:

       Center              X                  Y                   Z               Mass
    ------------   -----------------  -----------------  -----------------  -----------------
         P            1.106196649499    -0.009302543627     0.046774594778    30.973761998420
         O           -0.511809350501    -0.375249543627    -0.677391405222    15.994914619570
         O            2.021057649499    -0.507940543627    -1.075533405222    15.994914619570
         O            1.068632649499    -0.840028543627     1.343964594778    15.994914619570
         O            1.038245249499     1.471464456373     0.246083694778    15.994914619570
         C           -1.568127350501    -0.053279543627     0.182138594778    12.000000000000
         C           -2.030747350501     1.385968456373    -0.061577405222    12.000000000000
         C           -2.691069350501    -1.063329543627    -0.060302405222    12.000000000000
         H           -1.238597350501    -0.145307543627     1.229010594778     1.007825032230
         H           -2.826711350501     1.701397456373     0.634278594778     1.007825032230
         H           -1.133145350501     1.999370456373     0.059674594778     1.007825032230
         H           -2.407238350501     1.481417456373    -1.089805405222     1.007825032230
         H           -3.578323350501    -0.869442543627     0.563346594778     1.007825032230
         H           -2.319053350501    -2.071099543627     0.148645594778     1.007825032230
         H           -2.991235350501    -1.022132543627    -1.115209405222     1.007825032230

  Basis Set: AUG-CC-PVTZ
    Blend: AUG-CC-PVTZ
  Basis Set: (AUG-CC-PVTZ AUX)
    Blend: AUG-CC-PVTZ-JKFIT
	 Reference Energy          =    -758.0632550928097544 [Eh]
	 Singles Energy            =      -0.0000000000000000 [Eh]
	 Same-Spin Energy          =      -0.4687123818241906 [Eh]
	 Opposite-Spin Energy      =      -1.4006725094254804 [Eh]
	 Correlation Energy        =      -1.8693848912496711 [Eh]
	 Total Energy              =    -759.9326399840593922 [Eh]

	 ================> DF-SCS-MP2 Energies <==================
	-----------------------------------------------------------
	 SCS Same-Spin Scale       =       0.3333333333333333 [-]
	 SCS Opposite-Spin Scale   =       1.2000000000000000 [-]
	 SCS Same-Spin Energy      =      -0.1562374606080635 [Eh]
	 SCS Opposite-Spin Energy  =      -1.6808070113105764 [Eh]
	 SCS Correlation Energy    =      -1.8370444719186398 [Eh]
	 SCS Total Energy          =    -759.9002995647283569 [Eh]
	-----------------------------------------------------------

  Dipole Moment: [D]
     X:    -8.2117      Y:     0.4194      Z:     0.0990     Total:     8.2230

*** Psi4 exiting successfully. Buy a developer a beer!
