                               Psi4 1.4a3.dev225

  ==> Input File <==

--------------------------------------------------------------------------
#psi4
#
memory 32 gb

molecule  {
-2 1
  P        1.2274490    -0.0222580     0.0433940
  O       -0.3905570    -0.3882050    -0.6807720
  O        2.1423100    -0.5208960    -1.0789140
  O        1.1898850    -0.8529840     1.3405840
  O        1.1572260     1.5080110     0.2493660
  C       -1.4468750    -0.0662350     0.1787580
  C       -1.9094950     1.3730130    -0.0649580
  C       -2.5522295    -1.1198856     0.0893757
  H       -1.1173450    -0.1582630     1.2256300
  H       -2.7054590     1.6884420     0.6308980
  H       -1.0118930     1.9864150     0.0562940
  H       -2.2859860     1.4684620    -1.0931860
  H       -3.4570710    -0.8823980     0.5599660
  H       -2.1978010    -2.0840550     0.1452650
  H       -2.8699830    -1.0350880    -1.1185900
units angstrom
no_reorient  #important for SAPT in psi4, default
symmetry c1  #important for SAPT in psi4, default
}

set PROPERTIES_ORIGIN ["COM"]
properties('MP2/aug-cc-pvtz', properties = ['dipole'])
--------------------------------------------------------------------------

    Molecular point group: c1
  Charge       = -2
  Multiplicity = 1
  Basis Set: AUG-CC-PVTZ
    Blend: AUG-CC-PVTZ
  Basis Set: (AUG-CC-PVTZ AUX)
    Blend: AUG-CC-PVTZ-JKFIT

    Orbital Energies [Eh]
    ---------------------

    Doubly Occupied:

       1A    -79.675898     2A    -20.204511     3A    -20.119173
       4A    -20.118727     5A    -20.116954     6A    -10.982724
       7A    -10.967429     8A    -10.938425     9A     -7.190111
      10A     -5.089600    11A     -5.087086    12A     -5.087026
      13A     -1.015258    14A     -0.929527    15A     -0.860916
      16A     -0.860132    17A     -0.752282    18A     -0.670141
      19A     -0.502778    20A     -0.390911    21A     -0.358994
      22A     -0.322781    23A     -0.306524    24A     -0.258575
      25A     -0.249411    26A     -0.235809    27A     -0.222485
      28A     -0.192488    29A     -0.181162    30A     -0.152121
      31A     -0.117658    32A     -0.095208    33A     -0.092257
      34A     -0.083298    35A     -0.057952    36A     -0.050962
      37A     -0.027109

  @DF-RHF Final Energy:  -758.03874879143768

   => Energetics <=

    Nuclear Repulsion Energy =            503.3350385973040488
    One-Electron Energy =               -2073.6187703397786208
    Two-Electron Energy =                 812.2449829510369455
    Total Energy =                       -758.0387487914376834
  Basis Set: (AUG-CC-PVTZ AUX)
    Blend: AUG-CC-PVTZ-RI
    Molecular point group: c1

    Geometry (in Angstrom), charge = -2, multiplicity = 1:

       Center              X                  Y                   Z               Mass
    ------------   -----------------  -----------------  -----------------  -----------------
         P            1.104930667061    -0.011248609671     0.032693714242    30.973761998420
         O           -0.513075332939    -0.377195609671    -0.691472285758    15.994914619570
         O            2.019791667061    -0.509886609671    -1.089614285758    15.994914619570
         O            1.067366667061    -0.841974609671     1.329883714242    15.994914619570
         O            1.034707667061     1.519020390329     0.238665714242    15.994914619570
         C           -1.569393332939    -0.055225609671     0.168057714242    12.000000000000
         C           -2.032013332939     1.384022390329    -0.075658285758    12.000000000000
         C           -2.674747832939    -1.108876209671     0.078675414242    12.000000000000
         H           -1.239863332939    -0.147253609671     1.214929714242     1.007825032230
         H           -2.827977332939     1.699451390329     0.620197714242     1.007825032230
         H           -1.134411332939     1.997424390329     0.045593714242     1.007825032230
         H           -2.408504332939     1.479471390329    -1.103886285758     1.007825032230
         H           -3.579589332939    -0.871388609671     0.549265714242     1.007825032230
         H           -2.320319332939    -2.073045609671     0.134564714242     1.007825032230
         H           -2.992501332939    -1.024078609671    -1.129290285758     1.007825032230

  Basis Set: AUG-CC-PVTZ
    Blend: AUG-CC-PVTZ
  Basis Set: (AUG-CC-PVTZ AUX)
    Blend: AUG-CC-PVTZ-JKFIT
	 Reference Energy          =    -758.0387487914376834 [Eh]
	 Singles Energy            =      -0.0000000000000000 [Eh]
	 Same-Spin Energy          =      -0.4700990604011457 [Eh]
	 Opposite-Spin Energy      =      -1.4041983734060084 [Eh]
	 Correlation Energy        =      -1.8742974338071541 [Eh]
	 Total Energy              =    -759.9130462252447842 [Eh]

	 ================> DF-SCS-MP2 Energies <==================
	-----------------------------------------------------------
	 SCS Same-Spin Scale       =       0.3333333333333333 [-]
	 SCS Opposite-Spin Scale   =       1.2000000000000000 [-]
	 SCS Same-Spin Energy      =      -0.1566996868003819 [Eh]
	 SCS Opposite-Spin Energy  =      -1.6850380480872100 [Eh]
	 SCS Correlation Energy    =      -1.8417377348875918 [Eh]
	 SCS Total Energy          =    -759.8804865263252850 [Eh]
	-----------------------------------------------------------

  Dipole Moment: [D]
     X:    -8.1422      Y:     0.0888      Z:     0.3749     Total:     8.1513

*** Psi4 exiting successfully. Buy a developer a beer!
