                               Psi4 1.4a3.dev225

  ==> Input File <==

--------------------------------------------------------------------------
#psi4
#
memory 32 gb

molecule  {
-2 1
  P        1.2274490    -0.0222580     0.0433940
  O       -0.3743323    -0.4492073    -0.6834403
  O        2.1423100    -0.5208960    -1.0789140
  O        1.1898850    -0.8529840     1.3405840
  O        1.1572260     1.5080110     0.2493660
  C       -1.4468750    -0.0662350     0.1787580
  C       -1.9094950     1.3730130    -0.0649580
  C       -2.5698170    -1.0762850    -0.0636830
  H       -1.1173450    -0.1582630     1.2256300
  H       -2.7054590     1.6884420     0.6308980
  H       -1.0118930     1.9864150     0.0562940
  H       -2.2859860     1.4684620    -1.0931860
  H       -3.4570710    -0.8823980     0.5599660
  H       -2.1978010    -2.0840550     0.1452650
  H       -2.8699830    -1.0350880    -1.1185900
units angstrom
no_reorient  #important for SAPT in psi4, default
symmetry c1  #important for SAPT in psi4, default
}

set PROPERTIES_ORIGIN ["COM"]
properties('MP2/aug-cc-pvtz', properties = ['dipole'])
--------------------------------------------------------------------------

    Molecular point group: c1
  Charge       = -2
  Multiplicity = 1
  Basis Set: AUG-CC-PVTZ
    Blend: AUG-CC-PVTZ
  Basis Set: (AUG-CC-PVTZ AUX)
    Blend: AUG-CC-PVTZ-JKFIT

    Orbital Energies [Eh]
    ---------------------

    Doubly Occupied:

       1A    -79.674047     2A    -20.204279     3A    -20.120808
       4A    -20.116238     5A    -20.114105     6A    -10.982737
       7A    -10.961863     8A    -10.939148     9A     -7.188311
      10A     -5.087769    11A     -5.085311    12A     -5.085245
      13A     -1.005826    14A     -0.926588    15A     -0.860363
      16A     -0.858380    17A     -0.752045    18A     -0.667172
      19A     -0.500913    20A     -0.388163    21A     -0.336132
      22A     -0.316701    23A     -0.302746    24A     -0.277744
      25A     -0.243064    26A     -0.239162    27A     -0.223884
      28A     -0.189920    29A     -0.180838    30A     -0.163958
      31A     -0.117532    32A     -0.093653    33A     -0.090708
      34A     -0.082017    35A     -0.056104    36A     -0.050368
      37A     -0.025967

  @DF-RHF Final Energy:  -758.05866818623213

   => Energetics <=

    Nuclear Repulsion Energy =            502.8825271776307773
    One-Electron Energy =               -2072.8627732790869231
    Two-Electron Energy =                 811.9215779152239065
    Total Energy =                       -758.0586681862321257
  Basis Set: (AUG-CC-PVTZ AUX)
    Blend: AUG-CC-PVTZ-RI
    Molecular point group: c1

    Geometry (in Angstrom), charge = -2, multiplicity = 1:

       Center              X                  Y                   Z               Mass
    ------------   -----------------  -----------------  -----------------  -----------------
         P            1.104579508994    -0.007969678462     0.046311627448    30.973761998420
         O           -0.497201791006    -0.434918978462    -0.680522672552    15.994914619570
         O            2.019440508994    -0.506607678462    -1.075996372552    15.994914619570
         O            1.067015508994    -0.838695678462     1.343501627448    15.994914619570
         O            1.034356508994     1.522299321538     0.252283627448    15.994914619570
         C           -1.569744491006    -0.051946678462     0.181675627448    12.000000000000
         C           -2.032364491006     1.387301321538    -0.062040372552    12.000000000000
         C           -2.692686491006    -1.061996678462    -0.060765372552    12.000000000000
         H           -1.240214491006    -0.143974678462     1.228547627448     1.007825032230
         H           -2.828328491006     1.702730321538     0.633815627448     1.007825032230
         H           -1.134762491006     2.000703321538     0.059211627448     1.007825032230
         H           -2.408855491006     1.482750321538    -1.090268372552     1.007825032230
         H           -3.579940491006    -0.868109678462     0.562883627448     1.007825032230
         H           -2.320670491006    -2.069766678462     0.148182627448     1.007825032230
         H           -2.992852491006    -1.020799678462    -1.115672372552     1.007825032230

  Basis Set: AUG-CC-PVTZ
    Blend: AUG-CC-PVTZ
  Basis Set: (AUG-CC-PVTZ AUX)
    Blend: AUG-CC-PVTZ-JKFIT
	 Reference Energy          =    -758.0586681862321257 [Eh]
	 Singles Energy            =      -0.0000000000000000 [Eh]
	 Same-Spin Energy          =      -0.4698858550130514 [Eh]
	 Opposite-Spin Energy      =      -1.4040726964361341 [Eh]
	 Correlation Energy        =      -1.8739585514491854 [Eh]
	 Total Energy              =    -759.9326267376812893 [Eh]

	 ================> DF-SCS-MP2 Energies <==================
	-----------------------------------------------------------
	 SCS Same-Spin Scale       =       0.3333333333333333 [-]
	 SCS Opposite-Spin Scale   =       1.2000000000000000 [-]
	 SCS Same-Spin Energy      =      -0.1566286183376838 [Eh]
	 SCS Opposite-Spin Energy  =      -1.6848872357233609 [Eh]
	 SCS Correlation Energy    =      -1.8415158540610446 [Eh]
	 SCS Total Energy          =    -759.9001840402931975 [Eh]
	-----------------------------------------------------------

  Dipole Moment: [D]
     X:    -8.3409      Y:     0.2065      Z:     0.0821     Total:     8.3439

*** Psi4 exiting successfully. Buy a developer a beer!
