                               Psi4 1.4a3.dev225

  ==> Input File <==

--------------------------------------------------------------------------
#psi4
#
memory 32 gb

molecule  {
-2 1
  P        1.2274490    -0.0222580     0.0433940
  O       -0.3905570    -0.3882050    -0.6807720
  O        2.1423100    -0.5208960    -1.0789140
  O        1.1898850    -0.8529840     1.3405840
  O        1.1572260     1.5080110     0.2493660
  C       -1.4468750    -0.0662350     0.1787580
  C       -1.9094950     1.3730130    -0.0649580
  C       -2.5677366    -1.0843347    -0.0383127
  H       -1.1173450    -0.1582630     1.2256300
  H       -2.7054590     1.6884420     0.6308980
  H       -1.0118930     1.9864150     0.0562940
  H       -2.2859860     1.4684620    -1.0931860
  H       -3.4570710    -0.8823980     0.5599660
  H       -2.1978010    -2.0840550     0.1452650
  H       -2.8699830    -1.0350880    -1.1185900
units angstrom
no_reorient  #important for SAPT in psi4, default
symmetry c1  #important for SAPT in psi4, default
}

set PROPERTIES_ORIGIN ["COM"]
properties('MP2/aug-cc-pvtz', properties = ['dipole'])
--------------------------------------------------------------------------

    Molecular point group: c1
  Charge       = -2
  Multiplicity = 1
  Basis Set: AUG-CC-PVTZ
    Blend: AUG-CC-PVTZ
  Basis Set: (AUG-CC-PVTZ AUX)
    Blend: AUG-CC-PVTZ-JKFIT

    Orbital Energies [Eh]
    ---------------------

    Doubly Occupied:

       1A    -79.675215     2A    -20.202617     3A    -20.118729
       4A    -20.118378     5A    -20.116374     6A    -10.980619
       7A    -10.961826     8A    -10.936255     9A     -7.189431
      10A     -5.088906    11A     -5.086419    12A     -5.086358
      13A     -1.014617    14A     -0.929121    15A     -0.860421
      16A     -0.859731    17A     -0.749985    18A     -0.666373
      19A     -0.500230    20A     -0.392095    21A     -0.338285
      22A     -0.317448    23A     -0.304458    24A     -0.272107
      25A     -0.244828    26A     -0.242950    27A     -0.226254
      28A     -0.190223    29A     -0.182156    30A     -0.160357
      31A     -0.115545    32A     -0.094738    33A     -0.091791
      34A     -0.082719    35A     -0.057552    36A     -0.050218
      37A     -0.026671

  @DF-RHF Final Energy:  -758.06046050754037

   => Energetics <=

    Nuclear Repulsion Energy =            503.5182255373122189
    One-Electron Energy =               -2074.0933754720877005
    Two-Electron Energy =                 812.5146894272351119
    Total Energy =                       -758.0604605075403697
  Basis Set: (AUG-CC-PVTZ AUX)
    Blend: AUG-CC-PVTZ-RI
    Molecular point group: c1

    Geometry (in Angstrom), charge = -2, multiplicity = 1:

       Center              X                  Y                   Z               Mass
    ------------   -----------------  -----------------  -----------------  -----------------
         P            1.106279030461    -0.014339808696     0.043796393994    30.973761998420
         O           -0.511726969539    -0.380286808696    -0.680369606006    15.994914619570
         O            2.021140030461    -0.512977808696    -1.078511606006    15.994914619570
         O            1.068715030461    -0.845065808696     1.340986393994    15.994914619570
         O            1.036056030461     1.515929191304     0.249768393994    15.994914619570
         C           -1.568044969539    -0.058316808696     0.179160393994    12.000000000000
         C           -2.030664969539     1.380931191304    -0.064555606006    12.000000000000
         C           -2.688906569539    -1.076416508696    -0.037910306006    12.000000000000
         H           -1.238514969539    -0.150344808696     1.226032393994     1.007825032230
         H           -2.826628969539     1.696360191304     0.631300393994     1.007825032230
         H           -1.133062969539     1.994333191304     0.056696393994     1.007825032230
         H           -2.407155969539     1.476380191304    -1.092783606006     1.007825032230
         H           -3.578240969539    -0.874479808696     0.560368393994     1.007825032230
         H           -2.318970969539    -2.076136808696     0.145667393994     1.007825032230
         H           -2.991152969539    -1.027169808696    -1.118187606006     1.007825032230

  Basis Set: AUG-CC-PVTZ
    Blend: AUG-CC-PVTZ
  Basis Set: (AUG-CC-PVTZ AUX)
    Blend: AUG-CC-PVTZ-JKFIT
	 Reference Energy          =    -758.0604605075403697 [Eh]
	 Singles Energy            =      -0.0000000000000000 [Eh]
	 Same-Spin Energy          =      -0.4697016106707573 [Eh]
	 Opposite-Spin Energy      =      -1.4031613535287089 [Eh]
	 Correlation Energy        =      -1.8728629641994661 [Eh]
	 Total Energy              =    -759.9333234717398682 [Eh]

	 ================> DF-SCS-MP2 Energies <==================
	-----------------------------------------------------------
	 SCS Same-Spin Scale       =       0.3333333333333333 [-]
	 SCS Opposite-Spin Scale   =       1.2000000000000000 [-]
	 SCS Same-Spin Energy      =      -0.1565672035569191 [Eh]
	 SCS Opposite-Spin Energy  =      -1.6837936242344507 [Eh]
	 SCS Correlation Energy    =      -1.8403608277913697 [Eh]
	 SCS Total Energy          =    -759.9008213353317842 [Eh]
	-----------------------------------------------------------

  Dipole Moment: [D]
     X:    -8.2226      Y:     0.0807      Z:     0.1063     Total:     8.2236

*** Psi4 exiting successfully. Buy a developer a beer!
