                               Psi4 1.4a3.dev225

  ==> Input File <==

--------------------------------------------------------------------------
#psi4
#
memory 32 gb

molecule  {
-2 1
  P        1.2274490    -0.0222580     0.0433940
  O       -0.3905570    -0.3882050    -0.6807720
  O        2.1423100    -0.5208960    -1.0789140
  O        1.1898850    -0.8529840     1.3405840
  O        1.1572260     1.5080110     0.2493660
  C       -1.4468750    -0.0662350     0.1787580
  C       -1.9094950     1.3730130    -0.0649580
  C       -2.5698170    -1.0762850    -0.0636830
  H       -1.1173450    -0.1582630     1.2256300
  H       -2.7054590     1.6884420     0.6308980
  H       -1.0118930     1.9864150     0.0562940
  H       -2.2859860     1.4684620    -1.0931860
  H       -3.4570710    -0.8823980     0.5599660
  H       -2.2045997    -2.0656377     0.1414464
  H       -2.8699830    -1.0350880    -1.1185900
units angstrom
no_reorient  #important for SAPT in psi4, default
symmetry c1  #important for SAPT in psi4, default
}

set PROPERTIES_ORIGIN ["COM"]
properties('MP2/aug-cc-pvtz', properties = ['dipole'])
--------------------------------------------------------------------------

    Molecular point group: c1
  Charge       = -2
  Multiplicity = 1
  Basis Set: AUG-CC-PVTZ
    Blend: AUG-CC-PVTZ
  Basis Set: (AUG-CC-PVTZ AUX)
    Blend: AUG-CC-PVTZ-JKFIT

    Orbital Energies [Eh]
    ---------------------

    Doubly Occupied:

       1A    -79.675127     2A    -20.202342     3A    -20.118666
       4A    -20.118389     5A    -20.116302     6A    -10.980318
       7A    -10.958954     8A    -10.935671     9A     -7.189345
      10A     -5.088817    11A     -5.086335    12A     -5.086274
      13A     -1.014609    14A     -0.929109    15A     -0.860369
      16A     -0.859704    17A     -0.750440    18A     -0.667022
      19A     -0.500637    20A     -0.392487    21A     -0.337839
      22A     -0.317335    23A     -0.303177    24A     -0.276689
      25A     -0.244371    26A     -0.243619    27A     -0.225325
      28A     -0.189822    29A     -0.182338    30A     -0.161501
      31A     -0.115048    32A     -0.094680    33A     -0.091749
      34A     -0.082588    35A     -0.057519    36A     -0.050108
      37A     -0.026631

  @DF-RHF Final Energy:  -758.06121689175109

   => Energetics <=

    Nuclear Repulsion Energy =            503.6484357726433814
    One-Electron Energy =               -2074.3567900714579082
    Two-Electron Energy =                 812.6471374070634965
    Total Energy =                       -758.0612168917510871
  Basis Set: (AUG-CC-PVTZ AUX)
    Blend: AUG-CC-PVTZ-RI
    Molecular point group: c1

    Geometry (in Angstrom), charge = -2, multiplicity = 1:

       Center              X                  Y                   Z               Mass
    ------------   -----------------  -----------------  -----------------  -----------------
         P            1.106509572567    -0.015174236068     0.046030261911    30.973761998420
         O           -0.511496427433    -0.381121236068    -0.678135738089    15.994914619570
         O            2.021370572567    -0.513812236068    -1.076277738089    15.994914619570
         O            1.068945572567    -0.845900236068     1.343220261911    15.994914619570
         O            1.036286572567     1.515094763932     0.252002261911    15.994914619570
         C           -1.567814427433    -0.059151236068     0.181394261911    12.000000000000
         C           -2.030434427433     1.380096763932    -0.062321738089    12.000000000000
         C           -2.690756427433    -1.069201236068    -0.061046738089    12.000000000000
         H           -1.238284427433    -0.151179236068     1.228266261911     1.007825032230
         H           -2.826398427433     1.695525763932     0.633534261911     1.007825032230
         H           -1.132832427433     1.993498763932     0.058930261911     1.007825032230
         H           -2.406925427433     1.475545763932    -1.090549738089     1.007825032230
         H           -3.578010427433    -0.875314236068     0.562602261911     1.007825032230
         H           -2.325539127433    -2.058553936068     0.144082661911     1.007825032230
         H           -2.990922427433    -1.028004236068    -1.115953738089     1.007825032230

  Basis Set: AUG-CC-PVTZ
    Blend: AUG-CC-PVTZ
  Basis Set: (AUG-CC-PVTZ AUX)
    Blend: AUG-CC-PVTZ-JKFIT
	 Reference Energy          =    -758.0612168917510871 [Eh]
	 Singles Energy            =      -0.0000000000000000 [Eh]
	 Same-Spin Energy          =      -0.4696870129253551 [Eh]
	 Opposite-Spin Energy      =      -1.4030177244802180 [Eh]
	 Correlation Energy        =      -1.8727047374055732 [Eh]
	 Total Energy              =    -759.9339216291566572 [Eh]

	 ================> DF-SCS-MP2 Energies <==================
	-----------------------------------------------------------
	 SCS Same-Spin Scale       =       0.3333333333333333 [-]
	 SCS Opposite-Spin Scale   =       1.2000000000000000 [-]
	 SCS Same-Spin Energy      =      -0.1565623376417850 [Eh]
	 SCS Opposite-Spin Energy  =      -1.6836212693762616 [Eh]
	 SCS Correlation Energy    =      -1.8401836070180466 [Eh]
	 SCS Total Energy          =    -759.9014004987691351 [Eh]
	-----------------------------------------------------------

  Dipole Moment: [D]
     X:    -8.2286      Y:     0.0680      Z:     0.0598     Total:     8.2291

*** Psi4 exiting successfully. Buy a developer a beer!
