                               Psi4 1.4a3.dev225

  ==> Input File <==

--------------------------------------------------------------------------
#psi4
#
memory 32 gb

molecule  {
-2 1
  P        1.2274490    -0.0222580     0.0433940
  O       -0.3905570    -0.3882050    -0.6807720
  O        2.1423100    -0.5208960    -1.0789140
  O        1.1898850    -0.8529840     1.3405840
  O        1.1572260     1.5080110     0.2493660
  C       -1.4468750    -0.0662350     0.1787580
  C       -1.9094950     1.3730130    -0.0649580
  C       -2.5698170    -1.0762850    -0.0636830
  H       -1.1771854    -0.1415513     1.0355252
  H       -2.7054590     1.6884420     0.6308980
  H       -1.0118930     1.9864150     0.0562940
  H       -2.2859860     1.4684620    -1.0931860
  H       -3.4570710    -0.8823980     0.5599660
  H       -2.1978010    -2.0840550     0.1452650
  H       -2.8699830    -1.0350880    -1.1185900
units angstrom
no_reorient  #important for SAPT in psi4, default
symmetry c1  #important for SAPT in psi4, default
}

set PROPERTIES_ORIGIN ["COM"]
properties('MP2/aug-cc-pvtz', properties = ['dipole'])
--------------------------------------------------------------------------

    Molecular point group: c1
  Charge       = -2
  Multiplicity = 1
  Basis Set: AUG-CC-PVTZ
    Blend: AUG-CC-PVTZ
  Basis Set: (AUG-CC-PVTZ AUX)
    Blend: AUG-CC-PVTZ-JKFIT

    Orbital Energies [Eh]
    ---------------------

    Doubly Occupied:

       1A    -79.674433     2A    -20.198904     3A    -20.118379
       4A    -20.118281     5A    -20.115616     6A    -10.960841
       7A    -10.956618     8A    -10.934956     9A     -7.188623
      10A     -5.088073    11A     -5.085633    12A     -5.085576
      13A     -1.014490    14A     -0.928872    15A     -0.859821
      16A     -0.859365    17A     -0.756071    18A     -0.665885
      19A     -0.536831    20A     -0.402389    21A     -0.335814
      22A     -0.316882    23A     -0.302768    24A     -0.277340
      25A     -0.249656    26A     -0.242417    27A     -0.224039
      28A     -0.190345    29A     -0.185279    30A     -0.170661
      31A     -0.116950    32A     -0.094630    33A     -0.091181
      34A     -0.081798    35A     -0.057025    36A     -0.049384
      37A     -0.026236

  @DF-RHF Final Energy:  -758.03018959936185

   => Energetics <=

    Nuclear Repulsion Energy =            504.6265719871019542
    One-Electron Energy =               -2076.1893943553641293
    Two-Electron Energy =                 813.5326327689003847
    Total Energy =                       -758.0301895993618473
  Basis Set: (AUG-CC-PVTZ AUX)
    Blend: AUG-CC-PVTZ-RI
    Molecular point group: c1

    Geometry (in Angstrom), charge = -2, multiplicity = 1:

       Center              X                  Y                   Z               Mass
    ------------   -----------------  -----------------  -----------------  -----------------
         P            1.106896917339    -0.015161780674     0.047390644130    30.973761998420
         O           -0.511109082661    -0.381108780674    -0.676775355870    15.994914619570
         O            2.021757917339    -0.513799780674    -1.074917355870    15.994914619570
         O            1.069332917339    -0.845887780674     1.344580644130    15.994914619570
         O            1.036673917339     1.515107219326     0.253362644130    15.994914619570
         C           -1.567427082661    -0.059138780674     0.182754644130    12.000000000000
         C           -2.030047082661     1.380109219326    -0.060961355870    12.000000000000
         C           -2.690369082661    -1.069188780674    -0.059686355870    12.000000000000
         H           -1.297737482661    -0.134455080674     1.039521844130     1.007825032230
         H           -2.826011082661     1.695538219326     0.634894644130     1.007825032230
         H           -1.132445082661     1.993511219326     0.060290644130     1.007825032230
         H           -2.406538082661     1.475558219326    -1.089189355870     1.007825032230
         H           -3.577623082661    -0.875301780674     0.563962644130     1.007825032230
         H           -2.318353082661    -2.076958780674     0.149261644130     1.007825032230
         H           -2.990535082661    -1.027991780674    -1.114593355870     1.007825032230

  Basis Set: AUG-CC-PVTZ
    Blend: AUG-CC-PVTZ
  Basis Set: (AUG-CC-PVTZ AUX)
    Blend: AUG-CC-PVTZ-JKFIT
	 Reference Energy          =    -758.0301895993618473 [Eh]
	 Singles Energy            =      -0.0000000000000000 [Eh]
	 Same-Spin Energy          =      -0.4691004042213969 [Eh]
	 Opposite-Spin Energy      =      -1.4018767068558284 [Eh]
	 Correlation Energy        =      -1.8709771110772253 [Eh]
	 Total Energy              =    -759.9011667104390426 [Eh]

	 ================> DF-SCS-MP2 Energies <==================
	-----------------------------------------------------------
	 SCS Same-Spin Scale       =       0.3333333333333333 [-]
	 SCS Opposite-Spin Scale   =       1.2000000000000000 [-]
	 SCS Same-Spin Energy      =      -0.1563668014071323 [Eh]
	 SCS Opposite-Spin Energy  =      -1.6822520482269940 [Eh]
	 SCS Correlation Energy    =      -1.8386188496341263 [Eh]
	 SCS Total Energy          =    -759.8688084489959920 [Eh]
	-----------------------------------------------------------

  Dipole Moment: [D]
     X:    -8.3347      Y:     0.0928      Z:     0.1167     Total:     8.3360

*** Psi4 exiting successfully. Buy a developer a beer!
