                               Psi4 1.4a3.dev225

  ==> Input File <==

--------------------------------------------------------------------------
#psi4
#
memory 32 gb

molecule  {
-2 1
  P        1.2274490    -0.0222580     0.0433940
  O       -0.3979313    -0.3575320    -0.6791068
  O        2.1423100    -0.5208960    -1.0789140
  O        1.1898850    -0.8529840     1.3405840
  O        1.1572260     1.5080110     0.2493660
  C       -1.4468750    -0.0662350     0.1787580
  C       -1.9094950     1.3730130    -0.0649580
  C       -2.5698170    -1.0762850    -0.0636830
  H       -1.1173450    -0.1582630     1.2256300
  H       -2.7054590     1.6884420     0.6308980
  H       -1.0118930     1.9864150     0.0562940
  H       -2.2859860     1.4684620    -1.0931860
  H       -3.4570710    -0.8823980     0.5599660
  H       -2.1978010    -2.0840550     0.1452650
  H       -2.8699830    -1.0350880    -1.1185900
units angstrom
no_reorient  #important for SAPT in psi4, default
symmetry c1  #important for SAPT in psi4, default
}

set PROPERTIES_ORIGIN ["COM"]
properties('MP2/aug-cc-pvtz', properties = ['dipole'])
--------------------------------------------------------------------------

    Molecular point group: c1
  Charge       = -2
  Multiplicity = 1
  Basis Set: AUG-CC-PVTZ
    Blend: AUG-CC-PVTZ
  Basis Set: (AUG-CC-PVTZ AUX)
    Blend: AUG-CC-PVTZ-JKFIT

    Orbital Energies [Eh]
    ---------------------

    Doubly Occupied:

       1A    -79.675725     2A    -20.201422     3A    -20.119484
       4A    -20.117665     5A    -20.117426     6A    -10.979521
       7A    -10.961412     8A    -10.934348     9A     -7.189923
      10A     -5.089404    11A     -5.086913    12A     -5.086839
      13A     -1.019091    14A     -0.930290    15A     -0.861156
      16A     -0.859641    17A     -0.748874    18A     -0.665312
      19A     -0.500225    20A     -0.394685    21A     -0.335069
      22A     -0.318281    23A     -0.303107    24A     -0.276282
      25A     -0.245669    26A     -0.244438    27A     -0.225105
      28A     -0.189581    29A     -0.183151    30A     -0.160453
      31A     -0.114026    32A     -0.095281    33A     -0.092226
      34A     -0.082901    35A     -0.058404    36A     -0.049677
      37A     -0.026974

  @DF-RHF Final Energy:  -758.06156952227673

   => Energetics <=

    Nuclear Repulsion Energy =            503.8945255615141150
    One-Electron Energy =               -2074.8322249972429745
    Two-Electron Energy =                 812.8761299134522460
    Total Energy =                       -758.0615695222767272
  Basis Set: (AUG-CC-PVTZ AUX)
    Blend: AUG-CC-PVTZ-RI
    Molecular point group: c1

    Geometry (in Angstrom), charge = -2, multiplicity = 1:

       Center              X                  Y                   Z               Mass
    ------------   -----------------  -----------------  -----------------  -----------------
         P            1.107314592865    -0.018594689453     0.045809382185    30.973761998420
         O           -0.518065707135    -0.353868689453    -0.676691417815    15.994914619570
         O            2.022175592865    -0.517232689453    -1.076498617815    15.994914619570
         O            1.069750592865    -0.849320689453     1.342999382185    15.994914619570
         O            1.037091592865     1.511674310547     0.251781382185    15.994914619570
         C           -1.567009407135    -0.062571689453     0.181173382185    12.000000000000
         C           -2.029629407135     1.376676310547    -0.062542617815    12.000000000000
         C           -2.689951407135    -1.072621689453    -0.061267617815    12.000000000000
         H           -1.237479407135    -0.154599689453     1.228045382185     1.007825032230
         H           -2.825593407135     1.692105310547     0.633313382185     1.007825032230
         H           -1.132027407135     1.990078310547     0.058709382185     1.007825032230
         H           -2.406120407135     1.472125310547    -1.090770617815     1.007825032230
         H           -3.577205407135    -0.878734689453     0.562381382185     1.007825032230
         H           -2.317935407135    -2.080391689453     0.147680382185     1.007825032230
         H           -2.990117407135    -1.031424689453    -1.116174617815     1.007825032230

  Basis Set: AUG-CC-PVTZ
    Blend: AUG-CC-PVTZ
  Basis Set: (AUG-CC-PVTZ AUX)
    Blend: AUG-CC-PVTZ-JKFIT
	 Reference Energy          =    -758.0615695222767272 [Eh]
	 Singles Energy            =      -0.0000000000000000 [Eh]
	 Same-Spin Energy          =      -0.4696238430220511 [Eh]
	 Opposite-Spin Energy      =      -1.4027615410784948 [Eh]
	 Correlation Energy        =      -1.8723853841005460 [Eh]
	 Total Energy              =    -759.9339549063772665 [Eh]

	 ================> DF-SCS-MP2 Energies <==================
	-----------------------------------------------------------
	 SCS Same-Spin Scale       =       0.3333333333333333 [-]
	 SCS Opposite-Spin Scale   =       1.2000000000000000 [-]
	 SCS Same-Spin Energy      =      -0.1565412810073503 [Eh]
	 SCS Opposite-Spin Energy  =      -1.6833138492941937 [Eh]
	 SCS Correlation Energy    =      -1.8398551303015440 [Eh]
	 SCS Total Energy          =    -759.9014246525782710 [Eh]
	-----------------------------------------------------------

  Dipole Moment: [D]
     X:    -8.1667      Y:     0.0248      Z:     0.0441     Total:     8.1669

*** Psi4 exiting successfully. Buy a developer a beer!
