                               Psi4 1.4a3.dev225

  ==> Input File <==

--------------------------------------------------------------------------
#psi4
#
memory 32 gb

molecule  {
-2 1
  P        1.2274490    -0.0222580     0.0433940
  O       -0.3905570    -0.3882050    -0.6807720
  O        2.1423100    -0.5208960    -1.0789140
  O        1.1898850    -0.8529840     1.3405840
  O        1.1572260     1.5080110     0.2493660
  C       -1.4317781    -0.0708366     0.1664736
  C       -1.9094950     1.3730130    -0.0649580
  C       -2.5698170    -1.0762850    -0.0636830
  H       -1.1173450    -0.1582630     1.2256300
  H       -2.7054590     1.6884420     0.6308980
  H       -1.0118930     1.9864150     0.0562940
  H       -2.2859860     1.4684620    -1.0931860
  H       -3.4570710    -0.8823980     0.5599660
  H       -2.1978010    -2.0840550     0.1452650
  H       -2.8699830    -1.0350880    -1.1185900
units angstrom
no_reorient  #important for SAPT in psi4, default
symmetry c1  #important for SAPT in psi4, default
}

set PROPERTIES_ORIGIN ["COM"]
properties('MP2/aug-cc-pvtz', properties = ['dipole'])
--------------------------------------------------------------------------

    Molecular point group: c1
  Charge       = -2
  Multiplicity = 1
  Basis Set: AUG-CC-PVTZ
    Blend: AUG-CC-PVTZ
  Basis Set: (AUG-CC-PVTZ AUX)
    Blend: AUG-CC-PVTZ-JKFIT

    Orbital Energies [Eh]
    ---------------------

    Doubly Occupied:

       1A    -79.676172     2A    -20.203861     3A    -20.119451
       4A    -20.119084     5A    -20.117079     6A    -10.981255
       7A    -10.960693     8A    -10.935058     9A     -7.190416
      10A     -5.089908    11A     -5.087384    12A     -5.087322
      13A     -1.022303    14A     -0.930954    15A     -0.861141
      16A     -0.860433    17A     -0.747547    18A     -0.664349
      19A     -0.499313    20A     -0.394877    21A     -0.334547
      22A     -0.318196    23A     -0.303142    24A     -0.275703
      25A     -0.248849    26A     -0.244659    27A     -0.224775
      28A     -0.189318    29A     -0.183028    30A     -0.160474
      31A     -0.113905    32A     -0.095465    33A     -0.092495
      34A     -0.083426    35A     -0.058377    36A     -0.050856
      37A     -0.027325

  @DF-RHF Final Energy:  -758.06117102587200

   => Energetics <=

    Nuclear Repulsion Energy =            503.8715232750240602
    One-Electron Energy =               -2074.7591053889377690
    Two-Electron Energy =                 812.8264110880415956
    Total Energy =                       -758.0611710258719995
  Basis Set: (AUG-CC-PVTZ AUX)
    Blend: AUG-CC-PVTZ-RI
    Molecular point group: c1

    Geometry (in Angstrom), charge = -2, multiplicity = 1:

       Center              X                  Y                   Z               Mass
    ------------   -----------------  -----------------  -----------------  -----------------
         P            1.105147228113    -0.014639625673     0.047070521286    30.973761998420
         O           -0.512858771887    -0.380586625673    -0.677095478714    15.994914619570
         O            2.020008228113    -0.513277625673    -1.075237478714    15.994914619570
         O            1.067583228113    -0.845365625673     1.344260521286    15.994914619570
         O            1.034924228113     1.515629374327     0.253042521286    15.994914619570
         C           -1.554079871887    -0.063218225673     0.170150121286    12.000000000000
         C           -2.031796771887     1.380631374327    -0.061281478714    12.000000000000
         C           -2.692118771887    -1.068666625673    -0.060006478714    12.000000000000
         H           -1.239646771887    -0.150644625673     1.229306521286     1.007825032230
         H           -2.827760771887     1.696060374327     0.634574521286     1.007825032230
         H           -1.134194771887     1.994033374327     0.059970521286     1.007825032230
         H           -2.408287771887     1.476080374327    -1.089509478714     1.007825032230
         H           -3.579372771887    -0.874779625673     0.563642521286     1.007825032230
         H           -2.320102771887    -2.076436625673     0.148941521286     1.007825032230
         H           -2.992284771887    -1.027469625673    -1.114913478714     1.007825032230

  Basis Set: AUG-CC-PVTZ
    Blend: AUG-CC-PVTZ
  Basis Set: (AUG-CC-PVTZ AUX)
    Blend: AUG-CC-PVTZ-JKFIT
	 Reference Energy          =    -758.0611710258719995 [Eh]
	 Singles Energy            =      -0.0000000000000000 [Eh]
	 Same-Spin Energy          =      -0.4696670332445348 [Eh]
	 Opposite-Spin Energy      =      -1.4028593161293335 [Eh]
	 Correlation Energy        =      -1.8725263493738682 [Eh]
	 Total Energy              =    -759.9336973752458562 [Eh]

	 ================> DF-SCS-MP2 Energies <==================
	-----------------------------------------------------------
	 SCS Same-Spin Scale       =       0.3333333333333333 [-]
	 SCS Opposite-Spin Scale   =       1.2000000000000000 [-]
	 SCS Same-Spin Energy      =      -0.1565556777481783 [Eh]
	 SCS Opposite-Spin Energy  =      -1.6834311793552001 [Eh]
	 SCS Correlation Energy    =      -1.8399868571033784 [Eh]
	 SCS Total Energy          =    -759.9011578829753262 [Eh]
	-----------------------------------------------------------

  Dipole Moment: [D]
     X:    -8.1190      Y:     0.0710      Z:     0.0353     Total:     8.1193

*** Psi4 exiting successfully. Buy a developer a beer!
