                               Psi4 1.4a3.dev225

  ==> Input File <==

--------------------------------------------------------------------------
#psi4
#
memory 32 gb

molecule  {
-2 1
  P        1.2274490    -0.0222580     0.0433940
  O       -0.3905570    -0.3882050    -0.6807720
  O        2.1423100    -0.5208960    -1.0789140
  O        1.1898850    -0.8529840     1.3405840
  O        1.1572260     1.5080110     0.2493660
  C       -1.4468750    -0.0662350     0.1787580
  C       -1.9094950     1.3730130    -0.0649580
  C       -2.6432264    -1.1423144    -0.0795319
  H       -1.1173450    -0.1582630     1.2256300
  H       -2.7054590     1.6884420     0.6308980
  H       -1.0118930     1.9864150     0.0562940
  H       -2.2859860     1.4684620    -1.0931860
  H       -3.4570710    -0.8823980     0.5599660
  H       -2.1978010    -2.0840550     0.1452650
  H       -2.8699830    -1.0350880    -1.1185900
units angstrom
no_reorient  #important for SAPT in psi4, default
symmetry c1  #important for SAPT in psi4, default
}

set PROPERTIES_ORIGIN ["COM"]
properties('MP2/aug-cc-pvtz', properties = ['dipole'])
--------------------------------------------------------------------------

    Molecular point group: c1
  Charge       = -2
  Multiplicity = 1
  Basis Set: AUG-CC-PVTZ
    Blend: AUG-CC-PVTZ
  Basis Set: (AUG-CC-PVTZ AUX)
    Blend: AUG-CC-PVTZ-JKFIT

    Orbital Energies [Eh]
    ---------------------

    Doubly Occupied:

       1A    -79.675863     2A    -20.203840     3A    -20.119379
       4A    -20.118926     5A    -20.116935     6A    -10.987997
       7A    -10.955250     8A    -10.937027     9A     -7.190086
      10A     -5.089566    11A     -5.087068    12A     -5.087006
      13A     -1.013831    14A     -0.929167    15A     -0.860991
      16A     -0.860322    17A     -0.741410    18A     -0.668792
      19A     -0.497983    20A     -0.390695    21A     -0.338411
      22A     -0.313548    23A     -0.309910    24A     -0.285719
      25A     -0.249630    26A     -0.245554    27A     -0.221033
      28A     -0.190103    29A     -0.180139    30A     -0.155138
      31A     -0.114683    32A     -0.095282    33A     -0.092345
      34A     -0.081305    35A     -0.058130    36A     -0.050193
      37A     -0.027227

  @DF-RHF Final Energy:  -758.05428823373745

   => Energetics <=

    Nuclear Repulsion Energy =            501.7231710149609967
    One-Electron Energy =               -2070.4739507891936228
    Two-Electron Energy =                 810.6964915404951171
    Total Energy =                       -758.0542882337374522
  Basis Set: (AUG-CC-PVTZ AUX)
    Blend: AUG-CC-PVTZ-RI
    Molecular point group: c1

    Geometry (in Angstrom), charge = -2, multiplicity = 1:

       Center              X                  Y                   Z               Mass
    ------------   -----------------  -----------------  -----------------  -----------------
         P            1.112842971069    -0.009298395058     0.047380459400    30.973761998420
         O           -0.505163028931    -0.375245395058    -0.676785540600    15.994914619570
         O            2.027703971069    -0.507936395058    -1.074927540600    15.994914619570
         O            1.075278971069    -0.840024395058     1.344570459400    15.994914619570
         O            1.042619971069     1.520970604942     0.253352459400    15.994914619570
         C           -1.561481028931    -0.053275395058     0.182744459400    12.000000000000
         C           -2.024101028931     1.385972604942    -0.060971540600    12.000000000000
         C           -2.757832428931    -1.129354795058    -0.075545440600    12.000000000000
         H           -1.231951028931    -0.145303395058     1.229616459400     1.007825032230
         H           -2.820065028931     1.701401604942     0.634884459400     1.007825032230
         H           -1.126499028931     1.999374604942     0.060280459400     1.007825032230
         H           -2.400592028931     1.481421604942    -1.089199540600     1.007825032230
         H           -3.571677028931    -0.869438395058     0.563952459400     1.007825032230
         H           -2.312407028931    -2.071095395058     0.149251459400     1.007825032230
         H           -2.984589028931    -1.022128395058    -1.114603540600     1.007825032230

  Basis Set: AUG-CC-PVTZ
    Blend: AUG-CC-PVTZ
  Basis Set: (AUG-CC-PVTZ AUX)
    Blend: AUG-CC-PVTZ-JKFIT
	 Reference Energy          =    -758.0542882337374522 [Eh]
	 Singles Energy            =      -0.0000000000000000 [Eh]
	 Same-Spin Energy          =      -0.4696646526643020 [Eh]
	 Opposite-Spin Energy      =      -1.4033920440078049 [Eh]
	 Correlation Energy        =      -1.8730566966721069 [Eh]
	 Total Energy              =    -759.9273449304095038 [Eh]

	 ================> DF-SCS-MP2 Energies <==================
	-----------------------------------------------------------
	 SCS Same-Spin Scale       =       0.3333333333333333 [-]
	 SCS Opposite-Spin Scale   =       1.2000000000000000 [-]
	 SCS Same-Spin Energy      =      -0.1565548842214340 [Eh]
	 SCS Opposite-Spin Energy  =      -1.6840704528093660 [Eh]
	 SCS Correlation Energy    =      -1.8406253370307999 [Eh]
	 SCS Total Energy          =    -759.8949135707682672 [Eh]
	-----------------------------------------------------------

  Dipole Moment: [D]
     X:    -8.1357      Y:     0.1711      Z:     0.0627     Total:     8.1378

*** Psi4 exiting successfully. Buy a developer a beer!
