                               Psi4 1.4a3.dev225

  ==> Input File <==

--------------------------------------------------------------------------
#psi4
#
memory 32 gb

molecule  {
-2 1
  P        1.2274490    -0.0222580     0.0433940
  O       -0.3905570    -0.3882050    -0.6807720
  O        2.1423100    -0.5208960    -1.0789140
  O        1.1898850    -0.8529840     1.3405840
  O        1.1572260     1.5080110     0.2493660
  C       -1.4468750    -0.0662350     0.1787580
  C       -1.9094950     1.3730130    -0.0649580
  C       -2.5698170    -1.0762850    -0.0636830
  H       -1.1173450    -0.1582630     1.2256300
  H       -2.8497469     1.7456212     0.7570389
  H       -1.0118930     1.9864150     0.0562940
  H       -2.2859860     1.4684620    -1.0931860
  H       -3.4570710    -0.8823980     0.5599660
  H       -2.1978010    -2.0840550     0.1452650
  H       -2.8699830    -1.0350880    -1.1185900
units angstrom
no_reorient  #important for SAPT in psi4, default
symmetry c1  #important for SAPT in psi4, default
}

set PROPERTIES_ORIGIN ["COM"]
properties('MP2/aug-cc-pvtz', properties = ['dipole'])
--------------------------------------------------------------------------

    Molecular point group: c1
  Charge       = -2
  Multiplicity = 1
  Basis Set: AUG-CC-PVTZ
    Blend: AUG-CC-PVTZ
  Basis Set: (AUG-CC-PVTZ AUX)
    Blend: AUG-CC-PVTZ-JKFIT

    Orbital Energies [Eh]
    ---------------------

    Doubly Occupied:

       1A    -79.677598     2A    -20.207330     3A    -20.121291
       4A    -20.120422     5A    -20.118502     6A    -10.984800
       7A    -10.963920     8A    -10.962526     9A     -7.191851
      10A     -5.091339    11A     -5.088822    12A     -5.088761
      13A     -1.018870    14A     -0.931679    15A     -0.862656
      16A     -0.861972    17A     -0.749033    18A     -0.659991
      19A     -0.499211    20A     -0.394291    21A     -0.338222
      22A     -0.310700    23A     -0.303236    24A     -0.269301
      25A     -0.248112    26A     -0.238660    27A     -0.221518
      28A     -0.192733    29A     -0.184682    30A     -0.162989
      31A     -0.118781    32A     -0.096916    33A     -0.093946
      34A     -0.085536    35A     -0.059759    36A     -0.052787
      37A     -0.028868

  @DF-RHF Final Energy:  -758.04294070733692

   => Energetics <=

    Nuclear Repulsion Energy =            502.6918282533363254
    One-Electron Energy =               -2072.2663189814179532
    Two-Electron Energy =                 811.5315500207447030
    Total Energy =                       -758.0429407073369248
  Basis Set: (AUG-CC-PVTZ AUX)
    Blend: AUG-CC-PVTZ-RI
    Molecular point group: c1

    Geometry (in Angstrom), charge = -2, multiplicity = 1:

       Center              X                  Y                   Z               Mass
    ------------   -----------------  -----------------  -----------------  -----------------
         P            1.107513607557    -0.015457300511     0.045081213656    30.973761998420
         O           -0.510492392443    -0.381404300511    -0.679084786344    15.994914619570
         O            2.022374607557    -0.514095300511    -1.077226786344    15.994914619570
         O            1.069949607557    -0.846183300511     1.342271213656    15.994914619570
         O            1.037290607557     1.514811699489     0.251053213656    15.994914619570
         C           -1.566810392443    -0.059434300511     0.180445213656    12.000000000000
         C           -2.029430392443     1.379813699489    -0.063270786344    12.000000000000
         C           -2.689752392443    -1.069484300511    -0.061995786344    12.000000000000
         H           -1.237280392443    -0.151462300511     1.227317213656     1.007825032230
         H           -2.969682292443     1.752421899489     0.758726113656     1.007825032230
         H           -1.131828392443     1.993215699489     0.057981213656     1.007825032230
         H           -2.405921392443     1.475262699489    -1.091498786344     1.007825032230
         H           -3.577006392443    -0.875597300511     0.561653213656     1.007825032230
         H           -2.317736392443    -2.077254300511     0.146952213656     1.007825032230
         H           -2.989918392443    -1.028287300511    -1.116902786344     1.007825032230

  Basis Set: AUG-CC-PVTZ
    Blend: AUG-CC-PVTZ
  Basis Set: (AUG-CC-PVTZ AUX)
    Blend: AUG-CC-PVTZ-JKFIT
	 Reference Energy          =    -758.0429407073369248 [Eh]
	 Singles Energy            =      -0.0000000000000000 [Eh]
	 Same-Spin Energy          =      -0.4693647942123886 [Eh]
	 Opposite-Spin Energy      =      -1.4043456009341382 [Eh]
	 Correlation Energy        =      -1.8737103951465268 [Eh]
	 Total Energy              =    -759.9166511024834563 [Eh]

	 ================> DF-SCS-MP2 Energies <==================
	-----------------------------------------------------------
	 SCS Same-Spin Scale       =       0.3333333333333333 [-]
	 SCS Opposite-Spin Scale   =       1.2000000000000000 [-]
	 SCS Same-Spin Energy      =      -0.1564549314041295 [Eh]
	 SCS Opposite-Spin Energy  =      -1.6852147211209658 [Eh]
	 SCS Correlation Energy    =      -1.8416696525250953 [Eh]
	 SCS Total Energy          =    -759.8846103598619948 [Eh]
	-----------------------------------------------------------

  Dipole Moment: [D]
     X:    -7.8959      Y:    -0.1059      Z:    -0.1225     Total:     7.8976

*** Psi4 exiting successfully. Buy a developer a beer!
