                               Psi4 1.4a3.dev225

  ==> Input File <==

--------------------------------------------------------------------------
#psi4
#
memory 32 gb

molecule  {
-2 1
  P        1.2274490    -0.0222580     0.0433940
  O       -0.3905570    -0.3882050    -0.6807720
  O        2.1423100    -0.5208960    -1.0789140
  O        1.1898850    -0.8529840     1.3405840
  O        1.1549544     1.5575130     0.2560289
  C       -1.4468750    -0.0662350     0.1787580
  C       -1.9094950     1.3730130    -0.0649580
  C       -2.5698170    -1.0762850    -0.0636830
  H       -1.1173450    -0.1582630     1.2256300
  H       -2.7054590     1.6884420     0.6308980
  H       -1.0118930     1.9864150     0.0562940
  H       -2.2859860     1.4684620    -1.0931860
  H       -3.4570710    -0.8823980     0.5599660
  H       -2.1978010    -2.0840550     0.1452650
  H       -2.8699830    -1.0350880    -1.1185900
units angstrom
no_reorient  #important for SAPT in psi4, default
symmetry c1  #important for SAPT in psi4, default
}

set PROPERTIES_ORIGIN ["COM"]
properties('MP2/aug-cc-pvtz', properties = ['dipole'])
--------------------------------------------------------------------------

    Molecular point group: c1
  Charge       = -2
  Multiplicity = 1
  Basis Set: AUG-CC-PVTZ
    Blend: AUG-CC-PVTZ
  Basis Set: (AUG-CC-PVTZ AUX)
    Blend: AUG-CC-PVTZ-JKFIT

    Orbital Energies [Eh]
    ---------------------

    Doubly Occupied:

       1A    -79.683688     2A    -20.205792     3A    -20.123017
       4A    -20.120995     5A    -20.120912     6A    -10.981687
       7A    -10.962430     8A    -10.935278     9A     -7.196609
      10A     -5.096149    11A     -5.093686    12A     -5.093322
      13A     -1.016290    14A     -0.926385    15A     -0.864209
      16A     -0.849603    17A     -0.750748    18A     -0.666097
      19A     -0.501446    20A     -0.394657    21A     -0.336266
      22A     -0.317898    23A     -0.304676    24A     -0.276992
      25A     -0.245018    26A     -0.244309    27A     -0.225287
      28A     -0.188581    29A     -0.181770    30A     -0.160834
      31A     -0.115649    32A     -0.094902    33A     -0.091018
      34A     -0.081571    35A     -0.060299    36A     -0.048472
      37A     -0.028332

  @DF-RHF Final Energy:  -758.05540070029008

   => Energetics <=

    Nuclear Repulsion Energy =            501.5636773759222251
    One-Electron Energy =               -2070.0684091889183946
    Two-Electron Energy =                 810.4493311127060906
    Total Energy =                       -758.0554007002900789
  Basis Set: (AUG-CC-PVTZ AUX)
    Blend: AUG-CC-PVTZ-RI
    Molecular point group: c1

    Geometry (in Angstrom), charge = -2, multiplicity = 1:

       Center              X                  Y                   Z               Mass
    ------------   -----------------  -----------------  -----------------  -----------------
         P            1.106723198634    -0.020776938455     0.045230157274    30.973761998420
         O           -0.511282801366    -0.386723938455    -0.678935842726    15.994914619570
         O            2.021584198634    -0.519414938455    -1.077077842726    15.994914619570
         O            1.069159198634    -0.851502938455     1.342420157274    15.994914619570
         O            1.034228598634     1.558994061545     0.257865057274    15.994914619570
         C           -1.567600801366    -0.064753938455     0.180594157274    12.000000000000
         C           -2.030220801366     1.374494061545    -0.063121842726    12.000000000000
         C           -2.690542801366    -1.074803938455    -0.061846842726    12.000000000000
         H           -1.238070801366    -0.156781938455     1.227466157274     1.007825032230
         H           -2.826184801366     1.689923061545     0.632734157274     1.007825032230
         H           -1.132618801366     1.987896061545     0.058130157274     1.007825032230
         H           -2.406711801366     1.469943061545    -1.091349842726     1.007825032230
         H           -3.577796801366    -0.880916938455     0.561802157274     1.007825032230
         H           -2.318526801366    -2.082573938455     0.147101157274     1.007825032230
         H           -2.990708801366    -1.033606938455    -1.116753842726     1.007825032230

  Basis Set: AUG-CC-PVTZ
    Blend: AUG-CC-PVTZ
  Basis Set: (AUG-CC-PVTZ AUX)
    Blend: AUG-CC-PVTZ-JKFIT
	 Reference Energy          =    -758.0554007002900789 [Eh]
	 Singles Energy            =      -0.0000000000000000 [Eh]
	 Same-Spin Energy          =      -0.4706331167819141 [Eh]
	 Opposite-Spin Energy      =      -1.4055944115312218 [Eh]
	 Correlation Energy        =      -1.8762275283131360 [Eh]
	 Total Energy              =    -759.9316282286032447 [Eh]

	 ================> DF-SCS-MP2 Energies <==================
	-----------------------------------------------------------
	 SCS Same-Spin Scale       =       0.3333333333333333 [-]
	 SCS Opposite-Spin Scale   =       1.2000000000000000 [-]
	 SCS Same-Spin Energy      =      -0.1568777055939714 [Eh]
	 SCS Opposite-Spin Energy  =      -1.6867132938374660 [Eh]
	 SCS Correlation Energy    =      -1.8435909994314374 [Eh]
	 SCS Total Energy          =    -759.8989916997214777 [Eh]
	-----------------------------------------------------------

  Dipole Moment: [D]
     X:    -8.2408      Y:    -0.2490      Z:     0.0153     Total:     8.2446

*** Psi4 exiting successfully. Buy a developer a beer!
