                               Psi4 1.4a3.dev225

  ==> Input File <==

--------------------------------------------------------------------------
#psi4
#
memory 32 gb

molecule  {
-2 1
  P        1.2274490    -0.0222580     0.0433940
  O       -0.3905570    -0.3882050    -0.6807720
  O        2.1423100    -0.5208960    -1.0789140
  O        1.1898850    -0.8529840     1.3405840
  O        1.1572260     1.5080110     0.2493660
  C       -1.4468750    -0.0662350     0.1787580
  C       -1.9094950     1.3730130    -0.0649580
  C       -2.5698170    -1.0762850    -0.0636830
  H       -1.1173450    -0.1582630     1.2256300
  H       -2.7054590     1.6884420     0.6308980
  H       -1.0118930     1.9864150     0.0562940
  H       -2.2859860     1.4684620    -1.0931860
  H       -3.4977749    -0.8753045     0.4951112
  H       -2.1978010    -2.0840550     0.1452650
  H       -2.8699830    -1.0350880    -1.1185900
units angstrom
no_reorient  #important for SAPT in psi4, default
symmetry c1  #important for SAPT in psi4, default
}

set PROPERTIES_ORIGIN ["COM"]
properties('MP2/aug-cc-pvtz', properties = ['dipole'])
--------------------------------------------------------------------------

    Molecular point group: c1
  Charge       = -2
  Multiplicity = 1
  Basis Set: AUG-CC-PVTZ
    Blend: AUG-CC-PVTZ
  Basis Set: (AUG-CC-PVTZ AUX)
    Blend: AUG-CC-PVTZ-JKFIT

    Orbital Energies [Eh]
    ---------------------

    Doubly Occupied:

       1A    -79.675284     2A    -20.202793     3A    -20.118805
       4A    -20.118485     5A    -20.116442     6A    -10.981049
       7A    -10.961603     8A    -10.935952     9A     -7.189505
      10A     -5.088979    11A     -5.086493    12A     -5.086431
      13A     -1.014929    14A     -0.929256    15A     -0.860498
      16A     -0.859821    17A     -0.749735    18A     -0.666104
      19A     -0.501714    20A     -0.391463    21A     -0.337173
      22A     -0.318675    23A     -0.302079    24A     -0.272900
      25A     -0.245751    26A     -0.243456    27A     -0.224809
      28A     -0.189824    29A     -0.182665    30A     -0.161824
      31A     -0.115350    32A     -0.094796    33A     -0.091871
      34A     -0.082937    35A     -0.057657    36A     -0.050290
      37A     -0.026749

  @DF-RHF Final Energy:  -758.06059056589265

   => Energetics <=

    Nuclear Repulsion Energy =            503.5136450467522309
    One-Electron Energy =               -2074.0801781020186354
    Two-Electron Energy =                 812.5059424893738651
    Total Energy =                       -758.0605905658926531
  Basis Set: (AUG-CC-PVTZ AUX)
    Blend: AUG-CC-PVTZ-RI
    Molecular point group: c1

    Geometry (in Angstrom), charge = -2, multiplicity = 1:

       Center              X                  Y                   Z               Mass
    ------------   -----------------  -----------------  -----------------  -----------------
         P            1.106757170249    -0.015091542362     0.046475987688    30.973761998420
         O           -0.511248829751    -0.381038542362    -0.677690012312    15.994914619570
         O            2.021618170249    -0.513729542362    -1.075832012312    15.994914619570
         O            1.069193170249    -0.845817542362     1.343665987688    15.994914619570
         O            1.036534170249     1.515177457638     0.252447987688    15.994914619570
         C           -1.567566829751    -0.059068542362     0.181839987688    12.000000000000
         C           -2.030186829751     1.380179457638    -0.061876012312    12.000000000000
         C           -2.690508829751    -1.069118542362    -0.060601012312    12.000000000000
         H           -1.238036829751    -0.151096542362     1.228711987688     1.007825032230
         H           -2.826150829751     1.695608457638     0.633979987688     1.007825032230
         H           -1.132584829751     1.993581457638     0.059375987688     1.007825032230
         H           -2.406677829751     1.475628457638    -1.090104012312     1.007825032230
         H           -3.618466729751    -0.868138042362     0.498193187688     1.007825032230
         H           -2.318492829751    -2.076888542362     0.148346987688     1.007825032230
         H           -2.990674829751    -1.027921542362    -1.115508012312     1.007825032230

  Basis Set: AUG-CC-PVTZ
    Blend: AUG-CC-PVTZ
  Basis Set: (AUG-CC-PVTZ AUX)
    Blend: AUG-CC-PVTZ-JKFIT
	 Reference Energy          =    -758.0605905658926531 [Eh]
	 Singles Energy            =      -0.0000000000000000 [Eh]
	 Same-Spin Energy          =      -0.4696994326716952 [Eh]
	 Opposite-Spin Energy      =      -1.4031453213692666 [Eh]
	 Correlation Energy        =      -1.8728447540409618 [Eh]
	 Total Energy              =    -759.9334353199336647 [Eh]

	 ================> DF-SCS-MP2 Energies <==================
	-----------------------------------------------------------
	 SCS Same-Spin Scale       =       0.3333333333333333 [-]
	 SCS Opposite-Spin Scale   =       1.2000000000000000 [-]
	 SCS Same-Spin Energy      =      -0.1565664775572317 [Eh]
	 SCS Opposite-Spin Energy  =      -1.6837743856431200 [Eh]
	 SCS Correlation Energy    =      -1.8403408632003517 [Eh]
	 SCS Total Energy          =    -759.9009314290930206 [Eh]
	-----------------------------------------------------------

  Dipole Moment: [D]
     X:    -8.2326      Y:     0.0930      Z:     0.0436     Total:     8.2332

*** Psi4 exiting successfully. Buy a developer a beer!
