                               Psi4 1.4a3.dev225

  ==> Input File <==

--------------------------------------------------------------------------
#psi4
#
memory 32 gb

molecule  {
-2 1
  P        1.2274490    -0.0222580     0.0433940
  O       -0.3905570    -0.3882050    -0.6807720
  O        2.1423100    -0.5208960    -1.0789140
  O        1.1898850    -0.8529840     1.3405840
  O        1.1572260     1.5080110     0.2493660
  C       -1.4468750    -0.0662350     0.1787580
  C       -1.9094950     1.3730130    -0.0649580
  C       -2.5698170    -1.0762850    -0.0636830
  H       -1.1173450    -0.1582630     1.2256300
  H       -2.7415310     1.7027368     0.6624332
  H       -1.0118930     1.9864150     0.0562940
  H       -2.2859860     1.4684620    -1.0931860
  H       -3.4570710    -0.8823980     0.5599660
  H       -2.1978010    -2.0840550     0.1452650
  H       -2.8699830    -1.0350880    -1.1185900
units angstrom
no_reorient  #important for SAPT in psi4, default
symmetry c1  #important for SAPT in psi4, default
}

set PROPERTIES_ORIGIN ["COM"]
properties('MP2/aug-cc-pvtz', properties = ['dipole'])
--------------------------------------------------------------------------

    Molecular point group: c1
  Charge       = -2
  Multiplicity = 1
  Basis Set: AUG-CC-PVTZ
    Blend: AUG-CC-PVTZ
  Basis Set: (AUG-CC-PVTZ AUX)
    Blend: AUG-CC-PVTZ-JKFIT

    Orbital Energies [Eh]
    ---------------------

    Doubly Occupied:

       1A    -79.675686     2A    -20.203462     3A    -20.119275
       4A    -20.118836     5A    -20.116796     6A    -10.981472
       7A    -10.961724     8A    -10.943127     9A     -7.189912
      10A     -5.089388    11A     -5.086898    12A     -5.086837
      13A     -1.015573    14A     -0.929687    15A     -0.860876
      16A     -0.860226    17A     -0.749262    18A     -0.663678
      19A     -0.499701    20A     -0.392766    21A     -0.335864
      22A     -0.314377    23A     -0.303226    24A     -0.274733
      25A     -0.244783    26A     -0.242501    27A     -0.224902
      28A     -0.190381    29A     -0.182893    30A     -0.161960
      31A     -0.115961    32A     -0.095187    33A     -0.092244
      34A     -0.083271    35A     -0.058022    36A     -0.050725
      37A     -0.027137

  @DF-RHF Final Energy:  -758.05929767847249

   => Energetics <=

    Nuclear Repulsion Energy =            503.3281539706919148
    One-Electron Energy =               -2073.6882064107853694
    Two-Electron Energy =                 812.3007547616210786
    Total Energy =                       -758.0592976784724897
  Basis Set: (AUG-CC-PVTZ AUX)
    Blend: AUG-CC-PVTZ-RI
    Molecular point group: c1

    Geometry (in Angstrom), charge = -2, multiplicity = 1:

       Center              X                  Y                   Z               Mass
    ------------   -----------------  -----------------  -----------------  -----------------
         P            1.106723345122    -0.015144130909     0.045772085616    30.973761998420
         O           -0.511282654878    -0.381091130909    -0.678393914384    15.994914619570
         O            2.021584345122    -0.513782130909    -1.076535914384    15.994914619570
         O            1.069159345122    -0.845870130909     1.342962085616    15.994914619570
         O            1.036500345122     1.515124869091     0.251744085616    15.994914619570
         C           -1.567600654878    -0.059121130909     0.181136085616    12.000000000000
         C           -2.030220654878     1.380126869091    -0.062579914384    12.000000000000
         C           -2.690542654878    -1.069171130909    -0.061304914384    12.000000000000
         H           -1.238070654878    -0.151149130909     1.228008085616     1.007825032230
         H           -2.862256654878     1.709850669091     0.664811285616     1.007825032230
         H           -1.132618654878     1.993528869091     0.058672085616     1.007825032230
         H           -2.406711654878     1.475575869091    -1.090807914384     1.007825032230
         H           -3.577796654878    -0.875284130909     0.562344085616     1.007825032230
         H           -2.318526654878    -2.076941130909     0.147643085616     1.007825032230
         H           -2.990708654878    -1.027974130909    -1.116211914384     1.007825032230

  Basis Set: AUG-CC-PVTZ
    Blend: AUG-CC-PVTZ
  Basis Set: (AUG-CC-PVTZ AUX)
    Blend: AUG-CC-PVTZ-JKFIT
	 Reference Energy          =    -758.0592976784724897 [Eh]
	 Singles Energy            =      -0.0000000000000000 [Eh]
	 Same-Spin Energy          =      -0.4696182499543599 [Eh]
	 Opposite-Spin Energy      =      -1.4034072796886954 [Eh]
	 Correlation Energy        =      -1.8730255296430554 [Eh]
	 Total Energy              =    -759.9323232081155766 [Eh]

	 ================> DF-SCS-MP2 Energies <==================
	-----------------------------------------------------------
	 SCS Same-Spin Scale       =       0.3333333333333333 [-]
	 SCS Opposite-Spin Scale   =       1.2000000000000000 [-]
	 SCS Same-Spin Energy      =      -0.1565394166514533 [Eh]
	 SCS Opposite-Spin Energy  =      -1.6840887356264345 [Eh]
	 SCS Correlation Energy    =      -1.8406281522778878 [Eh]
	 SCS Total Energy          =    -759.8999258307503624 [Eh]
	-----------------------------------------------------------

  Dipole Moment: [D]
     X:    -8.1530      Y:     0.0437      Z:     0.0186     Total:     8.1531

*** Psi4 exiting successfully. Buy a developer a beer!
