                               Psi4 1.4a3.dev225

  ==> Input File <==

--------------------------------------------------------------------------
#psi4
#
memory 32 gb

molecule  {
-2 1
  P        1.2274490    -0.0222580     0.0433940
  O       -0.4048104    -0.3267569    -0.6772214
  O        2.1423100    -0.5208960    -1.0789140
  O        1.1898850    -0.8529840     1.3405840
  O        1.1572260     1.5080110     0.2493660
  C       -1.4468750    -0.0662350     0.1787580
  C       -1.9094950     1.3730130    -0.0649580
  C       -2.5698170    -1.0762850    -0.0636830
  H       -1.1173450    -0.1582630     1.2256300
  H       -2.7054590     1.6884420     0.6308980
  H       -1.0118930     1.9864150     0.0562940
  H       -2.2859860     1.4684620    -1.0931860
  H       -3.4570710    -0.8823980     0.5599660
  H       -2.1978010    -2.0840550     0.1452650
  H       -2.8699830    -1.0350880    -1.1185900
units angstrom
no_reorient  #important for SAPT in psi4, default
symmetry c1  #important for SAPT in psi4, default
}

set PROPERTIES_ORIGIN ["COM"]
properties('MP2/aug-cc-pvtz', properties = ['dipole'])
--------------------------------------------------------------------------

    Molecular point group: c1
  Charge       = -2
  Multiplicity = 1
  Basis Set: AUG-CC-PVTZ
    Blend: AUG-CC-PVTZ
  Basis Set: (AUG-CC-PVTZ AUX)
    Blend: AUG-CC-PVTZ-JKFIT

    Orbital Energies [Eh]
    ---------------------

    Doubly Occupied:

       1A    -79.676291     2A    -20.200463     3A    -20.120561
       4A    -20.118514     5A    -20.116609     6A    -10.978525
       7A    -10.961312     8A    -10.932786     9A     -7.190470
      10A     -5.089962    11A     -5.087463    12A     -5.087370
      13A     -1.023480    14A     -0.931367    15A     -0.862015
      16A     -0.859426    17A     -0.747916    18A     -0.664665
      19A     -0.500048    20A     -0.396765    21A     -0.334717
      22A     -0.319227    23A     -0.303085    24A     -0.275889
      25A     -0.247612    26A     -0.244751    27A     -0.225298
      28A     -0.189397    29A     -0.183881    30A     -0.159309
      31A     -0.113021    32A     -0.095808    33A     -0.092617
      34A     -0.083119    35A     -0.059308    36A     -0.049009
      37A     -0.027264

  @DF-RHF Final Energy:  -758.06129798875122

   => Energetics <=

    Nuclear Repulsion Energy =            504.2191258211643685
    One-Electron Energy =               -2075.4622093496250272
    Two-Electron Energy =                 813.1817855397093808
    Total Energy =                       -758.0612979887512211
  Basis Set: (AUG-CC-PVTZ AUX)
    Blend: AUG-CC-PVTZ-RI
    Molecular point group: c1

    Geometry (in Angstrom), charge = -2, multiplicity = 1:

       Center              X                  Y                   Z               Mass
    ------------   -----------------  -----------------  -----------------  -----------------
         P            1.108111868828    -0.022161471081     0.045590867539    30.973761998420
         O           -0.524147531172    -0.326660371081    -0.675024532461    15.994914619570
         O            2.022972868828    -0.520799471081    -1.076717132461    15.994914619570
         O            1.070547868828    -0.852887471081     1.342780867539    15.994914619570
         O            1.037888868828     1.508107528919     0.251562867539    15.994914619570
         C           -1.566212131172    -0.066138471081     0.180954867539    12.000000000000
         C           -2.028832131172     1.373109528919    -0.062761132461    12.000000000000
         C           -2.689154131172    -1.076188471081    -0.061486132461    12.000000000000
         H           -1.236682131172    -0.158166471081     1.227826867539     1.007825032230
         H           -2.824796131172     1.688538528919     0.633094867539     1.007825032230
         H           -1.131230131172     1.986511528919     0.058490867539     1.007825032230
         H           -2.405323131172     1.468558528919    -1.090989132461     1.007825032230
         H           -3.576408131172    -0.882301471081     0.562162867539     1.007825032230
         H           -2.317138131172    -2.083958471081     0.147461867539     1.007825032230
         H           -2.989320131172    -1.034991471081    -1.116393132461     1.007825032230

  Basis Set: AUG-CC-PVTZ
    Blend: AUG-CC-PVTZ
  Basis Set: (AUG-CC-PVTZ AUX)
    Blend: AUG-CC-PVTZ-JKFIT
	 Reference Energy          =    -758.0612979887512211 [Eh]
	 Singles Energy            =      -0.0000000000000000 [Eh]
	 Same-Spin Energy          =      -0.4695962712973331 [Eh]
	 Opposite-Spin Energy      =      -1.4024597565488015 [Eh]
	 Correlation Energy        =      -1.8720560278461345 [Eh]
	 Total Energy              =    -759.9333540165973773 [Eh]

	 ================> DF-SCS-MP2 Energies <==================
	-----------------------------------------------------------
	 SCS Same-Spin Scale       =       0.3333333333333333 [-]
	 SCS Opposite-Spin Scale   =       1.2000000000000000 [-]
	 SCS Same-Spin Energy      =      -0.1565320904324443 [Eh]
	 SCS Opposite-Spin Energy  =      -1.6829517078585619 [Eh]
	 SCS Correlation Energy    =      -1.8394837982910062 [Eh]
	 SCS Total Energy          =    -759.9007817870422059 [Eh]
	-----------------------------------------------------------

  Dipole Moment: [D]
     X:    -8.1077      Y:    -0.0364      Z:     0.0300     Total:     8.1078

*** Psi4 exiting successfully. Buy a developer a beer!
