                               Psi4 1.4a3.dev225

  ==> Input File <==

--------------------------------------------------------------------------
#psi4
#
memory 32 gb

molecule  {
-2 1
  P        1.2274490    -0.0222580     0.0433940
  O       -0.3905570    -0.3882050    -0.6807720
  O        2.1423100    -0.5208960    -1.0789140
  O        1.1898850    -0.8529840     1.3405840
  O        1.1572260     1.5080110     0.2493660
  C       -1.4468750    -0.0662350     0.1787580
  C       -1.9094950     1.3730130    -0.0649580
  C       -2.5698170    -1.0762850    -0.0636830
  H       -1.1173450    -0.1582630     1.2256300
  H       -2.7054590     1.6884420     0.6308980
  H       -1.0118930     1.9864150     0.0562940
  H       -2.2859860     1.4684620    -1.0931860
  H       -3.4570710    -0.8823980     0.5599660
  H       -2.1808043    -2.1300982     0.1548115
  H       -2.8699830    -1.0350880    -1.1185900
units angstrom
no_reorient  #important for SAPT in psi4, default
symmetry c1  #important for SAPT in psi4, default
}

set PROPERTIES_ORIGIN ["COM"]
properties('MP2/aug-cc-pvtz', properties = ['dipole'])
--------------------------------------------------------------------------

    Molecular point group: c1
  Charge       = -2
  Multiplicity = 1
  Basis Set: AUG-CC-PVTZ
    Blend: AUG-CC-PVTZ
  Basis Set: (AUG-CC-PVTZ AUX)
    Blend: AUG-CC-PVTZ-JKFIT

    Orbital Energies [Eh]
    ---------------------

    Doubly Occupied:

       1A    -79.675246     2A    -20.202505     3A    -20.118858
       4A    -20.118436     5A    -20.116390     6A    -10.981220
       7A    -10.967912     8A    -10.936651     9A     -7.189465
      10A     -5.088938    11A     -5.086454    12A     -5.086392
      13A     -1.014813    14A     -0.929224    15A     -0.860470
      16A     -0.859820    17A     -0.748857    18A     -0.663571
      19A     -0.500060    20A     -0.392780    21A     -0.330000
      22A     -0.318091    23A     -0.302688    24A     -0.276831
      25A     -0.244267    26A     -0.242650    27A     -0.223120
      28A     -0.189445    29A     -0.182567    30A     -0.161955
      31A     -0.115400    32A     -0.094797    33A     -0.091844
      34A     -0.082797    35A     -0.057615    36A     -0.050290
      37A     -0.026738

  @DF-RHF Final Energy:  -758.05922203572925

   => Energetics <=

    Nuclear Repulsion Energy =            503.3579464764444538
    One-Electron Energy =               -2073.7760254097252073
    Two-Electron Energy =                 812.3588568975516182
    Total Energy =                       -758.0592220357292490
  Basis Set: (AUG-CC-PVTZ AUX)
    Blend: AUG-CC-PVTZ-RI
    Molecular point group: c1

    Geometry (in Angstrom), charge = -2, multiplicity = 1:

       Center              X                  Y                   Z               Mass
    ------------   -----------------  -----------------  -----------------  -----------------
         P            1.106335803179    -0.014703503839     0.045932661314    30.973761998420
         O           -0.511670196821    -0.380650503839    -0.678233338686    15.994914619570
         O            2.021196803179    -0.513341503839    -1.076375338686    15.994914619570
         O            1.068771803179    -0.845429503839     1.343122661314    15.994914619570
         O            1.036112803179     1.515565496161     0.251904661314    15.994914619570
         C           -1.567988196821    -0.058680503839     0.181296661314    12.000000000000
         C           -2.030608196821     1.380567496161    -0.062419338686    12.000000000000
         C           -2.690930196821    -1.068730503839    -0.061144338686    12.000000000000
         H           -1.238458196821    -0.150708503839     1.228168661314     1.007825032230
         H           -2.826572196821     1.695996496161     0.633436661314     1.007825032230
         H           -1.133006196821     1.993969496161     0.058832661314     1.007825032230
         H           -2.407099196821     1.476016496161    -1.090647338686     1.007825032230
         H           -3.578184196821    -0.874843503839     0.562504661314     1.007825032230
         H           -2.301917496821    -2.122543703839     0.157350161314     1.007825032230
         H           -2.991096196821    -1.027533503839    -1.116051338686     1.007825032230

  Basis Set: AUG-CC-PVTZ
    Blend: AUG-CC-PVTZ
  Basis Set: (AUG-CC-PVTZ AUX)
    Blend: AUG-CC-PVTZ-JKFIT
	 Reference Energy          =    -758.0592220357292490 [Eh]
	 Singles Energy            =      -0.0000000000000000 [Eh]
	 Same-Spin Energy          =      -0.4696687188082759 [Eh]
	 Opposite-Spin Energy      =      -1.4034497123250778 [Eh]
	 Correlation Energy        =      -1.8731184311333537 [Eh]
	 Total Energy              =    -759.9323404668625699 [Eh]

	 ================> DF-SCS-MP2 Energies <==================
	-----------------------------------------------------------
	 SCS Same-Spin Scale       =       0.3333333333333333 [-]
	 SCS Opposite-Spin Scale   =       1.2000000000000000 [-]
	 SCS Same-Spin Energy      =      -0.1565562396027586 [Eh]
	 SCS Opposite-Spin Energy  =      -1.6841396547900933 [Eh]
	 SCS Correlation Energy    =      -1.8406958943928520 [Eh]
	 SCS Total Energy          =    -759.8999179301221147 [Eh]
	-----------------------------------------------------------

  Dipole Moment: [D]
     X:    -8.2181      Y:     0.1345      Z:     0.0508     Total:     8.2193

*** Psi4 exiting successfully. Buy a developer a beer!
