                               Psi4 1.4a3.dev225

  ==> Input File <==

--------------------------------------------------------------------------
#psi4
#
memory 32 gb

molecule  {
-2 1
  P        1.2274490    -0.0222580     0.0433940
  O       -0.3905570    -0.3882050    -0.6807720
  O        2.1423100    -0.5208960    -1.0789140
  O        1.1898850    -0.8529840     1.3405840
  O        1.1572260     1.5080110     0.2493660
  C       -1.4468750    -0.0662350     0.1787580
  C       -1.9094950     1.3730130    -0.0649580
  C       -2.5698170    -1.0762850    -0.0636830
  H       -1.1173450    -0.1582630     1.2256300
  H       -2.7054590     1.6884420     0.6308980
  H       -1.0118930     1.9864150     0.0562940
  H       -2.2859860     1.4684620    -1.0931860
  H       -3.4570710    -0.8823980     0.5599660
  H       -2.1910023    -2.1024723     0.1490836
  H       -2.8699830    -1.0350880    -1.1185900
units angstrom
no_reorient  #important for SAPT in psi4, default
symmetry c1  #important for SAPT in psi4, default
}

set PROPERTIES_ORIGIN ["COM"]
properties('MP2/aug-cc-pvtz', properties = ['dipole'])
--------------------------------------------------------------------------

    Molecular point group: c1
  Charge       = -2
  Multiplicity = 1
  Basis Set: AUG-CC-PVTZ
    Blend: AUG-CC-PVTZ
  Basis Set: (AUG-CC-PVTZ AUX)
    Blend: AUG-CC-PVTZ-JKFIT

    Orbital Energies [Eh]
    ---------------------

    Doubly Occupied:

       1A    -79.675192     2A    -20.202427     3A    -20.118771
       4A    -20.118415     5A    -20.116350     6A    -10.980814
       7A    -10.964104     8A    -10.936213     9A     -7.189410
      10A     -5.088883    11A     -5.086400    12A     -5.086338
      13A     -1.014715    14A     -0.929170    15A     -0.860423
      16A     -0.859768    17A     -0.749416    18A     -0.664942
      19A     -0.500255    20A     -0.392626    21A     -0.333142
      22A     -0.317751    23A     -0.302921    24A     -0.276768
      25A     -0.244112    26A     -0.243223    27A     -0.224200
      28A     -0.189628    29A     -0.182463    30A     -0.161750
      31A     -0.115241    32A     -0.094744    33A     -0.091801
      34A     -0.082702    35A     -0.057571    36A     -0.050208
      37A     -0.026689

  @DF-RHF Final Energy:  -758.06074106483868

   => Energetics <=

    Nuclear Repulsion Energy =            503.4795548881032232
    One-Electron Energy =               -2074.0215003451735356
    Two-Electron Energy =                 812.4812043922316889
    Total Energy =                       -758.0607410648386804
  Basis Set: (AUG-CC-PVTZ AUX)
    Blend: AUG-CC-PVTZ-RI
    Molecular point group: c1

    Geometry (in Angstrom), charge = -2, multiplicity = 1:

       Center              X                  Y                   Z               Mass
    ------------   -----------------  -----------------  -----------------  -----------------
         P            1.106410275565    -0.014905246014     0.045974490141    30.973761998420
         O           -0.511595724435    -0.380852246014    -0.678191509859    15.994914619570
         O            2.021271275565    -0.513543246014    -1.076333509859    15.994914619570
         O            1.068846275565    -0.845631246014     1.343164490141    15.994914619570
         O            1.036187275565     1.515363753986     0.251946490141    15.994914619570
         C           -1.567913724435    -0.058882246014     0.181338490141    12.000000000000
         C           -2.030533724435     1.380365753986    -0.062377509859    12.000000000000
         C           -2.690855724435    -1.068932246014    -0.061102509859    12.000000000000
         H           -1.238383724435    -0.150910246014     1.228210490141     1.007825032230
         H           -2.826497724435     1.695794753986     0.633478490141     1.007825032230
         H           -1.132931724435     1.993767753986     0.058874490141     1.007825032230
         H           -2.407024724435     1.475814753986    -1.090605509859     1.007825032230
         H           -3.578109724435    -0.875045246014     0.562546490141     1.007825032230
         H           -2.312041024435    -2.095119546014     0.151664090141     1.007825032230
         H           -2.991021724435    -1.027735246014    -1.116009509859     1.007825032230

  Basis Set: AUG-CC-PVTZ
    Blend: AUG-CC-PVTZ
  Basis Set: (AUG-CC-PVTZ AUX)
    Blend: AUG-CC-PVTZ-JKFIT
	 Reference Energy          =    -758.0607410648386804 [Eh]
	 Singles Energy            =      -0.0000000000000000 [Eh]
	 Same-Spin Energy          =      -0.4696763519938113 [Eh]
	 Opposite-Spin Energy      =      -1.4032530440929529 [Eh]
	 Correlation Energy        =      -1.8729293960867643 [Eh]
	 Total Energy              =    -759.9336704609254411 [Eh]

	 ================> DF-SCS-MP2 Energies <==================
	-----------------------------------------------------------
	 SCS Same-Spin Scale       =       0.3333333333333333 [-]
	 SCS Opposite-Spin Scale   =       1.2000000000000000 [-]
	 SCS Same-Spin Energy      =      -0.1565587839979371 [Eh]
	 SCS Opposite-Spin Energy  =      -1.6839036529115434 [Eh]
	 SCS Correlation Energy    =      -1.8404624369094804 [Eh]
	 SCS Total Energy          =    -759.9012035017481139 [Eh]
	-----------------------------------------------------------

  Dipole Moment: [D]
     X:    -8.2225      Y:     0.1046      Z:     0.0549     Total:     8.2234

*** Psi4 exiting successfully. Buy a developer a beer!
