                               Psi4 1.4a3.dev225

  ==> Input File <==

--------------------------------------------------------------------------
#psi4
#
memory 32 gb

molecule  {
-2 1
  P        1.2274490    -0.0222580     0.0433940
  O       -0.3905570    -0.3882050    -0.6807720
  O        2.1423100    -0.5208960    -1.0789140
  O        1.1898850    -0.8529840     1.3405840
  O        1.1572260     1.5080110     0.2493660
  C       -1.4468750    -0.0662350     0.1787580
  C       -1.9094950     1.3730130    -0.0649580
  C       -2.5698170    -1.0762850    -0.0636830
  H       -1.1023849    -0.1624409     1.2731562
  H       -2.7054590     1.6884420     0.6308980
  H       -1.0118930     1.9864150     0.0562940
  H       -2.2859860     1.4684620    -1.0931860
  H       -3.4570710    -0.8823980     0.5599660
  H       -2.1978010    -2.0840550     0.1452650
  H       -2.8699830    -1.0350880    -1.1185900
units angstrom
no_reorient  #important for SAPT in psi4, default
symmetry c1  #important for SAPT in psi4, default
}

set PROPERTIES_ORIGIN ["COM"]
properties('MP2/aug-cc-pvtz', properties = ['dipole'])
--------------------------------------------------------------------------

    Molecular point group: c1
  Charge       = -2
  Multiplicity = 1
  Basis Set: AUG-CC-PVTZ
    Blend: AUG-CC-PVTZ
  Basis Set: (AUG-CC-PVTZ AUX)
    Blend: AUG-CC-PVTZ-JKFIT

    Orbital Energies [Eh]
    ---------------------

    Doubly Occupied:

       1A    -79.675386     2A    -20.203542     3A    -20.118814
       4A    -20.118417     5A    -20.116553     6A    -10.986262
       7A    -10.961868     8A    -10.936340     9A     -7.189610
      10A     -5.089090    11A     -5.086594    12A     -5.086531
      13A     -1.015083    14A     -0.929306    15A     -0.860572
      16A     -0.859826    17A     -0.749120    18A     -0.666107
      19A     -0.494471    20A     -0.389684    21A     -0.335363
      22A     -0.317871    23A     -0.303184    24A     -0.276690
      25A     -0.244019    26A     -0.242923    27A     -0.225118
      28A     -0.189840    29A     -0.182073    30A     -0.158560
      31A     -0.114373    32A     -0.094664    33A     -0.091941
      34A     -0.082806    35A     -0.057627    36A     -0.050374
      37A     -0.026762

  @DF-RHF Final Energy:  -758.05891996157186

   => Energetics <=

    Nuclear Repulsion Energy =            503.3316979646616005
    One-Electron Energy =               -2073.7265099430387636
    Two-Electron Energy =                 812.3358920168053601
    Total Energy =                       -758.0589199615718599
  Basis Set: (AUG-CC-PVTZ AUX)
    Blend: AUG-CC-PVTZ-RI
    Molecular point group: c1

    Geometry (in Angstrom), charge = -2, multiplicity = 1:

       Center              X                  Y                   Z               Mass
    ------------   -----------------  -----------------  -----------------  -----------------
         P            1.106350675748    -0.015009231315     0.045655309000    30.973761998420
         O           -0.511655324252    -0.380956231315    -0.678510691000    15.994914619570
         O            2.021211675748    -0.513647231315    -1.076652691000    15.994914619570
         O            1.068786675748    -0.845735231315     1.342845309000    15.994914619570
         O            1.036127675748     1.515259768685     0.251627309000    15.994914619570
         C           -1.567973324252    -0.058986231315     0.181019309000    12.000000000000
         C           -2.030593324252     1.380261768685    -0.062696691000    12.000000000000
         C           -2.690915324252    -1.069036231315    -0.061421691000    12.000000000000
         H           -1.223483224252    -0.155192131315     1.275417509000     1.007825032230
         H           -2.826557324252     1.695690768685     0.633159309000     1.007825032230
         H           -1.132991324252     1.993663768685     0.058555309000     1.007825032230
         H           -2.407084324252     1.475710768685    -1.090924691000     1.007825032230
         H           -3.578169324252    -0.875149231315     0.562227309000     1.007825032230
         H           -2.318899324252    -2.076806231315     0.147526309000     1.007825032230
         H           -2.991081324252    -1.027839231315    -1.116328691000     1.007825032230

  Basis Set: AUG-CC-PVTZ
    Blend: AUG-CC-PVTZ
  Basis Set: (AUG-CC-PVTZ AUX)
    Blend: AUG-CC-PVTZ-JKFIT
	 Reference Energy          =    -758.0589199615718599 [Eh]
	 Singles Energy            =      -0.0000000000000000 [Eh]
	 Same-Spin Energy          =      -0.4698861702606326 [Eh]
	 Opposite-Spin Energy      =      -1.4036694978677797 [Eh]
	 Correlation Energy        =      -1.8735556681284122 [Eh]
	 Total Energy              =    -759.9324756297003205 [Eh]

	 ================> DF-SCS-MP2 Energies <==================
	-----------------------------------------------------------
	 SCS Same-Spin Scale       =       0.3333333333333333 [-]
	 SCS Opposite-Spin Scale   =       1.2000000000000000 [-]
	 SCS Same-Spin Energy      =      -0.1566287234202109 [Eh]
	 SCS Opposite-Spin Energy  =      -1.6844033974413357 [Eh]
	 SCS Correlation Energy    =      -1.8410321208615466 [Eh]
	 SCS Total Energy          =    -759.8999520824334013 [Eh]
	-----------------------------------------------------------

  Dipole Moment: [D]
     X:    -8.1951      Y:     0.0844      Z:     0.0281     Total:     8.1955

*** Psi4 exiting successfully. Buy a developer a beer!
