                               Psi4 1.4a3.dev225

  ==> Input File <==

--------------------------------------------------------------------------
#psi4
#
memory 32 gb

molecule  {
-2 1
  P        1.2274490    -0.0222580     0.0433940
  O       -0.3905570    -0.3882050    -0.6807720
  O        2.1423100    -0.5208960    -1.0789140
  O        1.1898850    -0.8529840     1.3405840
  O        1.1581346     1.4882102     0.2467008
  C       -1.4468750    -0.0662350     0.1787580
  C       -1.9094950     1.3730130    -0.0649580
  C       -2.5698170    -1.0762850    -0.0636830
  H       -1.1173450    -0.1582630     1.2256300
  H       -2.7054590     1.6884420     0.6308980
  H       -1.0118930     1.9864150     0.0562940
  H       -2.2859860     1.4684620    -1.0931860
  H       -3.4570710    -0.8823980     0.5599660
  H       -2.1978010    -2.0840550     0.1452650
  H       -2.8699830    -1.0350880    -1.1185900
units angstrom
no_reorient  #important for SAPT in psi4, default
symmetry c1  #important for SAPT in psi4, default
}

set PROPERTIES_ORIGIN ["COM"]
properties('MP2/aug-cc-pvtz', properties = ['dipole'])
--------------------------------------------------------------------------

    Molecular point group: c1
  Charge       = -2
  Multiplicity = 1
  Basis Set: AUG-CC-PVTZ
    Blend: AUG-CC-PVTZ
  Basis Set: (AUG-CC-PVTZ AUX)
    Blend: AUG-CC-PVTZ-JKFIT

    Orbital Energies [Eh]
    ---------------------

    Doubly Occupied:

       1A    -79.671448     2A    -20.200994     3A    -20.117750
       4A    -20.116517     5A    -20.114451     6A    -10.980110
       7A    -10.961182     8A    -10.936216     9A     -7.186314
      10A     -5.085736    11A     -5.083382    12A     -5.083213
      13A     -1.014142    14A     -0.931211    15A     -0.863371
      16A     -0.858571    17A     -0.749544    18A     -0.665895
      19A     -0.500026    20A     -0.391716    21A     -0.335095
      22A     -0.317430    23A     -0.302422    24A     -0.276636
      25A     -0.244034    26A     -0.243074    27A     -0.224607
      28A     -0.190339    29A     -0.182882    30A     -0.162143
      31A     -0.114974    32A     -0.095007    33A     -0.091916
      34A     -0.082799    35A     -0.056601    36A     -0.050440
      37A     -0.025852

  @DF-RHF Final Energy:  -758.06256158120038

   => Energetics <=

    Nuclear Repulsion Energy =            504.3890544432521779
    One-Electron Energy =               -2075.8871571320109979
    Two-Electron Energy =                 813.4355411075583788
    Total Energy =                       -758.0625615812003844
  Basis Set: (AUG-CC-PVTZ AUX)
    Blend: AUG-CC-PVTZ-RI
    Molecular point group: c1

    Geometry (in Angstrom), charge = -2, multiplicity = 1:

       Center              X                  Y                   Z               Mass
    ------------   -----------------  -----------------  -----------------  -----------------
         P            1.106354618875    -0.012744862075     0.046311268163    30.973761998420
         O           -0.511651381125    -0.378691862075    -0.677854731837    15.994914619570
         O            2.021215618875    -0.511382862075    -1.075996731837    15.994914619570
         O            1.068790618875    -0.843470862075     1.343501268163    15.994914619570
         O            1.037040218875     1.497723337925     0.249618068163    15.994914619570
         C           -1.567969381125    -0.056721862075     0.181675268163    12.000000000000
         C           -2.030589381125     1.382526137925    -0.062040731837    12.000000000000
         C           -2.690911381125    -1.066771862075    -0.060765731837    12.000000000000
         H           -1.238439381125    -0.148749862075     1.228547268163     1.007825032230
         H           -2.826553381125     1.697955137925     0.633815268163     1.007825032230
         H           -1.132987381125     1.995928137925     0.059211268163     1.007825032230
         H           -2.407080381125     1.477975137925    -1.090268731837     1.007825032230
         H           -3.578165381125    -0.872884862075     0.562883268163     1.007825032230
         H           -2.318895381125    -2.074541862075     0.148182268163     1.007825032230
         H           -2.991077381125    -1.025574862075    -1.115672731837     1.007825032230

  Basis Set: AUG-CC-PVTZ
    Blend: AUG-CC-PVTZ
  Basis Set: (AUG-CC-PVTZ AUX)
    Blend: AUG-CC-PVTZ-JKFIT
	 Reference Energy          =    -758.0625615812003844 [Eh]
	 Singles Energy            =      -0.0000000000000000 [Eh]
	 Same-Spin Energy          =      -0.4692950203792357 [Eh]
	 Opposite-Spin Energy      =      -1.4021455429151934 [Eh]
	 Correlation Energy        =      -1.8714405632944291 [Eh]
	 Total Energy              =    -759.9340021444947979 [Eh]

	 ================> DF-SCS-MP2 Energies <==================
	-----------------------------------------------------------
	 SCS Same-Spin Scale       =       0.3333333333333333 [-]
	 SCS Opposite-Spin Scale   =       1.2000000000000000 [-]
	 SCS Same-Spin Energy      =      -0.1564316734597452 [Eh]
	 SCS Opposite-Spin Energy  =      -1.6825746514982320 [Eh]
	 SCS Correlation Energy    =      -1.8390063249579773 [Eh]
	 SCS Total Energy          =    -759.9015679061583342 [Eh]
	-----------------------------------------------------------

  Dipole Moment: [D]
     X:    -8.2198      Y:     0.2195      Z:     0.0742     Total:     8.2231

*** Psi4 exiting successfully. Buy a developer a beer!
