                               Psi4 1.4a3.dev225

  ==> Input File <==

--------------------------------------------------------------------------
#psi4
#
memory 32 gb

molecule  {
-2 1
  P        1.2274490    -0.0222580     0.0433940
  O       -0.3905570    -0.3882050    -0.6807720
  O        2.1423100    -0.5208960    -1.0789140
  O        1.1898850    -0.8529840     1.3405840
  O        1.1572260     1.5080110     0.2493660
  C       -1.4468750    -0.0662350     0.1787580
  C       -1.9094950     1.3730130    -0.0649580
  C       -2.5698170    -1.0762850    -0.0636830
  H       -1.1173450    -0.1582630     1.2256300
  H       -2.7776030     1.7170316     0.6939685
  H       -1.0118930     1.9864150     0.0562940
  H       -2.2859860     1.4684620    -1.0931860
  H       -3.4570710    -0.8823980     0.5599660
  H       -2.1978010    -2.0840550     0.1452650
  H       -2.8699830    -1.0350880    -1.1185900
units angstrom
no_reorient  #important for SAPT in psi4, default
symmetry c1  #important for SAPT in psi4, default
}

set PROPERTIES_ORIGIN ["COM"]
properties('MP2/aug-cc-pvtz', properties = ['dipole'])
--------------------------------------------------------------------------

    Molecular point group: c1
  Charge       = -2
  Multiplicity = 1
  Basis Set: AUG-CC-PVTZ
    Blend: AUG-CC-PVTZ
  Basis Set: (AUG-CC-PVTZ AUX)
    Blend: AUG-CC-PVTZ-JKFIT

    Orbital Energies [Eh]
    ---------------------

    Doubly Occupied:

       1A    -79.676268     2A    -20.204646     3A    -20.119890
       4A    -20.119316     5A    -20.117315     6A    -10.982483
       7A    -10.961949     8A    -10.950197     9A     -7.190502
      10A     -5.089982    11A     -5.087484    12A     -5.087423
      13A     -1.016579    14A     -0.930293    15A     -0.861413
      16A     -0.860762    17A     -0.748940    18A     -0.661957
      19A     -0.499265    20A     -0.393136    21A     -0.336504
      22A     -0.312209    23A     -0.303307    24A     -0.272680
      25A     -0.245788    26A     -0.241036    27A     -0.224608
      28A     -0.191098    29A     -0.183439    30A     -0.162312
      31A     -0.116846    32A     -0.095712    33A     -0.092763
      34A     -0.083962    35A     -0.058550    36A     -0.051354
      37A     -0.027664

  @DF-RHF Final Energy:  -758.05525289669515

   => Energetics <=

    Nuclear Repulsion Energy =            503.1054840675315631
    One-Electron Energy =               -2073.2022122035541543
    Two-Electron Energy =                 812.0414752393274966
    Total Energy =                       -758.0552528966951513
  Basis Set: (AUG-CC-PVTZ AUX)
    Blend: AUG-CC-PVTZ-RI
    Molecular point group: c1

    Geometry (in Angstrom), charge = -2, multiplicity = 1:

       Center              X                  Y                   Z               Mass
    ------------   -----------------  -----------------  -----------------  -----------------
         P            1.106986766177    -0.015248520776     0.045541794476    30.973761998420
         O           -0.511019233823    -0.381195520776    -0.678624205524    15.994914619570
         O            2.021847766177    -0.513886520776    -1.076766205524    15.994914619570
         O            1.069422766177    -0.845974520776     1.342731794476    15.994914619570
         O            1.036763766177     1.515020479224     0.251513794476    15.994914619570
         C           -1.567337233823    -0.059225520776     0.180905794476    12.000000000000
         C           -2.029957233823     1.380022479224    -0.062810205524    12.000000000000
         C           -2.690279233823    -1.069275520776    -0.061535205524    12.000000000000
         H           -1.237807233823    -0.151253520776     1.227777794476     1.007825032230
         H           -2.898065233823     1.724041079224     0.696116294476     1.007825032230
         H           -1.132355233823     1.993424479224     0.058441794476     1.007825032230
         H           -2.406448233823     1.475471479224    -1.091038205524     1.007825032230
         H           -3.577533233823    -0.875388520776     0.562113794476     1.007825032230
         H           -2.318263233823    -2.077045520776     0.147412794476     1.007825032230
         H           -2.990445233823    -1.028078520776    -1.116442205524     1.007825032230

  Basis Set: AUG-CC-PVTZ
    Blend: AUG-CC-PVTZ
  Basis Set: (AUG-CC-PVTZ AUX)
    Blend: AUG-CC-PVTZ-JKFIT
	 Reference Energy          =    -758.0552528966951513 [Eh]
	 Singles Energy            =      -0.0000000000000000 [Eh]
	 Same-Spin Energy          =      -0.4695461075520063 [Eh]
	 Opposite-Spin Energy      =      -1.4037079086627808 [Eh]
	 Correlation Energy        =      -1.8732540162147870 [Eh]
	 Total Energy              =    -759.9285069129099384 [Eh]

	 ================> DF-SCS-MP2 Energies <==================
	-----------------------------------------------------------
	 SCS Same-Spin Scale       =       0.3333333333333333 [-]
	 SCS Opposite-Spin Scale   =       1.2000000000000000 [-]
	 SCS Same-Spin Energy      =      -0.1565153691840021 [Eh]
	 SCS Opposite-Spin Energy  =      -1.6844494903953369 [Eh]
	 SCS Correlation Energy    =      -1.8409648595793389 [Eh]
	 SCS Total Energy          =    -759.8962177562744955 [Eh]
	-----------------------------------------------------------

  Dipole Moment: [D]
     X:    -8.0738      Y:    -0.0023      Z:    -0.0244     Total:     8.0738

*** Psi4 exiting successfully. Buy a developer a beer!
