                               Psi4 1.4a3.dev225

  ==> Input File <==

--------------------------------------------------------------------------
#psi4
#
memory 32 gb

molecule  {
-2 1
  P        1.2274490    -0.0222580     0.0433940
  O       -0.3905570    -0.3882050    -0.6807720
  O        2.1423100    -0.5208960    -1.0789140
  O        1.1898850    -0.8529840     1.3405840
  O        1.1572260     1.5080110     0.2493660
  C       -1.4468750    -0.0662350     0.1787580
  C       -1.9094950     1.3730130    -0.0649580
  C       -2.5729511    -1.0592652    -0.1141944
  H       -1.1173450    -0.1582630     1.2256300
  H       -2.7054590     1.6884420     0.6308980
  H       -1.0118930     1.9864150     0.0562940
  H       -2.2859860     1.4684620    -1.0931860
  H       -3.4570710    -0.8823980     0.5599660
  H       -2.1978010    -2.0840550     0.1452650
  H       -2.8699830    -1.0350880    -1.1185900
units angstrom
no_reorient  #important for SAPT in psi4, default
symmetry c1  #important for SAPT in psi4, default
}

set PROPERTIES_ORIGIN ["COM"]
properties('MP2/aug-cc-pvtz', properties = ['dipole'])
--------------------------------------------------------------------------

    Molecular point group: c1
  Charge       = -2
  Multiplicity = 1
  Basis Set: AUG-CC-PVTZ
    Blend: AUG-CC-PVTZ
  Basis Set: (AUG-CC-PVTZ AUX)
    Blend: AUG-CC-PVTZ-JKFIT

    Orbital Energies [Eh]
    ---------------------

    Doubly Occupied:

       1A    -79.675125     2A    -20.202061     3A    -20.118771
       4A    -20.118540     5A    -20.116295     6A    -10.980828
       7A    -10.961785     8A    -10.935419     9A     -7.189349
      10A     -5.088817    11A     -5.086342    12A     -5.086281
      13A     -1.014921    14A     -0.929270    15A     -0.860417
      16A     -0.859829    17A     -0.750091    18A     -0.665580
      19A     -0.501801    20A     -0.393443    21A     -0.331870
      22A     -0.320279    23A     -0.298886    24A     -0.284792
      25A     -0.245581    26A     -0.240793    27A     -0.221120
      28A     -0.188642    29A     -0.182921    30A     -0.163909
      31A     -0.114425    32A     -0.094729    33A     -0.091817
      34A     -0.082529    35A     -0.057603    36A     -0.050121
      37A     -0.026714

  @DF-RHF Final Energy:  -758.05815116799556

   => Energetics <=

    Nuclear Repulsion Energy =            503.6639482486182260
    One-Electron Energy =               -2074.3808118394922531
    Two-Electron Energy =                 812.6587124228784660
    Total Energy =                       -758.0581511679955611
  Basis Set: (AUG-CC-PVTZ AUX)
    Blend: AUG-CC-PVTZ-RI
    Molecular point group: c1

    Geometry (in Angstrom), charge = -2, multiplicity = 1:

       Center              X                  Y                   Z               Mass
    ------------   -----------------  -----------------  -----------------  -----------------
         P            1.106732438317    -0.016519635760     0.050394410839    30.973761998420
         O           -0.511273561683    -0.382466635760    -0.673771589161    15.994914619570
         O            2.021593438317    -0.515157635760    -1.071913589161    15.994914619570
         O            1.069168438317    -0.847245635760     1.347584410839    15.994914619570
         O            1.036509438317     1.513749364240     0.256366410839    15.994914619570
         C           -1.567591561683    -0.060496635760     0.185758410839    12.000000000000
         C           -2.030211561683     1.378751364240    -0.057957589161    12.000000000000
         C           -2.693667661683    -1.053526835760    -0.107193989161    12.000000000000
         H           -1.238061561683    -0.152524635760     1.232630410839     1.007825032230
         H           -2.826175561683     1.694180364240     0.637898410839     1.007825032230
         H           -1.132609561683     1.992153364240     0.063294410839     1.007825032230
         H           -2.406702561683     1.474200364240    -1.086185589161     1.007825032230
         H           -3.577787561683    -0.876659635760     0.566966410839     1.007825032230
         H           -2.318517561683    -2.078316635760     0.152265410839     1.007825032230
         H           -2.990699561683    -1.029349635760    -1.111589589161     1.007825032230

  Basis Set: AUG-CC-PVTZ
    Blend: AUG-CC-PVTZ
  Basis Set: (AUG-CC-PVTZ AUX)
    Blend: AUG-CC-PVTZ-JKFIT
	 Reference Energy          =    -758.0581511679955611 [Eh]
	 Singles Energy            =      -0.0000000000000000 [Eh]
	 Same-Spin Energy          =      -0.4697047817777223 [Eh]
	 Opposite-Spin Energy      =      -1.4032657804478648 [Eh]
	 Correlation Energy        =      -1.8729705622255870 [Eh]
	 Total Energy              =    -759.9311217302210935 [Eh]

	 ================> DF-SCS-MP2 Energies <==================
	-----------------------------------------------------------
	 SCS Same-Spin Scale       =       0.3333333333333333 [-]
	 SCS Opposite-Spin Scale   =       1.2000000000000000 [-]
	 SCS Same-Spin Energy      =      -0.1565682605925741 [Eh]
	 SCS Opposite-Spin Energy  =      -1.6839189365374376 [Eh]
	 SCS Correlation Energy    =      -1.8404871971300116 [Eh]
	 SCS Total Energy          =    -759.8986383651255210 [Eh]
	-----------------------------------------------------------

  Dipole Moment: [D]
     X:    -8.2180      Y:     0.1031      Z:    -0.0344     Total:     8.2187

*** Psi4 exiting successfully. Buy a developer a beer!
