                               Psi4 1.4a3.dev225

  ==> Input File <==

--------------------------------------------------------------------------
#psi4
#
memory 32 gb

molecule  {
-2 1
  P        1.2274490    -0.0222580     0.0433940
  O       -0.3905570    -0.3882050    -0.6807720
  O        2.1423100    -0.5208960    -1.0789140
  O        1.1898850    -0.8529840     1.3405840
  O        1.1572260     1.5080110     0.2493660
  C       -1.4468750    -0.0662350     0.1787580
  C       -1.9094950     1.3730130    -0.0649580
  C       -2.5698170    -1.0762850    -0.0636830
  H       -1.1173450    -0.1582630     1.2256300
  H       -2.7054590     1.6884420     0.6308980
  H       -1.0118930     1.9864150     0.0562940
  H       -2.2859860     1.4684620    -1.0931860
  H       -3.4779762    -0.8787309     0.5278990
  H       -2.1978010    -2.0840550     0.1452650
  H       -2.8699830    -1.0350880    -1.1185900
units angstrom
no_reorient  #important for SAPT in psi4, default
symmetry c1  #important for SAPT in psi4, default
}

set PROPERTIES_ORIGIN ["COM"]
properties('MP2/aug-cc-pvtz', properties = ['dipole'])
--------------------------------------------------------------------------

    Molecular point group: c1
  Charge       = -2
  Multiplicity = 1
  Basis Set: AUG-CC-PVTZ
    Blend: AUG-CC-PVTZ
  Basis Set: (AUG-CC-PVTZ AUX)
    Blend: AUG-CC-PVTZ-JKFIT

    Orbital Energies [Eh]
    ---------------------

    Doubly Occupied:

       1A    -79.675222     2A    -20.202592     3A    -20.118761
       4A    -20.118443     5A    -20.116384     6A    -10.980799
       7A    -10.961570     8A    -10.935941     9A     -7.189441
      10A     -5.088915    11A     -5.086430    12A     -5.086369
      13A     -1.014795    14A     -0.929197    15A     -0.860447
      16A     -0.859779    17A     -0.749796    18A     -0.666011
      19A     -0.501059    20A     -0.391990    21A     -0.336250
      22A     -0.318086    23A     -0.302557    24A     -0.274894
      25A     -0.244696    26A     -0.243800    27A     -0.224817
      28A     -0.189777    29A     -0.182535    30A     -0.161724
      31A     -0.115250    32A     -0.094754    33A     -0.091823
      34A     -0.082793    35A     -0.057601    36A     -0.050224
      37A     -0.026704

  @DF-RHF Final Energy:  -758.06104258419998

   => Energetics <=

    Nuclear Repulsion Energy =            503.5374043468200398
    One-Electron Energy =               -2074.1324411469440747
    Two-Electron Energy =                 812.5339942159240536
    Total Energy =                       -758.0610425841999813
  Basis Set: (AUG-CC-PVTZ AUX)
    Blend: AUG-CC-PVTZ-RI
    Molecular point group: c1

    Geometry (in Angstrom), charge = -2, multiplicity = 1:

       Center              X                  Y                   Z               Mass
    ------------   -----------------  -----------------  -----------------  -----------------
         P            1.106612587346    -0.015066520575     0.046236549983    30.973761998420
         O           -0.511393412654    -0.381013520575    -0.677929450017    15.994914619570
         O            2.021473587346    -0.513704520575    -1.076071450017    15.994914619570
         O            1.069048587346    -0.845792520575     1.343426549983    15.994914619570
         O            1.036389587346     1.515202479425     0.252208549983    15.994914619570
         C           -1.567711412654    -0.059043520575     0.181600549983    12.000000000000
         C           -2.030331412654     1.380204479425    -0.062115450017    12.000000000000
         C           -2.690653412654    -1.069093520575    -0.060840450017    12.000000000000
         H           -1.238181412654    -0.151071520575     1.228472549983     1.007825032230
         H           -2.826295412654     1.695633479425     0.633740549983     1.007825032230
         H           -1.132729412654     1.993606479425     0.059136549983     1.007825032230
         H           -2.406822412654     1.475653479425    -1.090343450017     1.007825032230
         H           -3.598812612654    -0.871539420575     0.530741549983     1.007825032230
         H           -2.318637412654    -2.076863520575     0.148107549983     1.007825032230
         H           -2.990819412654    -1.027896520575    -1.115747450017     1.007825032230

  Basis Set: AUG-CC-PVTZ
    Blend: AUG-CC-PVTZ
  Basis Set: (AUG-CC-PVTZ AUX)
    Blend: AUG-CC-PVTZ-JKFIT
	 Reference Energy          =    -758.0610425841999813 [Eh]
	 Singles Energy            =      -0.0000000000000000 [Eh]
	 Same-Spin Energy          =      -0.4696834523954670 [Eh]
	 Opposite-Spin Energy      =      -1.4031284508862834 [Eh]
	 Correlation Energy        =      -1.8728119032817503 [Eh]
	 Total Energy              =    -759.9338544874817671 [Eh]

	 ================> DF-SCS-MP2 Energies <==================
	-----------------------------------------------------------
	 SCS Same-Spin Scale       =       0.3333333333333333 [-]
	 SCS Opposite-Spin Scale   =       1.2000000000000000 [-]
	 SCS Same-Spin Energy      =      -0.1565611507984890 [Eh]
	 SCS Opposite-Spin Energy  =      -1.6837541410635399 [Eh]
	 SCS Correlation Energy    =      -1.8403152918620289 [Eh]
	 SCS Total Energy          =    -759.9013578760619794 [Eh]
	-----------------------------------------------------------

  Dipole Moment: [D]
     X:    -8.2293      Y:     0.0894      Z:     0.0510     Total:     8.2299

*** Psi4 exiting successfully. Buy a developer a beer!
