                               Psi4 1.4a3.dev225

  ==> Input File <==

--------------------------------------------------------------------------
#psi4
#
memory 32 gb

molecule  {
-2 1
  P        1.2274490    -0.0222580     0.0433940
  O       -0.3905570    -0.3882050    -0.6807720
  O        2.1355460    -0.5460523    -1.0729327
  O        1.1898850    -0.8529840     1.3405840
  O        1.1572260     1.5080110     0.2493660
  C       -1.4468750    -0.0662350     0.1787580
  C       -1.9094950     1.3730130    -0.0649580
  C       -2.5698170    -1.0762850    -0.0636830
  H       -1.1173450    -0.1582630     1.2256300
  H       -2.7054590     1.6884420     0.6308980
  H       -1.0118930     1.9864150     0.0562940
  H       -2.2859860     1.4684620    -1.0931860
  H       -3.4570710    -0.8823980     0.5599660
  H       -2.1978010    -2.0840550     0.1452650
  H       -2.8699830    -1.0350880    -1.1185900
units angstrom
no_reorient  #important for SAPT in psi4, default
symmetry c1  #important for SAPT in psi4, default
}

set PROPERTIES_ORIGIN ["COM"]
properties('MP2/aug-cc-pvtz', properties = ['dipole'])
--------------------------------------------------------------------------

    Molecular point group: c1
  Charge       = -2
  Multiplicity = 1
  Basis Set: AUG-CC-PVTZ
    Blend: AUG-CC-PVTZ
  Basis Set: (AUG-CC-PVTZ AUX)
    Blend: AUG-CC-PVTZ-JKFIT

    Orbital Energies [Eh]
    ---------------------

    Doubly Occupied:

       1A    -79.675181     2A    -20.201960     3A    -20.120339
       4A    -20.117241     5A    -20.116259     6A    -10.980305
       7A    -10.961343     8A    -10.935984     9A     -7.189404
      10A     -5.088883    11A     -5.086398    12A     -5.086322
      13A     -1.014406    14A     -0.929114    15A     -0.861472
      16A     -0.858958    17A     -0.749711    18A     -0.665881
      19A     -0.500240    20A     -0.392329    21A     -0.335313
      22A     -0.317470    23A     -0.302997    24A     -0.276659
      25A     -0.244079    26A     -0.243329    27A     -0.224735
      28A     -0.189828    29A     -0.182405    30A     -0.161508
      31A     -0.114925    32A     -0.094891    33A     -0.091695
      34A     -0.082596    35A     -0.057429    36A     -0.050401
      37A     -0.026779

  @DF-RHF Final Energy:  -758.06106693578351

   => Energetics <=

    Nuclear Repulsion Energy =            503.6016114569571869
    One-Electron Energy =               -2074.2678161936555625
    Two-Electron Energy =                 812.6051378009148038
    Total Energy =                       -758.0610669357835150
  Basis Set: (AUG-CC-PVTZ AUX)
    Blend: AUG-CC-PVTZ-RI
    Molecular point group: c1

    Geometry (in Angstrom), charge = -2, multiplicity = 1:

       Center              X                  Y                   Z               Mass
    ------------   -----------------  -----------------  -----------------  -----------------
         P            1.107243860136    -0.012124168755     0.045309153553    30.973761998420
         O           -0.510762139864    -0.378071168755    -0.678856846447    15.994914619570
         O            2.015340860136    -0.535918468755    -1.071017546447    15.994914619570
         O            1.069679860136    -0.842850168755     1.342499153553    15.994914619570
         O            1.037020860136     1.518144831245     0.251281153553    15.994914619570
         C           -1.567080139864    -0.056101168755     0.180673153553    12.000000000000
         C           -2.029700139864     1.383146831245    -0.063042846447    12.000000000000
         C           -2.690022139864    -1.066151168755    -0.061767846447    12.000000000000
         H           -1.237550139864    -0.148129168755     1.227545153553     1.007825032230
         H           -2.825664139864     1.698575831245     0.632813153553     1.007825032230
         H           -1.132098139864     1.996548831245     0.058209153553     1.007825032230
         H           -2.406191139864     1.478595831245    -1.091270846447     1.007825032230
         H           -3.577276139864    -0.872264168755     0.561881153553     1.007825032230
         H           -2.318006139864    -2.073921168755     0.147180153553     1.007825032230
         H           -2.990188139864    -1.024954168755    -1.116674846447     1.007825032230

  Basis Set: AUG-CC-PVTZ
    Blend: AUG-CC-PVTZ
  Basis Set: (AUG-CC-PVTZ AUX)
    Blend: AUG-CC-PVTZ-JKFIT
	 Reference Energy          =    -758.0610669357835150 [Eh]
	 Singles Energy            =      -0.0000000000000000 [Eh]
	 Same-Spin Energy          =      -0.4697065313625889 [Eh]
	 Opposite-Spin Energy      =      -1.4031764604724746 [Eh]
	 Correlation Energy        =      -1.8728829918350636 [Eh]
	 Total Energy              =    -759.9339499276185279 [Eh]

	 ================> DF-SCS-MP2 Energies <==================
	-----------------------------------------------------------
	 SCS Same-Spin Scale       =       0.3333333333333333 [-]
	 SCS Opposite-Spin Scale   =       1.2000000000000000 [-]
	 SCS Same-Spin Energy      =      -0.1565688437875296 [Eh]
	 SCS Opposite-Spin Energy  =      -1.6838117525669694 [Eh]
	 SCS Correlation Energy    =      -1.8403805963544990 [Eh]
	 SCS Total Energy          =    -759.9014475321380360 [Eh]
	-----------------------------------------------------------

  Dipole Moment: [D]
     X:    -8.2081      Y:     0.1506      Z:     0.0400     Total:     8.2096

*** Psi4 exiting successfully. Buy a developer a beer!
