                               Psi4 1.4a3.dev225

  ==> Input File <==

--------------------------------------------------------------------------
#psi4
#
memory 32 gb

molecule  {
-2 1
  P        1.2274490    -0.0222580     0.0433940
  O       -0.3905570    -0.3882050    -0.6807720
  O        2.1423100    -0.5208960    -1.0789140
  O        1.1898850    -0.8529840     1.3405840
  O        1.1617692     1.4090070     0.2360402
  C       -1.4468750    -0.0662350     0.1787580
  C       -1.9094950     1.3730130    -0.0649580
  C       -2.5698170    -1.0762850    -0.0636830
  H       -1.1173450    -0.1582630     1.2256300
  H       -2.7054590     1.6884420     0.6308980
  H       -1.0118930     1.9864150     0.0562940
  H       -2.2859860     1.4684620    -1.0931860
  H       -3.4570710    -0.8823980     0.5599660
  H       -2.1978010    -2.0840550     0.1452650
  H       -2.8699830    -1.0350880    -1.1185900
units angstrom
no_reorient  #important for SAPT in psi4, default
symmetry c1  #important for SAPT in psi4, default
}

set PROPERTIES_ORIGIN ["COM"]
properties('MP2/aug-cc-pvtz', properties = ['dipole'])
--------------------------------------------------------------------------

    Molecular point group: c1
  Charge       = -2
  Multiplicity = 1
  Basis Set: AUG-CC-PVTZ
    Blend: AUG-CC-PVTZ
  Basis Set: (AUG-CC-PVTZ AUX)
    Blend: AUG-CC-PVTZ-JKFIT

    Orbital Energies [Eh]
    ---------------------

    Doubly Occupied:

       1A    -79.654829     2A    -20.195355     3A    -20.113424
       4A    -20.108819     5A    -20.106803     6A    -10.978333
       7A    -10.959768     8A    -10.937427     9A     -7.173211
      10A     -5.072277    11A     -5.070900    12A     -5.069641
      13A     -1.013647    14A     -0.945806    15A     -0.871550
      16A     -0.851988    17A     -0.748216    18A     -0.665739
      19A     -0.498460    20A     -0.388533    21A     -0.333841
      22A     -0.317231    23A     -0.300010    24A     -0.276345
      25A     -0.244558    26A     -0.241338    27A     -0.223870
      28A     -0.193535    29A     -0.186603    30A     -0.165597
      31A     -0.114385    32A     -0.097002    33A     -0.092394
      34A     -0.082141    35A     -0.054627    36A     -0.048109
      37A     -0.021913

  @DF-RHF Final Energy:  -758.06006950140511

   => Energetics <=

    Nuclear Repulsion Energy =            507.8579865390995565
    One-Electron Energy =               -2082.9996645259143406
    Two-Electron Energy =                 817.0816084854096744
    Total Energy =                       -758.0600695014051098
  Basis Set: (AUG-CC-PVTZ AUX)
    Blend: AUG-CC-PVTZ-RI
    Molecular point group: c1

    Geometry (in Angstrom), charge = -2, multiplicity = 1:

       Center              X                  Y                   Z               Mass
    ------------   -----------------  -----------------  -----------------  -----------------
         P            1.105933374931    -0.003565346213     0.047546813530    30.973761998420
         O           -0.512072625069    -0.369512346213    -0.676619186470    15.994914619570
         O            2.020794374931    -0.502203346213    -1.074761186470    15.994914619570
         O            1.068369374931    -0.834291346213     1.344736813530    15.994914619570
         O            1.040253574931     1.427699653787     0.240193013530    15.994914619570
         C           -1.568390625069    -0.047542346213     0.182910813530    12.000000000000
         C           -2.031010625069     1.391705653787    -0.060805186470    12.000000000000
         C           -2.691332625069    -1.057592346213    -0.059530186470    12.000000000000
         H           -1.238860625069    -0.139570346213     1.229782813530     1.007825032230
         H           -2.826974625069     1.707134653787     0.635050813530     1.007825032230
         H           -1.133408625069     2.005107653787     0.060446813530     1.007825032230
         H           -2.407501625069     1.487154653787    -1.089033186470     1.007825032230
         H           -3.578586625069    -0.863705346213     0.564118813530     1.007825032230
         H           -2.319316625069    -2.065362346213     0.149417813530     1.007825032230
         H           -2.991498625069    -1.016395346213    -1.114437186470     1.007825032230

  Basis Set: AUG-CC-PVTZ
    Blend: AUG-CC-PVTZ
  Basis Set: (AUG-CC-PVTZ AUX)
    Blend: AUG-CC-PVTZ-JKFIT
	 Reference Energy          =    -758.0600695014051098 [Eh]
	 Singles Energy            =      -0.0000000000000000 [Eh]
	 Same-Spin Energy          =      -0.4677417450541079 [Eh]
	 Opposite-Spin Energy      =      -1.3982463060538808 [Eh]
	 Correlation Energy        =      -1.8659880511079887 [Eh]
	 Total Energy              =    -759.9260575525130434 [Eh]

	 ================> DF-SCS-MP2 Energies <==================
	-----------------------------------------------------------
	 SCS Same-Spin Scale       =       0.3333333333333333 [-]
	 SCS Opposite-Spin Scale   =       1.2000000000000000 [-]
	 SCS Same-Spin Energy      =      -0.1559139150180360 [Eh]
	 SCS Opposite-Spin Energy  =      -1.6778955672646569 [Eh]
	 SCS Correlation Energy    =      -1.8338094822826929 [Eh]
	 SCS Total Energy          =    -759.8938789836878414 [Eh]
	-----------------------------------------------------------

  Dipole Moment: [D]
     X:    -8.1995      Y:     0.7506      Z:     0.1397     Total:     8.2350

*** Psi4 exiting successfully. Buy a developer a beer!
