                               Psi4 1.4a3.dev225

  ==> Input File <==

--------------------------------------------------------------------------
#psi4
#
memory 32 gb

molecule  {
-2 1
  P        1.2274490    -0.0222580     0.0433940
  O       -0.3905570    -0.3882050    -0.6807720
  O        2.1423100    -0.5208960    -1.0789140
  O        1.1898850    -0.8529840     1.3405840
  O        1.1572260     1.5080110     0.2493660
  C       -1.4091326    -0.0777390     0.1480469
  C       -1.9094950     1.3730130    -0.0649580
  C       -2.5698170    -1.0762850    -0.0636830
  H       -1.1173450    -0.1582630     1.2256300
  H       -2.7054590     1.6884420     0.6308980
  H       -1.0118930     1.9864150     0.0562940
  H       -2.2859860     1.4684620    -1.0931860
  H       -3.4570710    -0.8823980     0.5599660
  H       -2.1978010    -2.0840550     0.1452650
  H       -2.8699830    -1.0350880    -1.1185900
units angstrom
no_reorient  #important for SAPT in psi4, default
symmetry c1  #important for SAPT in psi4, default
}

set PROPERTIES_ORIGIN ["COM"]
properties('MP2/aug-cc-pvtz', properties = ['dipole'])
--------------------------------------------------------------------------

    Molecular point group: c1
  Charge       = -2
  Multiplicity = 1
  Basis Set: AUG-CC-PVTZ
    Blend: AUG-CC-PVTZ
  Basis Set: (AUG-CC-PVTZ AUX)
    Blend: AUG-CC-PVTZ-JKFIT

    Orbital Energies [Eh]
    ---------------------

    Doubly Occupied:

       1A    -79.677799     2A    -20.206248     3A    -20.120637
       4A    -20.120189     5A    -20.118302     6A    -10.982547
       7A    -10.959386     8A    -10.933684     9A     -7.192086
      10A     -5.091609    11A     -5.089020    12A     -5.088957
      13A     -1.034944    14A     -0.933599    15A     -0.862349
      16A     -0.861557    17A     -0.743971    18A     -0.661928
      19A     -0.497789    20A     -0.398725    21A     -0.333576
      22A     -0.319393    23A     -0.303199    24A     -0.274244
      25A     -0.256809    26A     -0.245840    27A     -0.225145
      28A     -0.188847    29A     -0.184358    30A     -0.157855
      31A     -0.111520    32A     -0.096670    33A     -0.093648
      34A     -0.084450    35A     -0.059657    36A     -0.051917
      37A     -0.028398

  @DF-RHF Final Energy:  -758.05956507051781

   => Energetics <=

    Nuclear Repulsion Energy =            504.3437795882955470
    One-Electron Energy =               -2075.6249816270351403
    Two-Electron Energy =                 813.2216369682217874
    Total Energy =                       -758.0595650705178059
  Basis Set: (AUG-CC-PVTZ AUX)
    Blend: AUG-CC-PVTZ-RI
    Molecular point group: c1

    Geometry (in Angstrom), charge = -2, multiplicity = 1:

       Center              X                  Y                   Z               Mass
    ------------   -----------------  -----------------  -----------------  -----------------
         P            1.103178171141    -0.014039452621     0.048672747870    30.973761998420
         O           -0.514827828859    -0.379986452621    -0.675493252130    15.994914619570
         O            2.018039171141    -0.512677452621    -1.073635252130    15.994914619570
         O            1.065614171141    -0.844765452621     1.345862747870    15.994914619570
         O            1.032955171141     1.516229547379     0.254644747870    15.994914619570
         C           -1.533403428859    -0.069520452621     0.153325647870    12.000000000000
         C           -2.033765828859     1.381231547379    -0.059679252130    12.000000000000
         C           -2.694087828859    -1.068066452621    -0.058404252130    12.000000000000
         H           -1.241615828859    -0.150044452621     1.230908747870     1.007825032230
         H           -2.829729828859     1.696660547379     0.636176747870     1.007825032230
         H           -1.136163828859     1.994633547379     0.061572747870     1.007825032230
         H           -2.410256828859     1.476680547379    -1.087907252130     1.007825032230
         H           -3.581341828859    -0.874179452621     0.565244747870     1.007825032230
         H           -2.322071828859    -2.075836452621     0.150543747870     1.007825032230
         H           -2.994253828859    -1.026869452621    -1.113311252130     1.007825032230

  Basis Set: AUG-CC-PVTZ
    Blend: AUG-CC-PVTZ
  Basis Set: (AUG-CC-PVTZ AUX)
    Blend: AUG-CC-PVTZ-JKFIT
	 Reference Energy          =    -758.0595650705178059 [Eh]
	 Singles Energy            =      -0.0000000000000000 [Eh]
	 Same-Spin Energy          =      -0.4697189063467860 [Eh]
	 Opposite-Spin Energy      =      -1.4025731516701831 [Eh]
	 Correlation Energy        =      -1.8722920580169691 [Eh]
	 Total Energy              =    -759.9318571285348298 [Eh]

	 ================> DF-SCS-MP2 Energies <==================
	-----------------------------------------------------------
	 SCS Same-Spin Scale       =       0.3333333333333333 [-]
	 SCS Opposite-Spin Scale   =       1.2000000000000000 [-]
	 SCS Same-Spin Energy      =      -0.1565729687822620 [Eh]
	 SCS Opposite-Spin Energy  =      -1.6830877820042198 [Eh]
	 SCS Correlation Energy    =      -1.8396607507864817 [Eh]
	 SCS Total Energy          =    -759.8992258213042987 [Eh]
	-----------------------------------------------------------

  Dipole Moment: [D]
     X:    -7.9446      Y:     0.0468      Z:    -0.0010     Total:     7.9447

*** Psi4 exiting successfully. Buy a developer a beer!
