                               Psi4 1.4a3.dev225

  ==> Input File <==

--------------------------------------------------------------------------
#psi4
#
memory 32 gb

molecule  {
-2 1
  P        1.2274490    -0.0222580     0.0433940
  O       -0.3905570    -0.3882050    -0.6807720
  O        2.1423100    -0.5208960    -1.0789140
  O        1.1898850    -0.8529840     1.3405840
  O        1.1572260     1.5080110     0.2493660
  C       -1.4468750    -0.0662350     0.1787580
  C       -1.9094950     1.3730130    -0.0649580
  C       -2.4229983    -0.9442263    -0.0319851
  H       -1.1173450    -0.1582630     1.2256300
  H       -2.7054590     1.6884420     0.6308980
  H       -1.0118930     1.9864150     0.0562940
  H       -2.2859860     1.4684620    -1.0931860
  H       -3.4570710    -0.8823980     0.5599660
  H       -2.1978010    -2.0840550     0.1452650
  H       -2.8699830    -1.0350880    -1.1185900
units angstrom
no_reorient  #important for SAPT in psi4, default
symmetry c1  #important for SAPT in psi4, default
}

set PROPERTIES_ORIGIN ["COM"]
properties('MP2/aug-cc-pvtz', properties = ['dipole'])
--------------------------------------------------------------------------

    Molecular point group: c1
  Charge       = -2
  Multiplicity = 1
  Basis Set: AUG-CC-PVTZ
    Blend: AUG-CC-PVTZ
  Basis Set: (AUG-CC-PVTZ AUX)
    Blend: AUG-CC-PVTZ-JKFIT

    Orbital Energies [Eh]
    ---------------------

    Doubly Occupied:

       1A    -79.675870     2A    -20.203803     3A    -20.119406
       4A    -20.119347     5A    -20.116986     6A    -10.980498
       7A    -10.966559     8A    -10.937555     9A     -7.190113
      10A     -5.089586    11A     -5.087099    12A     -5.087039
      13A     -1.023193    14A     -0.932255    15A     -0.861113
      16A     -0.860538    17A     -0.780613    18A     -0.663435
      19A     -0.505830    20A     -0.403730    21A     -0.347131
      22A     -0.331046    23A     -0.296142    24A     -0.262660
      25A     -0.249953    26A     -0.227740    27A     -0.208745
      28A     -0.192116    29A     -0.180844    30A     -0.166070
      31A     -0.116617    32A     -0.095171    33A     -0.092515
      34A     -0.085286    35A     -0.058196    36A     -0.051683
      37A     -0.027415

  @DF-RHF Final Energy:  -758.01304961324536

   => Energetics <=

    Nuclear Repulsion Energy =            507.6449415198053430
    One-Electron Energy =               -2082.1281874205355962
    Two-Electron Energy =                 816.4701962874848959
    Total Energy =                       -758.0130496132453572
  Basis Set: (AUG-CC-PVTZ AUX)
    Blend: AUG-CC-PVTZ-RI
    Molecular point group: c1

    Geometry (in Angstrom), charge = -2, multiplicity = 1:

       Center              X                  Y                   Z               Mass
    ------------   -----------------  -----------------  -----------------  -----------------
         P            1.093693838755    -0.026522424312     0.043246200583    30.973761998420
         O           -0.524312161245    -0.392469424312    -0.680919799417    15.994914619570
         O            2.008554838755    -0.525160424312    -1.079061799417    15.994914619570
         O            1.056129838755    -0.857248424312     1.340436200583    15.994914619570
         O            1.023470838755     1.503746575688     0.249218200583    15.994914619570
         C           -1.580630161245    -0.070499424312     0.178610200583    12.000000000000
         C           -2.043250161245     1.368748575688    -0.065105799417    12.000000000000
         C           -2.556753461245    -0.948490724312    -0.032132899417    12.000000000000
         H           -1.251100161245    -0.162527424312     1.225482200583     1.007825032230
         H           -2.839214161245     1.684177575688     0.630750200583     1.007825032230
         H           -1.145648161245     1.982150575688     0.056146200583     1.007825032230
         H           -2.419741161245     1.464197575688    -1.093333799417     1.007825032230
         H           -3.590826161245    -0.886662424312     0.559818200583     1.007825032230
         H           -2.331556161245    -2.088319424312     0.145117200583     1.007825032230
         H           -3.003738161245    -1.039352424312    -1.118737799417     1.007825032230

  Basis Set: AUG-CC-PVTZ
    Blend: AUG-CC-PVTZ
  Basis Set: (AUG-CC-PVTZ AUX)
    Blend: AUG-CC-PVTZ-JKFIT
	 Reference Energy          =    -758.0130496132453572 [Eh]
	 Singles Energy            =      -0.0000000000000000 [Eh]
	 Same-Spin Energy          =      -0.4723931433896763 [Eh]
	 Opposite-Spin Energy      =      -1.4069710334825500 [Eh]
	 Correlation Energy        =      -1.8793641768722262 [Eh]
	 Total Energy              =    -759.8924137901175300 [Eh]

	 ================> DF-SCS-MP2 Energies <==================
	-----------------------------------------------------------
	 SCS Same-Spin Scale       =       0.3333333333333333 [-]
	 SCS Opposite-Spin Scale   =       1.2000000000000000 [-]
	 SCS Same-Spin Energy      =      -0.1574643811298921 [Eh]
	 SCS Opposite-Spin Energy  =      -1.6883652401790601 [Eh]
	 SCS Correlation Energy    =      -1.8458296213089522 [Eh]
	 SCS Total Energy          =    -759.8588792345543652 [Eh]
	-----------------------------------------------------------

  Dipole Moment: [D]
     X:    -8.0381      Y:     0.1778      Z:     0.0985     Total:     8.0407

*** Psi4 exiting successfully. Buy a developer a beer!
