                               Psi4 1.4a3.dev225

  ==> Input File <==

--------------------------------------------------------------------------
#psi4
#
memory 32 gb

molecule  {
-2 1
  P        1.2274490    -0.0222580     0.0433940
  O       -0.3905570    -0.3882050    -0.6807720
  O        2.1136029    -0.6205333    -1.0529562
  O        1.1898850    -0.8529840     1.3405840
  O        1.1572260     1.5080110     0.2493660
  C       -1.4468750    -0.0662350     0.1787580
  C       -1.9094950     1.3730130    -0.0649580
  C       -2.5698170    -1.0762850    -0.0636830
  H       -1.1173450    -0.1582630     1.2256300
  H       -2.7054590     1.6884420     0.6308980
  H       -1.0118930     1.9864150     0.0562940
  H       -2.2859860     1.4684620    -1.0931860
  H       -3.4570710    -0.8823980     0.5599660
  H       -2.1978010    -2.0840550     0.1452650
  H       -2.8699830    -1.0350880    -1.1185900
units angstrom
no_reorient  #important for SAPT in psi4, default
symmetry c1  #important for SAPT in psi4, default
}

set PROPERTIES_ORIGIN ["COM"]
properties('MP2/aug-cc-pvtz', properties = ['dipole'])
--------------------------------------------------------------------------

    Molecular point group: c1
  Charge       = -2
  Multiplicity = 1
  Basis Set: AUG-CC-PVTZ
    Blend: AUG-CC-PVTZ
  Basis Set: (AUG-CC-PVTZ AUX)
    Blend: AUG-CC-PVTZ-JKFIT

    Orbital Energies [Eh]
    ---------------------

    Doubly Occupied:

       1A    -79.675253     2A    -20.200672     3A    -20.125081
       4A    -20.115920     5A    -20.113696     6A    -10.979514
       7A    -10.960737     8A    -10.936096     9A     -7.189501
      10A     -5.088998    11A     -5.086562    12A     -5.086326
      13A     -1.013645    14A     -0.929103    15A     -0.865264
      16A     -0.855685    17A     -0.749162    18A     -0.665655
      19A     -0.499651    20A     -0.391663    21A     -0.334966
      22A     -0.317245    23A     -0.302818    24A     -0.276427
      25A     -0.243989    26A     -0.242658    27A     -0.224491
      28A     -0.190499    29A     -0.181894    30A     -0.161180
      31A     -0.114338    32A     -0.095577    33A     -0.091531
      34A     -0.082177    35A     -0.057834    36A     -0.049959
      37A     -0.026444

  @DF-RHF Final Energy:  -758.05960642409855

   => Energetics <=

    Nuclear Repulsion Energy =            503.7463011324055060
    One-Electron Energy =               -2074.5673912338334048
    Two-Electron Energy =                 812.7614836773293518
    Total Energy =                       -758.0596064240985470
  Basis Set: (AUG-CC-PVTZ AUX)
    Blend: AUG-CC-PVTZ-RI
    Molecular point group: c1

    Geometry (in Angstrom), charge = -2, multiplicity = 1:

       Center              X                  Y                   Z               Mass
    ------------   -----------------  -----------------  -----------------  -----------------
         P            1.109787028019    -0.003491947823     0.042993911256    30.973761998420
         O           -0.508218971981    -0.369438947823    -0.681172088744    15.994914619570
         O            1.995940928019    -0.601767247823    -1.053356288744    15.994914619570
         O            1.072223028019    -0.834217947823     1.340183911256    15.994914619570
         O            1.039564028019     1.526777052177     0.248965911256    15.994914619570
         C           -1.564536971981    -0.047468947823     0.178357911256    12.000000000000
         C           -2.027156971981     1.391779052177    -0.065358088744    12.000000000000
         C           -2.687478971981    -1.057518947823    -0.064083088744    12.000000000000
         H           -1.235006971981    -0.139496947823     1.225229911256     1.007825032230
         H           -2.823120971981     1.707208052177     0.630497911256     1.007825032230
         H           -1.129554971981     2.005181052177     0.055893911256     1.007825032230
         H           -2.403647971981     1.487228052177    -1.093586088744     1.007825032230
         H           -3.574732971981    -0.863631947823     0.559565911256     1.007825032230
         H           -2.315462971981    -2.065288947823     0.144864911256     1.007825032230
         H           -2.987644971981    -1.016321947823    -1.118990088744     1.007825032230

  Basis Set: AUG-CC-PVTZ
    Blend: AUG-CC-PVTZ
  Basis Set: (AUG-CC-PVTZ AUX)
    Blend: AUG-CC-PVTZ-JKFIT
	 Reference Energy          =    -758.0596064240985470 [Eh]
	 Singles Energy            =      -0.0000000000000000 [Eh]
	 Same-Spin Energy          =      -0.4698348823449173 [Eh]
	 Opposite-Spin Energy      =      -1.4034120225997835 [Eh]
	 Correlation Energy        =      -1.8732469049447009 [Eh]
	 Total Energy              =    -759.9328533290432688 [Eh]

	 ================> DF-SCS-MP2 Energies <==================
	-----------------------------------------------------------
	 SCS Same-Spin Scale       =       0.3333333333333333 [-]
	 SCS Opposite-Spin Scale   =       1.2000000000000000 [-]
	 SCS Same-Spin Energy      =      -0.1566116274483058 [Eh]
	 SCS Opposite-Spin Energy  =      -1.6840944271197402 [Eh]
	 SCS Correlation Energy    =      -1.8407060545680460 [Eh]
	 SCS Total Energy          =    -759.9003124786665921 [Eh]
	-----------------------------------------------------------

  Dipole Moment: [D]
     X:    -8.1519      Y:     0.3419      Z:    -0.0171     Total:     8.1591

*** Psi4 exiting successfully. Buy a developer a beer!
