                               Psi4 1.4a3.dev225

  ==> Input File <==

--------------------------------------------------------------------------
#psi4
#
memory 32 gb

molecule  {
-2 1
  P        1.2274490    -0.0222580     0.0433940
  O       -0.3905570    -0.3882050    -0.6807720
  O        2.1423100    -0.5208960    -1.0789140
  O        1.1898850    -0.8529840     1.3405840
  O        1.1572260     1.5080110     0.2493660
  C       -1.4468750    -0.0662350     0.1787580
  C       -1.9397061     1.4670022    -0.0808737
  C       -2.5698170    -1.0762850    -0.0636830
  H       -1.1173450    -0.1582630     1.2256300
  H       -2.7054590     1.6884420     0.6308980
  H       -1.0118930     1.9864150     0.0562940
  H       -2.2859860     1.4684620    -1.0931860
  H       -3.4570710    -0.8823980     0.5599660
  H       -2.1978010    -2.0840550     0.1452650
  H       -2.8699830    -1.0350880    -1.1185900
units angstrom
no_reorient  #important for SAPT in psi4, default
symmetry c1  #important for SAPT in psi4, default
}

set PROPERTIES_ORIGIN ["COM"]
properties('MP2/aug-cc-pvtz', properties = ['dipole'])
--------------------------------------------------------------------------

    Molecular point group: c1
  Charge       = -2
  Multiplicity = 1
  Basis Set: AUG-CC-PVTZ
    Blend: AUG-CC-PVTZ
  Basis Set: (AUG-CC-PVTZ AUX)
    Blend: AUG-CC-PVTZ-JKFIT

    Orbital Energies [Eh]
    ---------------------

    Doubly Occupied:

       1A    -79.675603     2A    -20.204124     3A    -20.119205
       4A    -20.118831     5A    -20.116749     6A    -10.987049
       7A    -10.962678     8A    -10.931620     9A     -7.189836
      10A     -5.089313    11A     -5.086820    12A     -5.086760
      13A     -1.013912    14A     -0.929166    15A     -0.860800
      16A     -0.860122    17A     -0.743005    18A     -0.665382
      19A     -0.500476    20A     -0.391331    21A     -0.331040
      22A     -0.318388    23A     -0.304659    24A     -0.285812
      25A     -0.249459    26A     -0.245371    27A     -0.225174
      28A     -0.185328    29A     -0.183164    30A     -0.163318
      31A     -0.105945    32A     -0.095061    33A     -0.092103
      34A     -0.083427    35A     -0.057880    36A     -0.050067
      37A     -0.027076

  @DF-RHF Final Energy:  -758.05388952025510

   => Energetics <=

    Nuclear Repulsion Energy =            501.7640057618142464
    One-Electron Energy =               -2070.5636770013893511
    Two-Electron Energy =                 810.7457817193201208
    Total Energy =                       -758.0538895202550975
  Basis Set: (AUG-CC-PVTZ AUX)
    Blend: AUG-CC-PVTZ-RI
    Molecular point group: c1

    Geometry (in Angstrom), charge = -2, multiplicity = 1:

       Center              X                  Y                   Z               Mass
    ------------   -----------------  -----------------  -----------------  -----------------
         P            1.109086820231    -0.023212229597     0.047386267751    30.973761998420
         O           -0.508919179769    -0.389159229597    -0.676779732249    15.994914619570
         O            2.023947820231    -0.521850229597    -1.074921732249    15.994914619570
         O            1.071522820231    -0.853938229597     1.344576267751    15.994914619570
         O            1.038863820231     1.507056770403     0.253358267751    15.994914619570
         C           -1.565237179769    -0.067189229597     0.182750267751    12.000000000000
         C           -2.058068279769     1.466047970403    -0.076881432249    12.000000000000
         C           -2.688179179769    -1.077239229597    -0.059690732249    12.000000000000
         H           -1.235707179769    -0.159217229597     1.229622267751     1.007825032230
         H           -2.823821179769     1.687487770403     0.634890267751     1.007825032230
         H           -1.130255179769     1.985460770403     0.060286267751     1.007825032230
         H           -2.404348179769     1.467507770403    -1.089193732249     1.007825032230
         H           -3.575433179769    -0.883352229597     0.563958267751     1.007825032230
         H           -2.316163179769    -2.085009229597     0.149257267751     1.007825032230
         H           -2.988345179769    -1.036042229597    -1.114597732249     1.007825032230

  Basis Set: AUG-CC-PVTZ
    Blend: AUG-CC-PVTZ
  Basis Set: (AUG-CC-PVTZ AUX)
    Blend: AUG-CC-PVTZ-JKFIT
	 Reference Energy          =    -758.0538895202550975 [Eh]
	 Singles Energy            =      -0.0000000000000000 [Eh]
	 Same-Spin Energy          =      -0.4696972310476136 [Eh]
	 Opposite-Spin Energy      =      -1.4035866591963950 [Eh]
	 Correlation Energy        =      -1.8732838902440085 [Eh]
	 Total Energy              =    -759.9271734104991083 [Eh]

	 ================> DF-SCS-MP2 Energies <==================
	-----------------------------------------------------------
	 SCS Same-Spin Scale       =       0.3333333333333333 [-]
	 SCS Opposite-Spin Scale   =       1.2000000000000000 [-]
	 SCS Same-Spin Energy      =      -0.1565657436825378 [Eh]
	 SCS Opposite-Spin Energy  =      -1.6843039910356741 [Eh]
	 SCS Correlation Energy    =      -1.8408697347182119 [Eh]
	 SCS Total Energy          =    -759.8947592549733372 [Eh]
	-----------------------------------------------------------

  Dipole Moment: [D]
     X:    -8.2091      Y:    -0.0250      Z:     0.0568     Total:     8.2094

*** Psi4 exiting successfully. Buy a developer a beer!
