                               Psi4 1.4a3.dev225

  ==> Input File <==

--------------------------------------------------------------------------
#psi4
#
memory 32 gb

molecule  {
-2 1
  P        1.2274490    -0.0222580     0.0433940
  O       -0.2117766    -0.3477700    -0.6007558
  O        2.1423100    -0.5208960    -1.0789140
  O        1.1898850    -0.8529840     1.3405840
  O        1.1572260     1.5080110     0.2493660
  C       -1.4468750    -0.0662350     0.1787580
  C       -1.9094950     1.3730130    -0.0649580
  C       -2.5698170    -1.0762850    -0.0636830
  H       -1.1173450    -0.1582630     1.2256300
  H       -2.7054590     1.6884420     0.6308980
  H       -1.0118930     1.9864150     0.0562940
  H       -2.2859860     1.4684620    -1.0931860
  H       -3.4570710    -0.8823980     0.5599660
  H       -2.1978010    -2.0840550     0.1452650
  H       -2.8699830    -1.0350880    -1.1185900
units angstrom
no_reorient  #important for SAPT in psi4, default
symmetry c1  #important for SAPT in psi4, default
}

set PROPERTIES_ORIGIN ["COM"]
properties('MP2/aug-cc-pvtz', properties = ['dipole'])
--------------------------------------------------------------------------

    Molecular point group: c1
  Charge       = -2
  Multiplicity = 1
  Basis Set: AUG-CC-PVTZ
    Blend: AUG-CC-PVTZ
  Basis Set: (AUG-CC-PVTZ AUX)
    Blend: AUG-CC-PVTZ-JKFIT

    Orbital Energies [Eh]
    ---------------------

    Doubly Occupied:

       1A    -79.650387     2A    -20.207374     3A    -20.099841
       4A    -20.099163     5A    -20.098890     6A    -11.000638
       7A    -10.978586     8A    -10.946944     9A     -7.166857
      10A     -5.066704    11A     -5.064000    12A     -5.063869
      13A     -1.028047    14A     -0.906021    15A     -0.845819
      16A     -0.844283    17A     -0.773484    18A     -0.676655
      19A     -0.519630    20A     -0.400358    21A     -0.348741
      22A     -0.323731    23A     -0.310226    24A     -0.286730
      25A     -0.255628    26A     -0.243921    27A     -0.230015
      28A     -0.190881    29A     -0.180324    30A     -0.151377
      31A     -0.125635    32A     -0.081169    33A     -0.078558
      34A     -0.077284    35A     -0.039184    36A     -0.032758
      37A     -0.010674

  @DF-RHF Final Energy:  -758.05047347116124

   => Energetics <=

    Nuclear Repulsion Energy =            508.1211857717752878
    One-Electron Energy =               -2083.5345476871884784
    Two-Electron Energy =                 817.3628884442518938
    Total Energy =                       -758.0504734711612400
  Basis Set: (AUG-CC-PVTZ AUX)
    Blend: AUG-CC-PVTZ-RI
    Molecular point group: c1

    Geometry (in Angstrom), charge = -2, multiplicity = 1:

       Center              X                  Y                   Z               Mass
    ------------   -----------------  -----------------  -----------------  -----------------
         P            1.085739580473    -0.019726088612     0.036728634850    30.973761998420
         O           -0.353486019527    -0.345238088612    -0.607421165150    15.994914619570
         O            2.000600580473    -0.518364088612    -1.085579365150    15.994914619570
         O            1.048175580473    -0.850452088612     1.333918634850    15.994914619570
         O            1.015516580473     1.510542911388     0.242700634850    15.994914619570
         C           -1.588584419527    -0.063703088612     0.172092634850    12.000000000000
         C           -2.051204419527     1.375544911388    -0.071623365150    12.000000000000
         C           -2.711526419527    -1.073753088612    -0.070348365150    12.000000000000
         H           -1.259054419527    -0.155731088612     1.218964634850     1.007825032230
         H           -2.847168419527     1.690973911388     0.624232634850     1.007825032230
         H           -1.153602419527     1.988946911388     0.049628634850     1.007825032230
         H           -2.427695419527     1.470993911388    -1.099851365150     1.007825032230
         H           -3.598780419527    -0.879866088612     0.553300634850     1.007825032230
         H           -2.339510419527    -2.081523088612     0.138599634850     1.007825032230
         H           -3.011692419527    -1.032556088612    -1.125255365150     1.007825032230

  Basis Set: AUG-CC-PVTZ
    Blend: AUG-CC-PVTZ
  Basis Set: (AUG-CC-PVTZ AUX)
    Blend: AUG-CC-PVTZ-JKFIT
	 Reference Energy          =    -758.0504734711612400 [Eh]
	 Singles Energy            =      -0.0000000000000000 [Eh]
	 Same-Spin Energy          =      -0.4680632061747665 [Eh]
	 Opposite-Spin Energy      =      -1.3996206490009298 [Eh]
	 Correlation Energy        =      -1.8676838551756962 [Eh]
	 Total Energy              =    -759.9181573263368819 [Eh]

	 ================> DF-SCS-MP2 Energies <==================
	-----------------------------------------------------------
	 SCS Same-Spin Scale       =       0.3333333333333333 [-]
	 SCS Opposite-Spin Scale   =       1.2000000000000000 [-]
	 SCS Same-Spin Energy      =      -0.1560210687249222 [Eh]
	 SCS Opposite-Spin Energy  =      -1.6795447788011157 [Eh]
	 SCS Correlation Energy    =      -1.8355658475260379 [Eh]
	 SCS Total Energy          =    -759.8860393186872670 [Eh]
	-----------------------------------------------------------

  Dipole Moment: [D]
     X:    -9.7668      Y:    -0.0744      Z:    -0.2332     Total:     9.7698

*** Psi4 exiting successfully. Buy a developer a beer!
