                               Psi4 1.4a3.dev225

  ==> Input File <==

--------------------------------------------------------------------------
#psi4
#
memory 32 gb

molecule  {
-2 1
  P        1.2274490    -0.0222580     0.0433940
  O       -0.3905570    -0.3882050    -0.6807720
  O        2.1423100    -0.5208960    -1.0789140
  O        1.1898850    -0.8529840     1.3405840
  O        1.1572260     1.5080110     0.2493660
  C       -1.4468750    -0.0662350     0.1787580
  C       -1.9094950     1.3730130    -0.0649580
  C       -2.5594499    -1.1066137     0.0381641
  H       -1.1173450    -0.1582630     1.2256300
  H       -2.7054590     1.6884420     0.6308980
  H       -1.0118930     1.9864150     0.0562940
  H       -2.2859860     1.4684620    -1.0931860
  H       -3.4570710    -0.8823980     0.5599660
  H       -2.1978010    -2.0840550     0.1452650
  H       -2.8699830    -1.0350880    -1.1185900
units angstrom
no_reorient  #important for SAPT in psi4, default
symmetry c1  #important for SAPT in psi4, default
}

set PROPERTIES_ORIGIN ["COM"]
properties('MP2/aug-cc-pvtz', properties = ['dipole'])
--------------------------------------------------------------------------

    Molecular point group: c1
  Charge       = -2
  Multiplicity = 1
  Basis Set: AUG-CC-PVTZ
    Blend: AUG-CC-PVTZ
  Basis Set: (AUG-CC-PVTZ AUX)
    Blend: AUG-CC-PVTZ-JKFIT

    Orbital Energies [Eh]
    ---------------------

    Doubly Occupied:

       1A    -79.675546     2A    -20.203611     3A    -20.118919
       4A    -20.118495     5A    -20.116656     6A    -10.981536
       7A    -10.964356     8A    -10.937445     9A     -7.189759
      10A     -5.089242    11A     -5.086740    12A     -5.086679
      13A     -1.014834    14A     -0.929268    15A     -0.860646
      16A     -0.859886    17A     -0.751028    18A     -0.668379
      19A     -0.501177    20A     -0.391051    21A     -0.349963
      22A     -0.320303    23A     -0.306144    24A     -0.261247
      25A     -0.247826    26A     -0.237468    27A     -0.227748
      28A     -0.191603    29A     -0.181521    30A     -0.155868
      31A     -0.116844    32A     -0.094956    33A     -0.091995
      34A     -0.083027    35A     -0.057721    36A     -0.050579
      37A     -0.026857

  @DF-RHF Final Energy:  -758.05050395059800

   => Energetics <=

    Nuclear Repulsion Energy =            503.4018769256330756
    One-Electron Energy =               -2073.8109131116129902
    Two-Electron Energy =                 812.3585322353818583
    Total Energy =                       -758.0505039505979994
  Basis Set: (AUG-CC-PVTZ AUX)
    Blend: AUG-CC-PVTZ-RI
    Molecular point group: c1

    Geometry (in Angstrom), charge = -2, multiplicity = 1:

       Center              X                  Y                   Z               Mass
    ------------   -----------------  -----------------  -----------------  -----------------
         P            1.105558490645    -0.012402619397     0.037146632396    30.973761998420
         O           -0.512447509355    -0.378349619397    -0.687019367604    15.994914619570
         O            2.020419490645    -0.511040619397    -1.085161367604    15.994914619570
         O            1.067994490645    -0.843128619397     1.334336632396    15.994914619570
         O            1.035335490645     1.517866380603     0.243118632396    15.994914619570
         C           -1.568765509355    -0.056379619397     0.172510632396    12.000000000000
         C           -2.031385509355     1.382868380603    -0.071205367604    12.000000000000
         C           -2.681340409355    -1.096758319397     0.031916732396    12.000000000000
         H           -1.239235509355    -0.148407619397     1.219382632396     1.007825032230
         H           -2.827349509355     1.698297380603     0.624650632396     1.007825032230
         H           -1.133783509355     1.996270380603     0.050046632396     1.007825032230
         H           -2.407876509355     1.478317380603    -1.099433367604     1.007825032230
         H           -3.578961509355    -0.872542619397     0.553718632396     1.007825032230
         H           -2.319691509355    -2.074199619397     0.139017632396     1.007825032230
         H           -2.991873509355    -1.025232619397    -1.124837367604     1.007825032230

  Basis Set: AUG-CC-PVTZ
    Blend: AUG-CC-PVTZ
  Basis Set: (AUG-CC-PVTZ AUX)
    Blend: AUG-CC-PVTZ-JKFIT
	 Reference Energy          =    -758.0505039505979994 [Eh]
	 Singles Energy            =      -0.0000000000000000 [Eh]
	 Same-Spin Energy          =      -0.4698822168050106 [Eh]
	 Opposite-Spin Energy      =      -1.4036128731256707 [Eh]
	 Correlation Energy        =      -1.8734950899306813 [Eh]
	 Total Energy              =    -759.9239990405286562 [Eh]

	 ================> DF-SCS-MP2 Energies <==================
	-----------------------------------------------------------
	 SCS Same-Spin Scale       =       0.3333333333333333 [-]
	 SCS Opposite-Spin Scale   =       1.2000000000000000 [-]
	 SCS Same-Spin Energy      =      -0.1566274056016702 [Eh]
	 SCS Opposite-Spin Energy  =      -1.6843354477508048 [Eh]
	 SCS Correlation Energy    =      -1.8409628533524749 [Eh]
	 SCS Total Energy          =    -759.8914668039504932 [Eh]
	-----------------------------------------------------------

  Dipole Moment: [D]
     X:    -8.1872      Y:     0.0788      Z:     0.2632     Total:     8.1918

*** Psi4 exiting successfully. Buy a developer a beer!
