                               Psi4 1.4a3.dev225

  ==> Input File <==

--------------------------------------------------------------------------
#psi4
#
memory 32 gb

molecule  {
-2 1
  P        1.2274490    -0.0222580     0.0433940
  O       -0.3905570    -0.3882050    -0.6807720
  O        2.1423100    -0.5208960    -1.0789140
  O        1.1898850    -0.8529840     1.3405840
  O        1.1563174     1.5278118     0.2520312
  C       -1.4468750    -0.0662350     0.1787580
  C       -1.9094950     1.3730130    -0.0649580
  C       -2.5698170    -1.0762850    -0.0636830
  H       -1.1173450    -0.1582630     1.2256300
  H       -2.7054590     1.6884420     0.6308980
  H       -1.0118930     1.9864150     0.0562940
  H       -2.2859860     1.4684620    -1.0931860
  H       -3.4570710    -0.8823980     0.5599660
  H       -2.1978010    -2.0840550     0.1452650
  H       -2.8699830    -1.0350880    -1.1185900
units angstrom
no_reorient  #important for SAPT in psi4, default
symmetry c1  #important for SAPT in psi4, default
}

set PROPERTIES_ORIGIN ["COM"]
properties('MP2/aug-cc-pvtz', properties = ['dipole'])
--------------------------------------------------------------------------

    Molecular point group: c1
  Charge       = -2
  Multiplicity = 1
  Basis Set: AUG-CC-PVTZ
    Blend: AUG-CC-PVTZ
  Basis Set: (AUG-CC-PVTZ AUX)
    Blend: AUG-CC-PVTZ-JKFIT

    Orbital Energies [Eh]
    ---------------------

    Doubly Occupied:

       1A    -79.678696     2A    -20.203758     3A    -20.120266
       4A    -20.119649     5A    -20.118178     6A    -10.981011
       7A    -10.961896     8A    -10.935665     9A     -7.192344
      10A     -5.091853    11A     -5.089371    12A     -5.089184
      13A     -1.015264    14A     -0.927660    15A     -0.861838
      16A     -0.856024    17A     -0.750229    18A     -0.666003
      19A     -0.500834    20A     -0.393386    21A     -0.335758
      22A     -0.317666    23A     -0.303699    24A     -0.276827
      25A     -0.244353    26A     -0.243919    27A     -0.225000
      28A     -0.189204    29A     -0.182059    30A     -0.161225
      31A     -0.115328    32A     -0.094629    33A     -0.091532
      34A     -0.082339    35A     -0.058604    36A     -0.049614
      37A     -0.027388

  @DF-RHF Final Energy:  -758.05928005224462

   => Energetics <=

    Nuclear Repulsion Energy =            502.7522408229652910
    One-Electron Energy =               -2072.5185422071704124
    Two-Electron Energy =                 811.7070213319606182
    Total Energy =                       -758.0592800522446169
  Basis Set: (AUG-CC-PVTZ AUX)
    Blend: AUG-CC-PVTZ-RI
    Molecular point group: c1

    Geometry (in Angstrom), charge = -2, multiplicity = 1:

       Center              X                  Y                   Z               Mass
    ------------   -----------------  -----------------  -----------------  -----------------
         P            1.106565229257    -0.017334620007     0.045693483890    30.973761998420
         O           -0.511440770743    -0.383281620007    -0.678472516110    15.994914619570
         O            2.021426229257    -0.515972620007    -1.076614516110    15.994914619570
         O            1.069001229257    -0.848060620007     1.342883483890    15.994914619570
         O            1.035433629257     1.532735179993     0.254330683890    15.994914619570
         C           -1.567758770743    -0.061311620007     0.181057483890    12.000000000000
         C           -2.030378770743     1.377936379993    -0.062658516110    12.000000000000
         C           -2.690700770743    -1.071361620007    -0.061383516110    12.000000000000
         H           -1.238228770743    -0.153339620007     1.227929483890     1.007825032230
         H           -2.826342770743     1.693365379993     0.633197483890     1.007825032230
         H           -1.132776770743     1.991338379993     0.058593483890     1.007825032230
         H           -2.406869770743     1.473385379993    -1.090886516110     1.007825032230
         H           -3.577954770743    -0.877474620007     0.562265483890     1.007825032230
         H           -2.318684770743    -2.079131620007     0.147564483890     1.007825032230
         H           -2.990866770743    -1.030164620007    -1.116290516110     1.007825032230

  Basis Set: AUG-CC-PVTZ
    Blend: AUG-CC-PVTZ
  Basis Set: (AUG-CC-PVTZ AUX)
    Blend: AUG-CC-PVTZ-JKFIT
	 Reference Energy          =    -758.0592800522446169 [Eh]
	 Singles Energy            =      -0.0000000000000000 [Eh]
	 Same-Spin Energy          =      -0.4700651633836629 [Eh]
	 Opposite-Spin Energy      =      -1.4041174252579198 [Eh]
	 Correlation Energy        =      -1.8741825886415828 [Eh]
	 Total Energy              =    -759.9334626408862050 [Eh]

	 ================> DF-SCS-MP2 Energies <==================
	-----------------------------------------------------------
	 SCS Same-Spin Scale       =       0.3333333333333333 [-]
	 SCS Opposite-Spin Scale   =       1.2000000000000000 [-]
	 SCS Same-Spin Energy      =      -0.1566883877945543 [Eh]
	 SCS Opposite-Spin Energy  =      -1.6849409103095037 [Eh]
	 SCS Correlation Energy    =      -1.8416292981040581 [Eh]
	 SCS Total Energy          =    -759.9009093503486838 [Eh]
	-----------------------------------------------------------

  Dipole Moment: [D]
     X:    -8.2315      Y:    -0.0480      Z:     0.0406     Total:     8.2317

*** Psi4 exiting successfully. Buy a developer a beer!
