                               Psi4 1.4a3.dev225

  ==> Input File <==

--------------------------------------------------------------------------
#psi4
#
memory 32 gb

molecule  {
-2 1
  P        1.2274490    -0.0222580     0.0433940
  O       -0.3905570    -0.3882050    -0.6807720
  O        2.1423100    -0.5208960    -1.0789140
  O        1.1898850    -0.8529840     1.3405840
  O        1.1572260     1.5080110     0.2493660
  C       -1.4468750    -0.0662350     0.1787580
  C       -1.9094950     1.3730130    -0.0649580
  C       -2.5844989    -1.0894909    -0.0668528
  H       -1.1173450    -0.1582630     1.2256300
  H       -2.7054590     1.6884420     0.6308980
  H       -1.0118930     1.9864150     0.0562940
  H       -2.2859860     1.4684620    -1.0931860
  H       -3.4570710    -0.8823980     0.5599660
  H       -2.1978010    -2.0840550     0.1452650
  H       -2.8699830    -1.0350880    -1.1185900
units angstrom
no_reorient  #important for SAPT in psi4, default
symmetry c1  #important for SAPT in psi4, default
}

set PROPERTIES_ORIGIN ["COM"]
properties('MP2/aug-cc-pvtz', properties = ['dipole'])
--------------------------------------------------------------------------

    Molecular point group: c1
  Charge       = -2
  Multiplicity = 1
  Basis Set: AUG-CC-PVTZ
    Blend: AUG-CC-PVTZ
  Basis Set: (AUG-CC-PVTZ AUX)
    Blend: AUG-CC-PVTZ-JKFIT

    Orbital Energies [Eh]
    ---------------------

    Doubly Occupied:

       1A    -79.675241     2A    -20.202558     3A    -20.118794
       4A    -20.118453     5A    -20.116396     6A    -10.981998
       7A    -10.960083     8A    -10.936057     9A     -7.189459
      10A     -5.088932    11A     -5.086448    12A     -5.086386
      13A     -1.014332    14A     -0.929063    15A     -0.860462
      16A     -0.859799    17A     -0.747899    18A     -0.666484
      19A     -0.499827    20A     -0.392007    21A     -0.335724
      22A     -0.316115    23A     -0.304591    24A     -0.278772
      25A     -0.244999    26A     -0.244003    27A     -0.224347
      28A     -0.189716    29A     -0.181941    30A     -0.160623
      31A     -0.115036    32A     -0.094778    33A     -0.091837
      34A     -0.082400    35A     -0.057611    36A     -0.050127
      37A     -0.026721

  @DF-RHF Final Energy:  -758.06105408246424

   => Energetics <=

    Nuclear Repulsion Energy =            503.1866768684515705
    One-Electron Energy =               -2073.4354236847934772
    Two-Electron Energy =                 812.1876927338777250
    Total Energy =                       -758.0610540824642385
  Basis Set: (AUG-CC-PVTZ AUX)
    Blend: AUG-CC-PVTZ-RI
    Molecular point group: c1

    Geometry (in Angstrom), charge = -2, multiplicity = 1:

       Center              X                  Y                   Z               Mass
    ------------   -----------------  -----------------  -----------------  -----------------
         P            1.107736535206    -0.013891470105     0.046277994440    30.973761998420
         O           -0.510269464794    -0.379838470105    -0.677888005560    15.994914619570
         O            2.022597535206    -0.512529470105    -1.076030005560    15.994914619570
         O            1.070172535206    -0.844617470105     1.343467994440    15.994914619570
         O            1.037513535206     1.516377529895     0.252249994440    15.994914619570
         C           -1.566587464794    -0.057868470105     0.181641994440    12.000000000000
         C           -2.029207464794     1.381379529895    -0.062074005560    12.000000000000
         C           -2.704211364794    -1.081124370105    -0.063968805560    12.000000000000
         H           -1.237057464794    -0.149896470105     1.228513994440     1.007825032230
         H           -2.825171464794     1.696808529895     0.633781994440     1.007825032230
         H           -1.131605464794     1.994781529895     0.059177994440     1.007825032230
         H           -2.405698464794     1.476828529895    -1.090302005560     1.007825032230
         H           -3.576783464794    -0.874031470105     0.562849994440     1.007825032230
         H           -2.317513464794    -2.075688470105     0.148148994440     1.007825032230
         H           -2.989695464794    -1.026721470105    -1.115706005560     1.007825032230

  Basis Set: AUG-CC-PVTZ
    Blend: AUG-CC-PVTZ
  Basis Set: (AUG-CC-PVTZ AUX)
    Blend: AUG-CC-PVTZ-JKFIT
	 Reference Energy          =    -758.0610540824642385 [Eh]
	 Singles Energy            =      -0.0000000000000000 [Eh]
	 Same-Spin Energy          =      -0.4696151855020722 [Eh]
	 Opposite-Spin Energy      =      -1.4030780568102790 [Eh]
	 Correlation Energy        =      -1.8726932423123510 [Eh]
	 Total Energy              =    -759.9337473247766184 [Eh]

	 ================> DF-SCS-MP2 Energies <==================
	-----------------------------------------------------------
	 SCS Same-Spin Scale       =       0.3333333333333333 [-]
	 SCS Opposite-Spin Scale   =       1.2000000000000000 [-]
	 SCS Same-Spin Energy      =      -0.1565383951673574 [Eh]
	 SCS Opposite-Spin Energy  =      -1.6836936681723347 [Eh]
	 SCS Correlation Energy    =      -1.8402320633396920 [Eh]
	 SCS Total Energy          =    -759.9012861458039652 [Eh]
	-----------------------------------------------------------

  Dipole Moment: [D]
     X:    -8.2177      Y:     0.0956      Z:     0.0572     Total:     8.2185

*** Psi4 exiting successfully. Buy a developer a beer!
