                               Psi4 1.4a3.dev225

  ==> Input File <==

--------------------------------------------------------------------------
#psi4
#
memory 32 gb

molecule  {
-2 1
  P        1.2274490    -0.0222580     0.0433940
  O       -0.3905570    -0.3882050    -0.6807720
  O        2.1423100    -0.5208960    -1.0789140
  O        1.1898850    -0.8529840     1.3405840
  O        1.1572260     1.5080110     0.2493660
  C       -1.4468750    -0.0662350     0.1787580
  C       -1.9094950     1.3730130    -0.0649580
  C       -2.5698170    -1.0762850    -0.0636830
  H       -1.1113610    -0.1599342     1.2446405
  H       -2.7054590     1.6884420     0.6308980
  H       -1.0118930     1.9864150     0.0562940
  H       -2.2859860     1.4684620    -1.0931860
  H       -3.4570710    -0.8823980     0.5599660
  H       -2.1978010    -2.0840550     0.1452650
  H       -2.8699830    -1.0350880    -1.1185900
units angstrom
no_reorient  #important for SAPT in psi4, default
symmetry c1  #important for SAPT in psi4, default
}

set PROPERTIES_ORIGIN ["COM"]
properties('MP2/aug-cc-pvtz', properties = ['dipole'])
--------------------------------------------------------------------------

    Molecular point group: c1
  Charge       = -2
  Multiplicity = 1
  Basis Set: AUG-CC-PVTZ
    Blend: AUG-CC-PVTZ
  Basis Set: (AUG-CC-PVTZ AUX)
    Blend: AUG-CC-PVTZ-JKFIT

    Orbital Energies [Eh]
    ---------------------

    Doubly Occupied:

       1A    -79.675247     2A    -20.202832     3A    -20.118755
       4A    -20.118408     5A    -20.116414     6A    -10.982864
       7A    -10.961664     8A    -10.936090     9A     -7.189467
      10A     -5.088943    11A     -5.086455    12A     -5.086393
      13A     -1.014811    14A     -0.929200    15A     -0.860464
      16A     -0.859771    17A     -0.749549    18A     -0.666003
      19A     -0.497902    20A     -0.391407    21A     -0.335397
      22A     -0.317662    23A     -0.303104    24A     -0.276706
      25A     -0.243810    26A     -0.243535    27A     -0.224923
      28A     -0.189768    29A     -0.182250    30A     -0.160414
      31A     -0.114856    32A     -0.094696    33A     -0.091840
      34A     -0.082714    35A     -0.057581    36A     -0.050242
      37A     -0.026701

  @DF-RHF Final Energy:  -758.06060445881417

   => Energetics <=

    Nuclear Repulsion Energy =            503.4691309736968492
    One-Electron Energy =               -2074.0017979136096073
    Two-Electron Energy =                 812.4720624810986465
    Total Energy =                       -758.0606044588141685
  Basis Set: (AUG-CC-PVTZ AUX)
    Blend: AUG-CC-PVTZ-RI
    Molecular point group: c1

    Geometry (in Angstrom), charge = -2, multiplicity = 1:

       Center              X                  Y                   Z               Mass
    ------------   -----------------  -----------------  -----------------  -----------------
         P            1.106416225031    -0.015027536859     0.045863549070    30.973761998420
         O           -0.511589774969    -0.380974536859    -0.678302450930    15.994914619570
         O            2.021277225031    -0.513665536859    -1.076444450930    15.994914619570
         O            1.068852225031    -0.845753536859     1.343053549070    15.994914619570
         O            1.036193225031     1.515241463141     0.251835549070    15.994914619570
         C           -1.567907774969    -0.059004536859     0.181227549070    12.000000000000
         C           -2.030527774969     1.380243463141    -0.062488450930    12.000000000000
         C           -2.690849774969    -1.069054536859    -0.061213450930    12.000000000000
         H           -1.232393774969    -0.152703736859     1.247110049070     1.007825032230
         H           -2.826491774969     1.695672463141     0.633367549070     1.007825032230
         H           -1.132925774969     1.993645463141     0.058763549070     1.007825032230
         H           -2.407018774969     1.475692463141    -1.090716450930     1.007825032230
         H           -3.578103774969    -0.875167536859     0.562435549070     1.007825032230
         H           -2.318833774969    -2.076824536859     0.147734549070     1.007825032230
         H           -2.991015774969    -1.027857536859    -1.116120450930     1.007825032230

  Basis Set: AUG-CC-PVTZ
    Blend: AUG-CC-PVTZ
  Basis Set: (AUG-CC-PVTZ AUX)
    Blend: AUG-CC-PVTZ-JKFIT
	 Reference Energy          =    -758.0606044588141685 [Eh]
	 Singles Energy            =      -0.0000000000000000 [Eh]
	 Same-Spin Energy          =      -0.4697611845618958 [Eh]
	 Opposite-Spin Energy      =      -1.4033382201632991 [Eh]
	 Correlation Energy        =      -1.8730994047251950 [Eh]
	 Total Energy              =    -759.9337038635393355 [Eh]

	 ================> DF-SCS-MP2 Energies <==================
	-----------------------------------------------------------
	 SCS Same-Spin Scale       =       0.3333333333333333 [-]
	 SCS Opposite-Spin Scale   =       1.2000000000000000 [-]
	 SCS Same-Spin Energy      =      -0.1565870615206319 [Eh]
	 SCS Opposite-Spin Energy  =      -1.6840058641959590 [Eh]
	 SCS Correlation Energy    =      -1.8405929257165909 [Eh]
	 SCS Total Energy          =    -759.9011973845307466 [Eh]
	-----------------------------------------------------------

  Dipole Moment: [D]
     X:    -8.2135      Y:     0.0852      Z:     0.0465     Total:     8.2141

*** Psi4 exiting successfully. Buy a developer a beer!
