                               Psi4 1.4a3.dev225

  ==> Input File <==

--------------------------------------------------------------------------
#psi4
#
memory 32 gb

molecule  {
-2 1
  P        1.2274490    -0.0222580     0.0433940
  O       -0.3905570    -0.3882050    -0.6807720
  O        2.1423100    -0.5208960    -1.0789140
  O        1.1898850    -0.8529840     1.3405840
  O        1.1572260     1.5080110     0.2493660
  C       -1.4468750    -0.0662350     0.1787580
  C       -1.9094950     1.3730130    -0.0649580
  C       -2.5751013    -1.0216181    -0.2140854
  H       -1.1173450    -0.1582630     1.2256300
  H       -2.7054590     1.6884420     0.6308980
  H       -1.0118930     1.9864150     0.0562940
  H       -2.2859860     1.4684620    -1.0931860
  H       -3.4570710    -0.8823980     0.5599660
  H       -2.1978010    -2.0840550     0.1452650
  H       -2.8699830    -1.0350880    -1.1185900
units angstrom
no_reorient  #important for SAPT in psi4, default
symmetry c1  #important for SAPT in psi4, default
}

set PROPERTIES_ORIGIN ["COM"]
properties('MP2/aug-cc-pvtz', properties = ['dipole'])
--------------------------------------------------------------------------

    Molecular point group: c1
  Charge       = -2
  Multiplicity = 1
  Basis Set: AUG-CC-PVTZ
    Blend: AUG-CC-PVTZ
  Basis Set: (AUG-CC-PVTZ AUX)
    Blend: AUG-CC-PVTZ-JKFIT

    Orbital Energies [Eh]
    ---------------------

    Doubly Occupied:

       1A    -79.675383     2A    -20.202023     3A    -20.119195
       4A    -20.119174     5A    -20.116509     6A    -10.982967
       7A    -10.965479     8A    -10.934883     9A     -7.189624
      10A     -5.089084    11A     -5.086622    12A     -5.086562
      13A     -1.016170    14A     -0.929932    15A     -0.860765
      16A     -0.860342    17A     -0.752296    18A     -0.667420
      19A     -0.509157    20A     -0.394522    21A     -0.342635
      22A     -0.323372    23A     -0.293777    24A     -0.287754
      25A     -0.247790    26A     -0.234489    27A     -0.211190
      28A     -0.185792    29A     -0.183499    30A     -0.167842
      31A     -0.113442    32A     -0.095065    33A     -0.092208
      34A     -0.082417    35A     -0.058019    36A     -0.050405
      37A     -0.027128

  @DF-RHF Final Energy:  -758.03022700906820

   => Energetics <=

    Nuclear Repulsion Energy =            503.9215733003429136
    One-Electron Energy =               -2074.7937367814784011
    Two-Electron Energy =                 812.8419364720672320
    Total Energy =                       -758.0302270090681986
  Basis Set: (AUG-CC-PVTZ AUX)
    Blend: AUG-CC-PVTZ-RI
    Molecular point group: c1

    Geometry (in Angstrom), charge = -2, multiplicity = 1:

       Center              X                  Y                   Z               Mass
    ------------   -----------------  -----------------  -----------------  -----------------
         P            1.106919401126    -0.019793102221     0.059080068918    30.973761998420
         O           -0.511086598874    -0.385740102221    -0.665085931082    15.994914619570
         O            2.021780401126    -0.518431102221    -1.063227931082    15.994914619570
         O            1.069355401126    -0.850519102221     1.356270068918    15.994914619570
         O            1.036696401126     1.510475897779     0.265052068918    15.994914619570
         C           -1.567404598874    -0.063770102221     0.194444068918    12.000000000000
         C           -2.030024598874     1.375477897779    -0.049271931082    12.000000000000
         C           -2.695630898874    -1.019153202221    -0.198399331082    12.000000000000
         H           -1.237874598874    -0.155798102221     1.241316068918     1.007825032230
         H           -2.825988598874     1.690906897779     0.646584068918     1.007825032230
         H           -1.132422598874     1.988879897779     0.071980068918     1.007825032230
         H           -2.406515598874     1.470926897779    -1.077499931082     1.007825032230
         H           -3.577600598874    -0.879933102221     0.575652068918     1.007825032230
         H           -2.318330598874    -2.081590102221     0.160951068918     1.007825032230
         H           -2.990512598874    -1.032623102221    -1.102903931082     1.007825032230

  Basis Set: AUG-CC-PVTZ
    Blend: AUG-CC-PVTZ
  Basis Set: (AUG-CC-PVTZ AUX)
    Blend: AUG-CC-PVTZ-JKFIT
	 Reference Energy          =    -758.0302270090681986 [Eh]
	 Singles Energy            =      -0.0000000000000000 [Eh]
	 Same-Spin Energy          =      -0.4700243911022733 [Eh]
	 Opposite-Spin Energy      =      -1.4044127307842080 [Eh]
	 Correlation Energy        =      -1.8744371218864813 [Eh]
	 Total Energy              =    -759.9046641309546430 [Eh]

	 ================> DF-SCS-MP2 Energies <==================
	-----------------------------------------------------------
	 SCS Same-Spin Scale       =       0.3333333333333333 [-]
	 SCS Opposite-Spin Scale   =       1.2000000000000000 [-]
	 SCS Same-Spin Energy      =      -0.1566747970340911 [Eh]
	 SCS Opposite-Spin Energy  =      -1.6852952769410496 [Eh]
	 SCS Correlation Energy    =      -1.8419700739751408 [Eh]
	 SCS Total Energy          =    -759.8721970830433747 [Eh]
	-----------------------------------------------------------

  Dipole Moment: [D]
     X:    -8.1489      Y:     0.1664      Z:    -0.1962     Total:     8.1530

*** Psi4 exiting successfully. Buy a developer a beer!
