                               Psi4 1.4a3.dev225

  ==> Input File <==

--------------------------------------------------------------------------
#psi4
#
memory 32 gb

molecule  {
-2 1
  P        1.2274490    -0.0222580     0.0433940
  O       -0.3905570    -0.3882050    -0.6807720
  O        2.1423100    -0.5208960    -1.0789140
  O        1.1898850    -0.8529840     1.3405840
  O        1.1572260     1.5080110     0.2493660
  C       -1.2959056    -0.1122511     0.0559136
  C       -1.9094950     1.3730130    -0.0649580
  C       -2.5698170    -1.0762850    -0.0636830
  H       -1.1173450    -0.1582630     1.2256300
  H       -2.7054590     1.6884420     0.6308980
  H       -1.0118930     1.9864150     0.0562940
  H       -2.2859860     1.4684620    -1.0931860
  H       -3.4570710    -0.8823980     0.5599660
  H       -2.1978010    -2.0840550     0.1452650
  H       -2.8699830    -1.0350880    -1.1185900
units angstrom
no_reorient  #important for SAPT in psi4, default
symmetry c1  #important for SAPT in psi4, default
}

set PROPERTIES_ORIGIN ["COM"]
properties('MP2/aug-cc-pvtz', properties = ['dipole'])
--------------------------------------------------------------------------

    Molecular point group: c1
  Charge       = -2
  Multiplicity = 1
  Basis Set: AUG-CC-PVTZ
    Blend: AUG-CC-PVTZ
  Basis Set: (AUG-CC-PVTZ AUX)
    Blend: AUG-CC-PVTZ-JKFIT

    Orbital Energies [Eh]
    ---------------------

    Doubly Occupied:

       1A    -79.688462     2A    -20.223162     3A    -20.128619
       4A    -20.127668     5A    -20.126740     6A    -10.993193
       7A    -10.951475     8A    -10.925102     9A     -7.203086
      10A     -5.102814    11A     -5.099775    12A     -5.099708
      13A     -1.121352    14A     -0.946676    15A     -0.870533
      16A     -0.869029    17A     -0.724863    18A     -0.649209
      19A     -0.497361    20A     -0.422856    21A     -0.343289
      22A     -0.330198    23A     -0.303565    24A     -0.289120
      25A     -0.268969    26A     -0.252916    27A     -0.232091
      28A     -0.194532    29A     -0.191648    30A     -0.140958
      31A     -0.105892    32A     -0.101630    33A     -0.092238
      34A     -0.082386    35A     -0.065566    36A     -0.056071
      37A     -0.035484

  @DF-RHF Final Energy:  -758.01608766359959

   => Energetics <=

    Nuclear Repulsion Energy =            506.9380650765054952
    One-Electron Energy =               -2080.1918285664096402
    Two-Electron Energy =                 815.2376758263044394
    Total Energy =                       -758.0160876635995919
  Basis Set: (AUG-CC-PVTZ AUX)
    Blend: AUG-CC-PVTZ-RI
    Molecular point group: c1

    Geometry (in Angstrom), charge = -2, multiplicity = 1:

       Center              X                  Y                   Z               Mass
    ------------   -----------------  -----------------  -----------------  -----------------
         P            1.093332929754    -0.011038578667     0.056683863401    30.973761998420
         O           -0.524673070246    -0.376985578667    -0.667482136599    15.994914619570
         O            2.008193929754    -0.509676578667    -1.065624136599    15.994914619570
         O            1.055768929754    -0.841764578667     1.353873863401    15.994914619570
         O            1.023109929754     1.519230421333     0.262655863401    15.994914619570
         C           -1.430021670246    -0.101031678667     0.069203463401    12.000000000000
         C           -2.043611070246     1.384232421333    -0.051668136599    12.000000000000
         C           -2.703933070246    -1.065065578667    -0.050393136599    12.000000000000
         H           -1.251461070246    -0.147043578667     1.238919863401     1.007825032230
         H           -2.839575070246     1.699661421333     0.644187863401     1.007825032230
         H           -1.146009070246     1.997634421333     0.069583863401     1.007825032230
         H           -2.420102070246     1.479681421333    -1.079896136599     1.007825032230
         H           -3.591187070246    -0.871178578667     0.573255863401     1.007825032230
         H           -2.331917070246    -2.072835578667     0.158554863401     1.007825032230
         H           -3.004099070246    -1.023868578667    -1.105300136599     1.007825032230

  Basis Set: AUG-CC-PVTZ
    Blend: AUG-CC-PVTZ
  Basis Set: (AUG-CC-PVTZ AUX)
    Blend: AUG-CC-PVTZ-JKFIT
	 Reference Energy          =    -758.0160876635995919 [Eh]
	 Singles Energy            =      -0.0000000000000000 [Eh]
	 Same-Spin Energy          =      -0.4712932140732878 [Eh]
	 Opposite-Spin Energy      =      -1.4033430149044541 [Eh]
	 Correlation Energy        =      -1.8746362289777418 [Eh]
	 Total Energy              =    -759.8907238925772845 [Eh]

	 ================> DF-SCS-MP2 Energies <==================
	-----------------------------------------------------------
	 SCS Same-Spin Scale       =       0.3333333333333333 [-]
	 SCS Opposite-Spin Scale   =       1.2000000000000000 [-]
	 SCS Same-Spin Energy      =      -0.1570977380244293 [Eh]
	 SCS Opposite-Spin Energy  =      -1.6840116178853448 [Eh]
	 SCS Correlation Energy    =      -1.8411093559097740 [Eh]
	 SCS Total Energy          =    -759.8571970195093854 [Eh]
	-----------------------------------------------------------

  Dipole Moment: [D]
     X:    -6.7566      Y:    -0.1169      Z:    -0.2455     Total:     6.7621

*** Psi4 exiting successfully. Buy a developer a beer!
