                               Psi4 1.4a3.dev225

  ==> Input File <==

--------------------------------------------------------------------------
#psi4
#
memory 32 gb

molecule  {
-2 1
  P        1.2274490    -0.0222580     0.0433940
  O       -0.3905570    -0.3882050    -0.6807720
  O        2.1423100    -0.5208960    -1.0789140
  O        1.1898850    -0.8529840     1.3405840
  O        1.1572260     1.5080110     0.2493660
  C       -1.4468750    -0.0662350     0.1787580
  C       -1.9094950     1.3730130    -0.0649580
  C       -2.5698170    -1.0762850    -0.0636830
  H       -1.0874248    -0.1666188     1.3206824
  H       -2.7054590     1.6884420     0.6308980
  H       -1.0118930     1.9864150     0.0562940
  H       -2.2859860     1.4684620    -1.0931860
  H       -3.4570710    -0.8823980     0.5599660
  H       -2.1978010    -2.0840550     0.1452650
  H       -2.8699830    -1.0350880    -1.1185900
units angstrom
no_reorient  #important for SAPT in psi4, default
symmetry c1  #important for SAPT in psi4, default
}

set PROPERTIES_ORIGIN ["COM"]
properties('MP2/aug-cc-pvtz', properties = ['dipole'])
--------------------------------------------------------------------------

    Molecular point group: c1
  Charge       = -2
  Multiplicity = 1
  Basis Set: AUG-CC-PVTZ
    Blend: AUG-CC-PVTZ
  Basis Set: (AUG-CC-PVTZ AUX)
    Blend: AUG-CC-PVTZ-JKFIT

    Orbital Energies [Eh]
    ---------------------

    Doubly Occupied:

       1A    -79.675636     2A    -20.204823     3A    -20.118922
       4A    -20.118431     5A    -20.116806     6A    -10.991761
       7A    -10.962257     8A    -10.936810     9A     -7.189866
      10A     -5.089356    11A     -5.086843    12A     -5.086779
      13A     -1.015647    14A     -0.929511    15A     -0.860766
      16A     -0.859920    17A     -0.748592    18A     -0.666329
      19A     -0.489647    20A     -0.386832    21A     -0.335318
      22A     -0.318278    23A     -0.303340    24A     -0.276707
      25A     -0.244519    26A     -0.241904    27A     -0.225485
      28A     -0.190004    29A     -0.181891    30A     -0.155454
      31A     -0.113405    32A     -0.094577    33A     -0.092117
      34A     -0.082904    35A     -0.057677    36A     -0.050602
      37A     -0.026864

  @DF-RHF Final Energy:  -758.05444867257370

   => Energetics <=

    Nuclear Repulsion Energy =            503.1108711635653776
    One-Electron Energy =               -2073.2774787962089249
    Two-Electron Energy =                 812.1121589600697916
    Total Energy =                       -758.0544486725736988
  Basis Set: (AUG-CC-PVTZ AUX)
    Blend: AUG-CC-PVTZ-RI
    Molecular point group: c1

    Geometry (in Angstrom), charge = -2, multiplicity = 1:

       Center              X                  Y                   Z               Mass
    ------------   -----------------  -----------------  -----------------  -----------------
         P            1.106241427430    -0.014978721590     0.045308241974    30.973761998420
         O           -0.511764572570    -0.380925721590    -0.678857758026    15.994914619570
         O            2.021102427430    -0.513616721590    -1.076999758026    15.994914619570
         O            1.068677427430    -0.845704721590     1.342498241974    15.994914619570
         O            1.036018427430     1.515290278410     0.251280241974    15.994914619570
         C           -1.568082572570    -0.058955721590     0.180672241974    12.000000000000
         C           -2.030702572570     1.380292278410    -0.063043758026    12.000000000000
         C           -2.691024572570    -1.069005721590    -0.061768758026    12.000000000000
         H           -1.208632372570    -0.159339521590     1.322596641974     1.007825032230
         H           -2.826666572570     1.695721278410     0.632812241974     1.007825032230
         H           -1.133100572570     1.993694278410     0.058208241974     1.007825032230
         H           -2.407193572570     1.475741278410    -1.091271758026     1.007825032230
         H           -3.578278572570    -0.875118721590     0.561880241974     1.007825032230
         H           -2.319008572570    -2.076775721590     0.147179241974     1.007825032230
         H           -2.991190572570    -1.027808721590    -1.116675758026     1.007825032230

  Basis Set: AUG-CC-PVTZ
    Blend: AUG-CC-PVTZ
  Basis Set: (AUG-CC-PVTZ AUX)
    Blend: AUG-CC-PVTZ-JKFIT
	 Reference Energy          =    -758.0544486725736988 [Eh]
	 Singles Energy            =      -0.0000000000000000 [Eh]
	 Same-Spin Energy          =      -0.4701070573278675 [Eh]
	 Opposite-Spin Energy      =      -1.4042701909150472 [Eh]
	 Correlation Energy        =      -1.8743772482429146 [Eh]
	 Total Energy              =    -759.9288259208166210 [Eh]

	 ================> DF-SCS-MP2 Energies <==================
	-----------------------------------------------------------
	 SCS Same-Spin Scale       =       0.3333333333333333 [-]
	 SCS Opposite-Spin Scale   =       1.2000000000000000 [-]
	 SCS Same-Spin Energy      =      -0.1567023524426225 [Eh]
	 SCS Opposite-Spin Energy  =      -1.6851242290980566 [Eh]
	 SCS Correlation Energy    =      -1.8418265815406791 [Eh]
	 SCS Total Energy          =    -759.8962752541143573 [Eh]
	-----------------------------------------------------------

  Dipole Moment: [D]
     X:    -8.1630      Y:     0.0830      Z:    -0.0076     Total:     8.1634

*** Psi4 exiting successfully. Buy a developer a beer!
