                               Psi4 1.4a3.dev225

  ==> Input File <==

--------------------------------------------------------------------------
#psi4
#
memory 32 gb

molecule  {
-2 1
  P        1.2274490    -0.0222580     0.0433940
  O       -0.3905570    -0.3882050    -0.6807720
  O        2.1423100    -0.5208960    -1.0789140
  O        1.1898850    -0.8529840     1.3405840
  O        1.1572260     1.5080110     0.2493660
  C       -1.4468750    -0.0662350     0.1787580
  C       -1.8943894     1.3260184    -0.0570001
  C       -2.5698170    -1.0762850    -0.0636830
  H       -1.1173450    -0.1582630     1.2256300
  H       -2.7054590     1.6884420     0.6308980
  H       -1.0118930     1.9864150     0.0562940
  H       -2.2859860     1.4684620    -1.0931860
  H       -3.4570710    -0.8823980     0.5599660
  H       -2.1978010    -2.0840550     0.1452650
  H       -2.8699830    -1.0350880    -1.1185900
units angstrom
no_reorient  #important for SAPT in psi4, default
symmetry c1  #important for SAPT in psi4, default
}

set PROPERTIES_ORIGIN ["COM"]
properties('MP2/aug-cc-pvtz', properties = ['dipole'])
--------------------------------------------------------------------------

    Molecular point group: c1
  Charge       = -2
  Multiplicity = 1
  Basis Set: AUG-CC-PVTZ
    Blend: AUG-CC-PVTZ
  Basis Set: (AUG-CC-PVTZ AUX)
    Blend: AUG-CC-PVTZ-JKFIT

    Orbital Energies [Eh]
    ---------------------

    Doubly Occupied:

       1A    -79.675143     2A    -20.202012     3A    -20.118624
       4A    -20.118398     5A    -20.116297     6A    -10.977388
       7A    -10.961278     8A    -10.939031     9A     -7.189357
      10A     -5.088829    11A     -5.086348    12A     -5.086286
      13A     -1.015727    14A     -0.929422    15A     -0.860374
      16A     -0.859722    17A     -0.754780    18A     -0.666645
      19A     -0.500462    20A     -0.393791    21A     -0.339052
      22A     -0.318219    23A     -0.302696    24A     -0.273149
      25A     -0.246859    26A     -0.239640    27A     -0.220385
      28A     -0.191566    29A     -0.181884    30A     -0.160569
      31A     -0.118518    32A     -0.094674    33A     -0.091751
      34A     -0.082468    35A     -0.057558    36A     -0.050207
      37A     -0.026614

  @DF-RHF Final Energy:  -758.05867457624527

   => Energetics <=

    Nuclear Repulsion Energy =            504.4967867895683753
    One-Electron Energy =               -2076.0394788160074313
    Two-Electron Energy =                 813.4840174501937327
    Total Energy =                       -758.0586745762452665
  Basis Set: (AUG-CC-PVTZ AUX)
    Blend: AUG-CC-PVTZ-RI
    Molecular point group: c1

    Geometry (in Angstrom), charge = -2, multiplicity = 1:

       Center              X                  Y                   Z               Mass
    ------------   -----------------  -----------------  -----------------  -----------------
         P            1.105146471636    -0.010953496763     0.045310425816    30.973761998420
         O           -0.512859528364    -0.376900496763    -0.678855574184    15.994914619570
         O            2.020007471636    -0.509591496763    -1.076997574184    15.994914619570
         O            1.067582471636    -0.841679496763     1.342500425816    15.994914619570
         O            1.034923471636     1.519315503237     0.251282425816    15.994914619570
         C           -1.569177528364    -0.054930496763     0.180674425816    12.000000000000
         C           -2.016691928364     1.337322903237    -0.055083674184    12.000000000000
         C           -2.692119528364    -1.064980496763    -0.061766574184    12.000000000000
         H           -1.239647528364    -0.146958496763     1.227546425816     1.007825032230
         H           -2.827761528364     1.699746503237     0.632814425816     1.007825032230
         H           -1.134195528364     1.997719503237     0.058210425816     1.007825032230
         H           -2.408288528364     1.479766503237    -1.091269574184     1.007825032230
         H           -3.579373528364    -0.871093496763     0.561882425816     1.007825032230
         H           -2.320103528364    -2.072750496763     0.147181425816     1.007825032230
         H           -2.992285528364    -1.023783496763    -1.116673574184     1.007825032230

  Basis Set: AUG-CC-PVTZ
    Blend: AUG-CC-PVTZ
  Basis Set: (AUG-CC-PVTZ AUX)
    Blend: AUG-CC-PVTZ-JKFIT
	 Reference Energy          =    -758.0586745762452665 [Eh]
	 Singles Energy            =      -0.0000000000000000 [Eh]
	 Same-Spin Energy          =      -0.4699888562530924 [Eh]
	 Opposite-Spin Energy      =      -1.4034303610594763 [Eh]
	 Correlation Energy        =      -1.8734192173125688 [Eh]
	 Total Energy              =    -759.9320937935577831 [Eh]

	 ================> DF-SCS-MP2 Energies <==================
	-----------------------------------------------------------
	 SCS Same-Spin Scale       =       0.3333333333333333 [-]
	 SCS Opposite-Spin Scale   =       1.2000000000000000 [-]
	 SCS Same-Spin Energy      =      -0.1566629520843641 [Eh]
	 SCS Opposite-Spin Energy  =      -1.6841164332713714 [Eh]
	 SCS Correlation Energy    =      -1.8407793853557355 [Eh]
	 SCS Total Energy          =    -759.8994539616010115 [Eh]
	-----------------------------------------------------------

  Dipole Moment: [D]
     X:    -8.2053      Y:     0.1046      Z:     0.0633     Total:     8.2062

*** Psi4 exiting successfully. Buy a developer a beer!
