                               Psi4 1.4a3.dev225

  ==> Input File <==

--------------------------------------------------------------------------
#psi4
#
memory 32 gb

molecule  {
-2 1
  P        1.2274490    -0.0222580     0.0433940
  O       -0.3905570    -0.3882050    -0.6807720
  O        2.1423100    -0.5208960    -1.0789140
  O        1.1898850    -0.8529840     1.3405840
  O        1.1572260     1.5080110     0.2493660
  C       -1.4468750    -0.0662350     0.1787580
  C       -1.9094950     1.3730130    -0.0649580
  C       -2.5698170    -1.0762850    -0.0636830
  H       -1.1173450    -0.1582630     1.2256300
  H       -2.5611711     1.6312628     0.5047571
  H       -1.0118930     1.9864150     0.0562940
  H       -2.2859860     1.4684620    -1.0931860
  H       -3.4570710    -0.8823980     0.5599660
  H       -2.1978010    -2.0840550     0.1452650
  H       -2.8699830    -1.0350880    -1.1185900
units angstrom
no_reorient  #important for SAPT in psi4, default
symmetry c1  #important for SAPT in psi4, default
}

set PROPERTIES_ORIGIN ["COM"]
properties('MP2/aug-cc-pvtz', properties = ['dipole'])
--------------------------------------------------------------------------

    Molecular point group: c1
  Charge       = -2
  Multiplicity = 1
  Basis Set: AUG-CC-PVTZ
    Blend: AUG-CC-PVTZ
  Basis Set: (AUG-CC-PVTZ AUX)
    Blend: AUG-CC-PVTZ-JKFIT

    Orbital Energies [Eh]
    ---------------------

    Doubly Occupied:

       1A    -79.673563     2A    -20.199077     3A    -20.117104
       4A    -20.117022     5A    -20.114904     6A    -10.977843
       7A    -10.961106     8A    -10.906977     9A     -7.187756
      10A     -5.087218    11A     -5.084759    12A     -5.084696
      13A     -1.011893    14A     -0.927493    15A     -0.858970
      16A     -0.858234    17A     -0.756952    18A     -0.680616
      19A     -0.506294    20A     -0.393477    21A     -0.341946
      22A     -0.330065    23A     -0.302185    24A     -0.281922
      25A     -0.246678    26A     -0.241094    27A     -0.223512
      28A     -0.187816    29A     -0.180912    30A     -0.160567
      31A     -0.112608    32A     -0.093281    33A     -0.090355
      34A     -0.080737    35A     -0.056108    36A     -0.048455
      37A     -0.025219

  @DF-RHF Final Energy:  -758.02935020040331

   => Energetics <=

    Nuclear Repulsion Energy =            504.6585132432434193
    One-Electron Energy =               -2076.3569025206556944
    Two-Electron Energy =                 813.6690390770090744
    Total Energy =                       -758.0293502004033144
  Basis Set: (AUG-CC-PVTZ AUX)
    Blend: AUG-CC-PVTZ-RI
    Molecular point group: c1

    Geometry (in Angstrom), charge = -2, multiplicity = 1:

       Center              X                  Y                   Z               Mass
    ------------   -----------------  -----------------  -----------------  -----------------
         P            1.105406240575    -0.014622181571     0.046923538396    30.973761998420
         O           -0.512599759425    -0.380569181571    -0.677242461604    15.994914619570
         O            2.020267240575    -0.513260181571    -1.075384461604    15.994914619570
         O            1.067842240575    -0.845348181571     1.344113538396    15.994914619570
         O            1.035183240575     1.515646818429     0.252895538396    15.994914619570
         C           -1.568917759425    -0.058599181571     0.182287538396    12.000000000000
         C           -2.031537759425     1.380648818429    -0.061428461604    12.000000000000
         C           -2.691859759425    -1.068649181571    -0.060153461604    12.000000000000
         H           -1.239387759425    -0.150627181571     1.229159538396     1.007825032230
         H           -2.683213859425     1.638898618429     0.508286638396     1.007825032230
         H           -1.133935759425     1.994050818429     0.059823538396     1.007825032230
         H           -2.408028759425     1.476097818429    -1.089656461604     1.007825032230
         H           -3.579113759425    -0.874762181571     0.563495538396     1.007825032230
         H           -2.319843759425    -2.076419181571     0.148794538396     1.007825032230
         H           -2.992025759425    -1.027452181571    -1.115060461604     1.007825032230

  Basis Set: AUG-CC-PVTZ
    Blend: AUG-CC-PVTZ
  Basis Set: (AUG-CC-PVTZ AUX)
    Blend: AUG-CC-PVTZ-JKFIT
	 Reference Energy          =    -758.0293502004033144 [Eh]
	 Singles Energy            =      -0.0000000000000000 [Eh]
	 Same-Spin Energy          =      -0.4699389965188986 [Eh]
	 Opposite-Spin Energy      =      -1.4025960835553790 [Eh]
	 Correlation Energy        =      -1.8725350800742775 [Eh]
	 Total Energy              =    -759.9018852804775861 [Eh]

	 ================> DF-SCS-MP2 Energies <==================
	-----------------------------------------------------------
	 SCS Same-Spin Scale       =       0.3333333333333333 [-]
	 SCS Opposite-Spin Scale   =       1.2000000000000000 [-]
	 SCS Same-Spin Energy      =      -0.1566463321729662 [Eh]
	 SCS Opposite-Spin Energy  =      -1.6831153002664547 [Eh]
	 SCS Correlation Energy    =      -1.8397616324394208 [Eh]
	 SCS Total Energy          =    -759.8691118328426910 [Eh]
	-----------------------------------------------------------

  Dipole Moment: [D]
     X:    -8.4503      Y:     0.2171      Z:     0.1713     Total:     8.4549

*** Psi4 exiting successfully. Buy a developer a beer!
