                               Psi4 1.4a3.dev225

  ==> Input File <==

--------------------------------------------------------------------------
#psi4
#
memory 32 gb

molecule  {
-2 1
  P        1.2274490    -0.0222580     0.0433940
  O       -0.3905570    -0.3882050    -0.6807720
  O        2.1423100    -0.5208960    -1.0789140
  O        1.1898850    -0.8529840     1.3405840
  O        1.1572260     1.5080110     0.2493660
  C       -1.4468750    -0.0662350     0.1787580
  C       -1.8490727     1.1850345    -0.0331265
  C       -2.5698170    -1.0762850    -0.0636830
  H       -1.1173450    -0.1582630     1.2256300
  H       -2.7054590     1.6884420     0.6308980
  H       -1.0118930     1.9864150     0.0562940
  H       -2.2859860     1.4684620    -1.0931860
  H       -3.4570710    -0.8823980     0.5599660
  H       -2.1978010    -2.0840550     0.1452650
  H       -2.8699830    -1.0350880    -1.1185900
units angstrom
no_reorient  #important for SAPT in psi4, default
symmetry c1  #important for SAPT in psi4, default
}

set PROPERTIES_ORIGIN ["COM"]
properties('MP2/aug-cc-pvtz', properties = ['dipole'])
--------------------------------------------------------------------------

    Molecular point group: c1
  Charge       = -2
  Multiplicity = 1
  Basis Set: AUG-CC-PVTZ
    Blend: AUG-CC-PVTZ
  Basis Set: (AUG-CC-PVTZ AUX)
    Blend: AUG-CC-PVTZ-JKFIT

    Orbital Energies [Eh]
    ---------------------

    Doubly Occupied:

       1A    -79.675920     2A    -20.202919     3A    -20.119247
       4A    -20.118938     5A    -20.116958     6A    -10.967694
       7A    -10.961776     8A    -10.951311     9A     -7.190135
      10A     -5.089613    11A     -5.087120    12A     -5.087054
      13A     -1.022269    14A     -0.931586    15A     -0.861052
      16A     -0.860385    17A     -0.777234    18A     -0.671421
      19A     -0.498722    20A     -0.400753    21A     -0.354924
      22A     -0.324896    23A     -0.302991    24A     -0.269880
      25A     -0.259824    26A     -0.221728    27A     -0.203374
      28A     -0.194071    29A     -0.177677    30A     -0.153843
      31A     -0.124701    32A     -0.095142    33A     -0.092316
      34A     -0.082647    35A     -0.058336    36A     -0.050474
      37A     -0.027121

  @DF-RHF Final Energy:  -758.01460489771057

   => Energetics <=

    Nuclear Repulsion Energy =            507.4936538377216380
    One-Electron Energy =               -2081.8444161331781288
    Two-Electron Energy =                 816.3361573977458647
    Total Energy =                       -758.0146048977105693
  Basis Set: (AUG-CC-PVTZ AUX)
    Blend: AUG-CC-PVTZ-RI
    Molecular point group: c1

    Geometry (in Angstrom), charge = -2, multiplicity = 1:

       Center              X                  Y                   Z               Mass
    ------------   -----------------  -----------------  -----------------  -----------------
         P            1.101206123041     0.001305244766     0.043234583881    30.973761998420
         O           -0.516799876959    -0.364641755234    -0.680931416119    15.994914619570
         O            2.016067123041    -0.497332755234    -1.079073416119    15.994914619570
         O            1.063642123041    -0.829420755234     1.340424583881    15.994914619570
         O            1.030983123041     1.531574244766     0.249206583881    15.994914619570
         C           -1.573117876959    -0.042671755234     0.178598583881    12.000000000000
         C           -1.975315576959     1.208597744766    -0.033285916119    12.000000000000
         C           -2.696059876959    -1.052721755234    -0.063842416119    12.000000000000
         H           -1.243587876959    -0.134699755234     1.225470583881     1.007825032230
         H           -2.831701876959     1.712005244766     0.630738583881     1.007825032230
         H           -1.138135876959     2.009978244766     0.056134583881     1.007825032230
         H           -2.412228876959     1.492025244766    -1.093345416119     1.007825032230
         H           -3.583313876959    -0.858834755234     0.559806583881     1.007825032230
         H           -2.324043876959    -2.060491755234     0.145105583881     1.007825032230
         H           -2.996225876959    -1.011524755234    -1.118749416119     1.007825032230

  Basis Set: AUG-CC-PVTZ
    Blend: AUG-CC-PVTZ
  Basis Set: (AUG-CC-PVTZ AUX)
    Blend: AUG-CC-PVTZ-JKFIT
	 Reference Energy          =    -758.0146048977105693 [Eh]
	 Singles Energy            =      -0.0000000000000000 [Eh]
	 Same-Spin Energy          =      -0.4723995874280229 [Eh]
	 Opposite-Spin Energy      =      -1.4067261737967698 [Eh]
	 Correlation Energy        =      -1.8791257612247927 [Eh]
	 Total Energy              =    -759.8937306589353966 [Eh]

	 ================> DF-SCS-MP2 Energies <==================
	-----------------------------------------------------------
	 SCS Same-Spin Scale       =       0.3333333333333333 [-]
	 SCS Opposite-Spin Scale   =       1.2000000000000000 [-]
	 SCS Same-Spin Energy      =      -0.1574665291426743 [Eh]
	 SCS Opposite-Spin Energy  =      -1.6880714085561237 [Eh]
	 SCS Correlation Energy    =      -1.8455379376987979 [Eh]
	 SCS Total Energy          =    -759.8601428354094196 [Eh]
	-----------------------------------------------------------

  Dipole Moment: [D]
     X:    -8.0306      Y:     0.0305      Z:     0.1064     Total:     8.0313

*** Psi4 exiting successfully. Buy a developer a beer!
