                               Psi4 1.4a3.dev225

  ==> Input File <==

--------------------------------------------------------------------------
#psi4
#
memory 32 gb

molecule  {
-2 1
  P        1.2274490    -0.0222580     0.0433940
  O       -0.3905570    -0.3882050    -0.6807720
  O        2.1423100    -0.5208960    -1.0789140
  O        1.1898850    -0.8529840     1.3405840
  O        1.1572260     1.5080110     0.2493660
  C       -1.4468750    -0.0662350     0.1787580
  C       -1.9094950     1.3730130    -0.0649580
  C       -2.5698170    -1.0762850    -0.0636830
  H       -1.1173450    -0.1582630     1.2256300
  H       -2.7054590     1.6884420     0.6308980
  H       -1.0118930     1.9864150     0.0562940
  H       -2.2859860     1.4684620    -1.0931860
  H       -3.4570710    -0.8823980     0.5599660
  H       -2.2657880    -1.8998822     0.1070792
  H       -2.8699830    -1.0350880    -1.1185900
units angstrom
no_reorient  #important for SAPT in psi4, default
symmetry c1  #important for SAPT in psi4, default
}

set PROPERTIES_ORIGIN ["COM"]
properties('MP2/aug-cc-pvtz', properties = ['dipole'])
--------------------------------------------------------------------------

    Molecular point group: c1
  Charge       = -2
  Multiplicity = 1
  Basis Set: AUG-CC-PVTZ
    Blend: AUG-CC-PVTZ
  Basis Set: (AUG-CC-PVTZ AUX)
    Blend: AUG-CC-PVTZ-JKFIT

    Orbital Energies [Eh]
    ---------------------

    Doubly Occupied:

       1A    -79.674923     2A    -20.202155     3A    -20.118329
       4A    -20.118296     5A    -20.116149     6A    -10.978678
       7A    -10.935639     8A    -10.933820     9A     -7.189142
      10A     -5.088614    11A     -5.086133    12A     -5.086071
      13A     -1.014408    14A     -0.928977    15A     -0.860205
      16A     -0.859481    17A     -0.760692    18A     -0.679376
      19A     -0.504114    20A     -0.393257    21A     -0.362760
      22A     -0.316012    23A     -0.303842    24A     -0.276553
      25A     -0.248169    26A     -0.242936    27A     -0.227681
      28A     -0.190323    29A     -0.181933    30A     -0.160705
      31A     -0.114406    32A     -0.094470    33A     -0.091578
      34A     -0.082231    35A     -0.057353    36A     -0.049772
      37A     -0.026437

  @DF-RHF Final Energy:  -758.02709854687907

   => Energetics <=

    Nuclear Repulsion Energy =            504.5288101895885688
    One-Electron Energy =               -2076.0005784138134004
    Two-Electron Energy =                 813.4446696773458143
    Total Energy =                       -758.0270985468790741
  Basis Set: (AUG-CC-PVTZ AUX)
    Blend: AUG-CC-PVTZ-RI
    Molecular point group: c1

    Geometry (in Angstrom), charge = -2, multiplicity = 1:

       Center              X                  Y                   Z               Mass
    ------------   -----------------  -----------------  -----------------  -----------------
         P            1.106956409076    -0.016384689848     0.046281233415    30.973761998420
         O           -0.511049590924    -0.382331689848    -0.677884766585    15.994914619570
         O            2.021817409076    -0.515022689848    -1.076026766585    15.994914619570
         O            1.069392409076    -0.847110689848     1.343471233415    15.994914619570
         O            1.036733409076     1.513884310152     0.252253233415    15.994914619570
         C           -1.567367590924    -0.060361689848     0.181645233415    12.000000000000
         C           -2.029987590924     1.378886310152    -0.062070766585    12.000000000000
         C           -2.690309590924    -1.070411689848    -0.060795766585    12.000000000000
         H           -1.237837590924    -0.152389689848     1.228517233415     1.007825032230
         H           -2.825951590924     1.694315310152     0.633785233415     1.007825032230
         H           -1.132385590924     1.992288310152     0.059181233415     1.007825032230
         H           -2.406478590924     1.474335310152    -1.090298766585     1.007825032230
         H           -3.577563590924    -0.876524689848     0.562853233415     1.007825032230
         H           -2.386280590924    -1.894008889848     0.109966433415     1.007825032230
         H           -2.990475590924    -1.029214689848    -1.115702766585     1.007825032230

  Basis Set: AUG-CC-PVTZ
    Blend: AUG-CC-PVTZ
  Basis Set: (AUG-CC-PVTZ AUX)
    Blend: AUG-CC-PVTZ-JKFIT
	 Reference Energy          =    -758.0270985468790741 [Eh]
	 Singles Energy            =      -0.0000000000000000 [Eh]
	 Same-Spin Energy          =      -0.4698066392202879 [Eh]
	 Opposite-Spin Energy      =      -1.4025565311511921 [Eh]
	 Correlation Energy        =      -1.8723631703714800 [Eh]
	 Total Energy              =    -759.8994617172505741 [Eh]

	 ================> DF-SCS-MP2 Energies <==================
	-----------------------------------------------------------
	 SCS Same-Spin Scale       =       0.3333333333333333 [-]
	 SCS Opposite-Spin Scale   =       1.2000000000000000 [-]
	 SCS Same-Spin Energy      =      -0.1566022130734293 [Eh]
	 SCS Opposite-Spin Energy  =      -1.6830678373814305 [Eh]
	 SCS Correlation Energy    =      -1.8396700504548598 [Eh]
	 SCS Total Energy          =    -759.8667685973339303 [Eh]
	-----------------------------------------------------------

  Dipole Moment: [D]
     X:    -8.2596      Y:    -0.0522      Z:     0.0744     Total:     8.2601

*** Psi4 exiting successfully. Buy a developer a beer!
