                               Psi4 1.4a3.dev225

  ==> Input File <==

--------------------------------------------------------------------------
#psi4
#
memory 32 gb

molecule  {
-2 1
  P        1.2274490    -0.0222580     0.0433940
  O       -0.3905570    -0.3882050    -0.6807720
  O        2.1423100    -0.5208960    -1.0789140
  O        1.1898850    -0.8529840     1.3405840
  O        1.1572260     1.5080110     0.2493660
  C       -1.4468750    -0.0662350     0.1787580
  C       -1.9094950     1.3730130    -0.0649580
  C       -2.5698170    -1.0762850    -0.0636830
  H       -1.1173450    -0.1582630     1.2256300
  H       -2.7054590     1.6884420     0.6308980
  H       -1.0118930     1.9864150     0.0562940
  H       -2.2859860     1.4684620    -1.0931860
  H       -3.3879781    -0.8947973     0.6514566
  H       -2.1978010    -2.0840550     0.1452650
  H       -2.8699830    -1.0350880    -1.1185900
units angstrom
no_reorient  #important for SAPT in psi4, default
symmetry c1  #important for SAPT in psi4, default
}

set PROPERTIES_ORIGIN ["COM"]
properties('MP2/aug-cc-pvtz', properties = ['dipole'])
--------------------------------------------------------------------------

    Molecular point group: c1
  Charge       = -2
  Multiplicity = 1
  Basis Set: AUG-CC-PVTZ
    Blend: AUG-CC-PVTZ
  Basis Set: (AUG-CC-PVTZ AUX)
    Blend: AUG-CC-PVTZ-JKFIT

    Orbital Energies [Eh]
    ---------------------

    Doubly Occupied:

       1A    -79.674961     2A    -20.201719     3A    -20.118585
       4A    -20.118282     5A    -20.116143     6A    -10.979926
       7A    -10.961454     8A    -10.935954     9A     -7.189176
      10A     -5.088645    11A     -5.086169    12A     -5.086108
      13A     -1.014242    14A     -0.928960    15A     -0.860238
      16A     -0.859609    17A     -0.750329    18A     -0.665917
      19A     -0.498692    20A     -0.394407    21A     -0.333521
      22A     -0.316604    23A     -0.304279    24A     -0.281035
      25A     -0.244671    26A     -0.239788    27A     -0.224662
      28A     -0.189609    29A     -0.181955    30A     -0.161310
      31A     -0.114776    32A     -0.094574    33A     -0.091629
      34A     -0.082161    35A     -0.057373    36A     -0.049946
      37A     -0.026525

  @DF-RHF Final Energy:  -758.06012733568764

   => Energetics <=

    Nuclear Repulsion Energy =            503.6507885057329190
    One-Electron Energy =               -2074.3739649998851746
    Two-Electron Energy =                 812.6630491584646734
    Total Energy =                       -758.0601273356876391
  Basis Set: (AUG-CC-PVTZ AUX)
    Blend: AUG-CC-PVTZ-RI
    Molecular point group: c1

    Geometry (in Angstrom), charge = -2, multiplicity = 1:

       Center              X                  Y                   Z               Mass
    ------------   -----------------  -----------------  -----------------  -----------------
         P            1.105955363059    -0.014949193339     0.045334252540    30.973761998420
         O           -0.512050636941    -0.380896193339    -0.678831747460    15.994914619570
         O            2.020816363059    -0.513587193339    -1.076973747460    15.994914619570
         O            1.068391363059    -0.845675193339     1.342524252540    15.994914619570
         O            1.035732363059     1.515319806661     0.251306252540    15.994914619570
         C           -1.568368636941    -0.058926193339     0.180698252540    12.000000000000
         C           -2.030988636941     1.380321806661    -0.063017747460    12.000000000000
         C           -2.691310636941    -1.068976193339    -0.061742747460    12.000000000000
         H           -1.238838636941    -0.150954193339     1.227570252540     1.007825032230
         H           -2.826952636941     1.695750806661     0.632838252540     1.007825032230
         H           -1.133386636941     1.993723806661     0.058234252540     1.007825032230
         H           -2.407479636941     1.475770806661    -1.091245747460     1.007825032230
         H           -3.509471736941    -0.887488493339     0.653396852540     1.007825032230
         H           -2.319294636941    -2.076746193339     0.147205252540     1.007825032230
         H           -2.991476636941    -1.027779193339    -1.116649747460     1.007825032230

  Basis Set: AUG-CC-PVTZ
    Blend: AUG-CC-PVTZ
  Basis Set: (AUG-CC-PVTZ AUX)
    Blend: AUG-CC-PVTZ-JKFIT
	 Reference Energy          =    -758.0601273356876391 [Eh]
	 Singles Energy            =      -0.0000000000000000 [Eh]
	 Same-Spin Energy          =      -0.4697588295290749 [Eh]
	 Opposite-Spin Energy      =      -1.4032528339351189 [Eh]
	 Correlation Energy        =      -1.8730116634641938 [Eh]
	 Total Energy              =    -759.9331389991518790 [Eh]

	 ================> DF-SCS-MP2 Energies <==================
	-----------------------------------------------------------
	 SCS Same-Spin Scale       =       0.3333333333333333 [-]
	 SCS Opposite-Spin Scale   =       1.2000000000000000 [-]
	 SCS Same-Spin Energy      =      -0.1565862765096916 [Eh]
	 SCS Opposite-Spin Energy  =      -1.6839034007221427 [Eh]
	 SCS Correlation Energy    =      -1.8404896772318344 [Eh]
	 SCS Total Energy          =    -759.9006170129194970 [Eh]
	-----------------------------------------------------------

  Dipole Moment: [D]
     X:    -8.2111      Y:     0.0757      Z:     0.0718     Total:     8.2117

*** Psi4 exiting successfully. Buy a developer a beer!
