                               Psi4 1.4a3.dev225

  ==> Input File <==

--------------------------------------------------------------------------
#psi4
#
memory 32 gb

molecule  {
-2 1
  P        1.2274490    -0.0222580     0.0433940
  O       -0.3458619    -0.3780962    -0.6607680
  O        2.1423100    -0.5208960    -1.0789140
  O        1.1898850    -0.8529840     1.3405840
  O        1.1572260     1.5080110     0.2493660
  C       -1.4468750    -0.0662350     0.1787580
  C       -1.9094950     1.3730130    -0.0649580
  C       -2.5698170    -1.0762850    -0.0636830
  H       -1.1173450    -0.1582630     1.2256300
  H       -2.7054590     1.6884420     0.6308980
  H       -1.0118930     1.9864150     0.0562940
  H       -2.2859860     1.4684620    -1.0931860
  H       -3.4570710    -0.8823980     0.5599660
  H       -2.1978010    -2.0840550     0.1452650
  H       -2.8699830    -1.0350880    -1.1185900
units angstrom
no_reorient  #important for SAPT in psi4, default
symmetry c1  #important for SAPT in psi4, default
}

set PROPERTIES_ORIGIN ["COM"]
properties('MP2/aug-cc-pvtz', properties = ['dipole'])
--------------------------------------------------------------------------

    Molecular point group: c1
  Charge       = -2
  Multiplicity = 1
  Basis Set: AUG-CC-PVTZ
    Blend: AUG-CC-PVTZ
  Basis Set: (AUG-CC-PVTZ AUX)
    Blend: AUG-CC-PVTZ-JKFIT

    Orbital Energies [Eh]
    ---------------------

    Doubly Occupied:

       1A    -79.669611     2A    -20.204613     3A    -20.114054
       4A    -20.113647     5A    -20.112066     6A    -10.985085
       7A    -10.965724     8A    -10.938546     9A     -7.184119
      10A     -5.083629    11A     -5.081197    12A     -5.081119
      13A     -1.016142    14A     -0.923633    15A     -0.856770
      16A     -0.855876    17A     -0.755661    18A     -0.668446
      19A     -0.504932    20A     -0.394758    21A     -0.338396
      22A     -0.318968    23A     -0.303848    24A     -0.279198
      25A     -0.246473    26A     -0.244622    27A     -0.226170
      28A     -0.188342    29A     -0.179988    30A     -0.160465
      31A     -0.118901    32A     -0.091221    33A     -0.088386
      34A     -0.082688    35A     -0.053312    36A     -0.046152
      37A     -0.022693

  @DF-RHF Final Energy:  -758.06268538053814

   => Energetics <=

    Nuclear Repulsion Energy =            504.6016655842443015
    One-Electron Energy =               -2076.3298001360199123
    Two-Electron Energy =                 813.6654491712374693
    Total Energy =                       -758.0626853805381415
  Basis Set: (AUG-CC-PVTZ AUX)
    Blend: AUG-CC-PVTZ-RI
    Molecular point group: c1

    Geometry (in Angstrom), charge = -2, multiplicity = 1:

       Center              X                  Y                   Z               Mass
    ------------   -----------------  -----------------  -----------------  -----------------
         P            1.101279838168    -0.016211333729     0.043683946527    30.973761998420
         O           -0.472031061832    -0.372049533729    -0.660478053473    15.994914619570
         O            2.016140838168    -0.514849333729    -1.078624053473    15.994914619570
         O            1.063715838168    -0.846937333729     1.340873946527    15.994914619570
         O            1.031056838168     1.514057666271     0.249655946527    15.994914619570
         C           -1.573044161832    -0.060188333729     0.179047946527    12.000000000000
         C           -2.035664161832     1.379059666271    -0.064668053473    12.000000000000
         C           -2.695986161832    -1.070238333729    -0.063393053473    12.000000000000
         H           -1.243514161832    -0.152216333729     1.225919946527     1.007825032230
         H           -2.831628161832     1.694488666271     0.631187946527     1.007825032230
         H           -1.138062161832     1.992461666271     0.056583946527     1.007825032230
         H           -2.412155161832     1.474508666271    -1.092896053473     1.007825032230
         H           -3.583240161832    -0.876351333729     0.560255946527     1.007825032230
         H           -2.323970161832    -2.078008333729     0.145554946527     1.007825032230
         H           -2.996152161832    -1.029041333729    -1.118300053473     1.007825032230

  Basis Set: AUG-CC-PVTZ
    Blend: AUG-CC-PVTZ
  Basis Set: (AUG-CC-PVTZ AUX)
    Blend: AUG-CC-PVTZ-JKFIT
	 Reference Energy          =    -758.0626853805381415 [Eh]
	 Singles Energy            =      -0.0000000000000000 [Eh]
	 Same-Spin Energy          =      -0.4691693893354563 [Eh]
	 Opposite-Spin Energy      =      -1.4020993182223063 [Eh]
	 Correlation Energy        =      -1.8712687075577625 [Eh]
	 Total Energy              =    -759.9339540880959021 [Eh]

	 ================> DF-SCS-MP2 Energies <==================
	-----------------------------------------------------------
	 SCS Same-Spin Scale       =       0.3333333333333333 [-]
	 SCS Opposite-Spin Scale   =       1.2000000000000000 [-]
	 SCS Same-Spin Energy      =      -0.1563897964451521 [Eh]
	 SCS Opposite-Spin Energy  =      -1.6825191818667675 [Eh]
	 SCS Correlation Energy    =      -1.8389089783119197 [Eh]
	 SCS Total Energy          =    -759.9015943588500477 [Eh]
	-----------------------------------------------------------

  Dipole Moment: [D]
     X:    -8.6099      Y:     0.0458      Z:    -0.0095     Total:     8.6100

*** Psi4 exiting successfully. Buy a developer a beer!
