                               Psi4 1.4a3.dev225

  ==> Input File <==

--------------------------------------------------------------------------
#psi4
#
memory 32 gb

molecule  {
-2 1
  P        1.2274490    -0.0222580     0.0433940
  O       -0.3905570    -0.3882050    -0.6807720
  O        2.1423100    -0.5208960    -1.0789140
  O        1.1898850    -0.8529840     1.3405840
  O        1.1572260     1.5080110     0.2493660
  C       -1.4468750    -0.0662350     0.1787580
  C       -1.9094950     1.3730130    -0.0649580
  C       -2.5698170    -1.0762850    -0.0636830
  H       -1.1173450    -0.1582630     1.2256300
  H       -2.6693870     1.6741472     0.5993628
  H       -1.0118930     1.9864150     0.0562940
  H       -2.2859860     1.4684620    -1.0931860
  H       -3.4570710    -0.8823980     0.5599660
  H       -2.1978010    -2.0840550     0.1452650
  H       -2.8699830    -1.0350880    -1.1185900
units angstrom
no_reorient  #important for SAPT in psi4, default
symmetry c1  #important for SAPT in psi4, default
}

set PROPERTIES_ORIGIN ["COM"]
properties('MP2/aug-cc-pvtz', properties = ['dipole'])
--------------------------------------------------------------------------

    Molecular point group: c1
  Charge       = -2
  Multiplicity = 1
  Basis Set: AUG-CC-PVTZ
    Blend: AUG-CC-PVTZ
  Basis Set: (AUG-CC-PVTZ AUX)
    Blend: AUG-CC-PVTZ-JKFIT

    Orbital Energies [Eh]
    ---------------------

    Doubly Occupied:

       1A    -79.674684     2A    -20.201407     3A    -20.118214
       4A    -20.118013     5A    -20.115902     6A    -10.979743
       7A    -10.961388     8A    -10.928652     9A     -7.188895
      10A     -5.088364    11A     -5.085888    12A     -5.085826
      13A     -1.013836    14A     -0.928645    15A     -0.859966
      16A     -0.859292    17A     -0.750870    18A     -0.668787
      19A     -0.501456    20A     -0.392490    21A     -0.335304
      22A     -0.321455    23A     -0.302838    24A     -0.278480
      25A     -0.244903    26A     -0.242947    27A     -0.224523
      28A     -0.189151    29A     -0.181955    30A     -0.161309
      31A     -0.114394    32A     -0.094284    33A     -0.091352
      34A     -0.082078    35A     -0.057116    36A     -0.049646
      37A     -0.026230

  @DF-RHF Final Energy:  -758.06029359928505

   => Energetics <=

    Nuclear Repulsion Energy =            503.8114803680791738
    One-Electron Energy =               -2074.7029825344361598
    Two-Electron Energy =                 812.8312085670719398
    Total Energy =                       -758.0602935992850462
  Basis Set: (AUG-CC-PVTZ AUX)
    Blend: AUG-CC-PVTZ-RI
    Molecular point group: c1

    Geometry (in Angstrom), charge = -2, multiplicity = 1:

       Center              X                  Y                   Z               Mass
    ------------   -----------------  -----------------  -----------------  -----------------
         P            1.106196503011    -0.014935351173     0.046232666436    30.973761998420
         O           -0.511809496989    -0.380882351173    -0.677933333564    15.994914619570
         O            2.021057503011    -0.513573351173    -1.076075333564    15.994914619570
         O            1.068632503011    -0.845661351173     1.343422666436    15.994914619570
         O            1.035973503011     1.515333648827     0.252204666436    15.994914619570
         C           -1.568127496989    -0.058912351173     0.181596666436    12.000000000000
         C           -2.030747496989     1.380335648827    -0.062119333564    12.000000000000
         C           -2.691069496989    -1.068962351173    -0.060844333564    12.000000000000
         H           -1.238597496989    -0.150940351173     1.228468666436     1.007825032230
         H           -2.790639496989     1.681469848827     0.602201466436     1.007825032230
         H           -1.133145496989     1.993737648827     0.059132666436     1.007825032230
         H           -2.407238496989     1.475784648827    -1.090347333564     1.007825032230
         H           -3.578323496989    -0.875075351173     0.562804666436     1.007825032230
         H           -2.319053496989    -2.076732351173     0.148103666436     1.007825032230
         H           -2.991235496989    -1.027765351173    -1.115751333564     1.007825032230

  Basis Set: AUG-CC-PVTZ
    Blend: AUG-CC-PVTZ
  Basis Set: (AUG-CC-PVTZ AUX)
    Blend: AUG-CC-PVTZ-JKFIT
	 Reference Energy          =    -758.0602935992850462 [Eh]
	 Singles Energy            =      -0.0000000000000000 [Eh]
	 Same-Spin Energy          =      -0.4697401496985866 [Eh]
	 Opposite-Spin Energy      =      -1.4028944129743199 [Eh]
	 Correlation Energy        =      -1.8726345626729066 [Eh]
	 Total Energy              =    -759.9329281619579888 [Eh]

	 ================> DF-SCS-MP2 Energies <==================
	-----------------------------------------------------------
	 SCS Same-Spin Scale       =       0.3333333333333333 [-]
	 SCS Opposite-Spin Scale   =       1.2000000000000000 [-]
	 SCS Same-Spin Energy      =      -0.1565800498995289 [Eh]
	 SCS Opposite-Spin Energy  =      -1.6834732955691838 [Eh]
	 SCS Correlation Energy    =      -1.8400533454687127 [Eh]
	 SCS Total Energy          =    -759.9003469447537782 [Eh]
	-----------------------------------------------------------

  Dipole Moment: [D]
     X:    -8.2914      Y:     0.1242      Z:     0.0921     Total:     8.2929

*** Psi4 exiting successfully. Buy a developer a beer!
