                               Psi4 1.4a3.dev225

  ==> Input File <==

--------------------------------------------------------------------------
#psi4
#
memory 32 gb

molecule  {
-2 1
  P        1.2274490    -0.0222580     0.0433940
  O       -0.3905570    -0.3882050    -0.6807720
  O        2.1665600    -0.4188293    -1.0994041
  O        1.1898850    -0.8529840     1.3405840
  O        1.1572260     1.5080110     0.2493660
  C       -1.4468750    -0.0662350     0.1787580
  C       -1.9094950     1.3730130    -0.0649580
  C       -2.5698170    -1.0762850    -0.0636830
  H       -1.1173450    -0.1582630     1.2256300
  H       -2.7054590     1.6884420     0.6308980
  H       -1.0118930     1.9864150     0.0562940
  H       -2.2859860     1.4684620    -1.0931860
  H       -3.4570710    -0.8823980     0.5599660
  H       -2.1978010    -2.0840550     0.1452650
  H       -2.8699830    -1.0350880    -1.1185900
units angstrom
no_reorient  #important for SAPT in psi4, default
symmetry c1  #important for SAPT in psi4, default
}

set PROPERTIES_ORIGIN ["COM"]
properties('MP2/aug-cc-pvtz', properties = ['dipole'])
--------------------------------------------------------------------------

    Molecular point group: c1
  Charge       = -2
  Multiplicity = 1
  Basis Set: AUG-CC-PVTZ
    Blend: AUG-CC-PVTZ
  Basis Set: (AUG-CC-PVTZ AUX)
    Blend: AUG-CC-PVTZ-JKFIT

    Orbital Energies [Eh]
    ---------------------

    Doubly Occupied:

       1A    -79.675073     2A    -20.204038     3A    -20.122936
       4A    -20.116353     5A    -20.112015     6A    -10.981536
       7A    -10.962286     8A    -10.935683     9A     -7.189294
      10A     -5.088732    11A     -5.086392    12A     -5.086125
      13A     -1.015666    14A     -0.929332    15A     -0.864031
      16A     -0.854266    17A     -0.750541    18A     -0.666159
      19A     -0.501139    20A     -0.393394    21A     -0.335844
      22A     -0.317763    23A     -0.303295    24A     -0.276955
      25A     -0.244547    26A     -0.244029    27A     -0.225020
      28A     -0.190034    29A     -0.181434    30A     -0.162100
      31A     -0.116105    32A     -0.094231    33A     -0.092273
      34A     -0.082304    35A     -0.058974    36A     -0.047550
      37A     -0.024984

  @DF-RHF Final Energy:  -758.06015886880755

   => Energetics <=

    Nuclear Repulsion Energy =            503.4569422980875402
    One-Electron Energy =               -2073.9693357839405508
    Two-Electron Energy =                 812.4522346170454057
    Total Energy =                       -758.0601588688075481
  Basis Set: (AUG-CC-PVTZ AUX)
    Blend: AUG-CC-PVTZ-RI
    Molecular point group: c1

    Geometry (in Angstrom), charge = -2, multiplicity = 1:

       Center              X                  Y                   Z               Mass
    ------------   -----------------  -----------------  -----------------  -----------------
         P            1.103649390405    -0.026869097578     0.048377143687    30.973761998420
         O           -0.514356609595    -0.392816097578    -0.675788856313    15.994914619570
         O            2.042760390405    -0.423440397578    -1.094420956313    15.994914619570
         O            1.066085390405    -0.857595097578     1.345567143687    15.994914619570
         O            1.033426390405     1.503399902422     0.254349143687    15.994914619570
         C           -1.570674609595    -0.070846097578     0.183741143687    12.000000000000
         C           -2.033294609595     1.368401902422    -0.059974856313    12.000000000000
         C           -2.693616609595    -1.080896097578    -0.058699856313    12.000000000000
         H           -1.241144609595    -0.162874097578     1.230613143687     1.007825032230
         H           -2.829258609595     1.683830902422     0.635881143687     1.007825032230
         H           -1.135692609595     1.981803902422     0.061277143687     1.007825032230
         H           -2.409785609595     1.463850902422    -1.088202856313     1.007825032230
         H           -3.580870609595    -0.887009097578     0.564949143687     1.007825032230
         H           -2.321600609595    -2.088666097578     0.150248143687     1.007825032230
         H           -2.993782609595    -1.039699097578    -1.113606856313     1.007825032230

  Basis Set: AUG-CC-PVTZ
    Blend: AUG-CC-PVTZ
  Basis Set: (AUG-CC-PVTZ AUX)
    Blend: AUG-CC-PVTZ-JKFIT
	 Reference Energy          =    -758.0601588688075481 [Eh]
	 Singles Energy            =      -0.0000000000000000 [Eh]
	 Same-Spin Energy          =      -0.4696715094154186 [Eh]
	 Opposite-Spin Energy      =      -1.4031169950240379 [Eh]
	 Correlation Energy        =      -1.8727885044394563 [Eh]
	 Total Energy              =    -759.9329473732469751 [Eh]

	 ================> DF-SCS-MP2 Energies <==================
	-----------------------------------------------------------
	 SCS Same-Spin Scale       =       0.3333333333333333 [-]
	 SCS Opposite-Spin Scale   =       1.2000000000000000 [-]
	 SCS Same-Spin Energy      =      -0.1565571698051395 [Eh]
	 SCS Opposite-Spin Energy  =      -1.6837403940288453 [Eh]
	 SCS Correlation Energy    =      -1.8402975638339849 [Eh]
	 SCS Total Energy          =    -759.9004564326414766 [Eh]
	-----------------------------------------------------------

  Dipole Moment: [D]
     X:    -8.2885      Y:    -0.1772      Z:     0.1192     Total:     8.2912

*** Psi4 exiting successfully. Buy a developer a beer!
