                               Psi4 1.4a3.dev225

  ==> Input File <==

--------------------------------------------------------------------------
#psi4
#
memory 32 gb

molecule  {
-2 1
  P        1.2274490    -0.0222580     0.0433940
  O       -0.3905570    -0.3882050    -0.6807720
  O        2.1487954    -0.4955878    -1.0845535
  O        1.1898850    -0.8529840     1.3405840
  O        1.1572260     1.5080110     0.2493660
  C       -1.4468750    -0.0662350     0.1787580
  C       -1.9094950     1.3730130    -0.0649580
  C       -2.5698170    -1.0762850    -0.0636830
  H       -1.1173450    -0.1582630     1.2256300
  H       -2.7054590     1.6884420     0.6308980
  H       -1.0118930     1.9864150     0.0562940
  H       -2.2859860     1.4684620    -1.0931860
  H       -3.4570710    -0.8823980     0.5599660
  H       -2.1978010    -2.0840550     0.1452650
  H       -2.8699830    -1.0350880    -1.1185900
units angstrom
no_reorient  #important for SAPT in psi4, default
symmetry c1  #important for SAPT in psi4, default
}

set PROPERTIES_ORIGIN ["COM"]
properties('MP2/aug-cc-pvtz', properties = ['dipole'])
--------------------------------------------------------------------------

    Molecular point group: c1
  Charge       = -2
  Multiplicity = 1
  Basis Set: AUG-CC-PVTZ
    Blend: AUG-CC-PVTZ
  Basis Set: (AUG-CC-PVTZ AUX)
    Blend: AUG-CC-PVTZ-JKFIT

    Orbital Energies [Eh]
    ---------------------

    Doubly Occupied:

       1A    -79.675136     2A    -20.202802     3A    -20.119552
       4A    -20.117073     5A    -20.116367     6A    -10.980811
       7A    -10.961731     8A    -10.935881     9A     -7.189352
      10A     -5.088816    11A     -5.086361    12A     -5.086265
      13A     -1.014912    14A     -0.929171    15A     -0.861125
      16A     -0.858641    17A     -0.750056    18A     -0.666007
      19A     -0.500613    20A     -0.392762    21A     -0.335533
      22A     -0.317600    23A     -0.303116    24A     -0.276792
      25A     -0.244173    26A     -0.243717    27A     -0.224867
      28A     -0.189708    29A     -0.182294    30A     -0.161739
      31A     -0.115369    32A     -0.094555    33A     -0.091870
      34A     -0.082638    35A     -0.057783    36A     -0.049720
      37A     -0.026421

  @DF-RHF Final Energy:  -758.06120990094757

   => Energetics <=

    Nuclear Repulsion Energy =            503.5291937197270613
    One-Electron Energy =               -2074.1181480517652744
    Two-Electron Energy =                 812.5277444310905821
    Total Energy =                       -758.0612099009475742
  Basis Set: (AUG-CC-PVTZ AUX)
    Blend: AUG-CC-PVTZ-RI
    Molecular point group: c1

    Geometry (in Angstrom), charge = -2, multiplicity = 1:

       Center              X                  Y                   Z               Mass
    ------------   -----------------  -----------------  -----------------  -----------------
         P            1.105708277262    -0.017972918278     0.046655984463    30.973761998420
         O           -0.512297722738    -0.383919918278    -0.677510015537    15.994914619570
         O            2.027054677262    -0.491302718278    -1.081291515537    15.994914619570
         O            1.068144277262    -0.848698918278     1.343845984463    15.994914619570
         O            1.035485277262     1.512296081722     0.252627984463    15.994914619570
         C           -1.568615722738    -0.061949918278     0.182019984463    12.000000000000
         C           -2.031235722738     1.377298081722    -0.061696015537    12.000000000000
         C           -2.691557722738    -1.071999918278    -0.060421015537    12.000000000000
         H           -1.239085722738    -0.153977918278     1.228891984463     1.007825032230
         H           -2.827199722738     1.692727081722     0.634159984463     1.007825032230
         H           -1.133633722738     1.990700081722     0.059555984463     1.007825032230
         H           -2.407726722738     1.472747081722    -1.089924015537     1.007825032230
         H           -3.578811722738    -0.878112918278     0.563227984463     1.007825032230
         H           -2.319541722738    -2.079769918278     0.148526984463     1.007825032230
         H           -2.991723722738    -1.030802918278    -1.115328015537     1.007825032230

  Basis Set: AUG-CC-PVTZ
    Blend: AUG-CC-PVTZ
  Basis Set: (AUG-CC-PVTZ AUX)
    Blend: AUG-CC-PVTZ-JKFIT
	 Reference Energy          =    -758.0612099009475742 [Eh]
	 Singles Energy            =      -0.0000000000000000 [Eh]
	 Same-Spin Energy          =      -0.4696653878272496 [Eh]
	 Opposite-Spin Energy      =      -1.4031023944143852 [Eh]
	 Correlation Energy        =      -1.8727677822416349 [Eh]
	 Total Energy              =    -759.9339776831892550 [Eh]

	 ================> DF-SCS-MP2 Energies <==================
	-----------------------------------------------------------
	 SCS Same-Spin Scale       =       0.3333333333333333 [-]
	 SCS Opposite-Spin Scale   =       1.2000000000000000 [-]
	 SCS Same-Spin Energy      =      -0.1565551292757499 [Eh]
	 SCS Opposite-Spin Energy  =      -1.6837228732972622 [Eh]
	 SCS Correlation Energy    =      -1.8402780025730121 [Eh]
	 SCS Total Energy          =    -759.9014879035205468 [Eh]
	-----------------------------------------------------------

  Dipole Moment: [D]
     X:    -8.2423      Y:     0.0206      Z:     0.0741     Total:     8.2426

*** Psi4 exiting successfully. Buy a developer a beer!
