                               Psi4 1.4a3.dev225

  ==> Input File <==

--------------------------------------------------------------------------
#psi4
#
memory 32 gb

molecule  {
-2 1
  P        1.2274490    -0.0222580     0.0433940
  O       -0.3905570    -0.3882050    -0.6807720
  O        2.1423100    -0.5208960    -1.0789140
  O        1.1898850    -0.8529840     1.3405840
  O        1.1572260     1.5080110     0.2493660
  C       -1.4468750    -0.0662350     0.1787580
  C       -1.8792839     1.2790238    -0.0490423
  C       -2.5698170    -1.0762850    -0.0636830
  H       -1.1173450    -0.1582630     1.2256300
  H       -2.7054590     1.6884420     0.6308980
  H       -1.0118930     1.9864150     0.0562940
  H       -2.2859860     1.4684620    -1.0931860
  H       -3.4570710    -0.8823980     0.5599660
  H       -2.1978010    -2.0840550     0.1452650
  H       -2.8699830    -1.0350880    -1.1185900
units angstrom
no_reorient  #important for SAPT in psi4, default
symmetry c1  #important for SAPT in psi4, default
}

set PROPERTIES_ORIGIN ["COM"]
properties('MP2/aug-cc-pvtz', properties = ['dipole'])
--------------------------------------------------------------------------

    Molecular point group: c1
  Charge       = -2
  Multiplicity = 1
  Basis Set: AUG-CC-PVTZ
    Blend: AUG-CC-PVTZ
  Basis Set: (AUG-CC-PVTZ AUX)
    Blend: AUG-CC-PVTZ-JKFIT

    Orbital Energies [Eh]
    ---------------------

    Doubly Occupied:

       1A    -79.675261     2A    -20.201967     3A    -20.118629
       4A    -20.118532     5A    -20.116389     6A    -10.974193
       7A    -10.961219     8A    -10.942685     9A     -7.189473
      10A     -5.088946    11A     -5.086464    12A     -5.086400
      13A     -1.017305    14A     -0.929913    15A     -0.860471
      16A     -0.859825    17A     -0.760858    18A     -0.667751
      19A     -0.500316    20A     -0.395522    21A     -0.343638
      22A     -0.319664    23A     -0.302581    24A     -0.270861
      25A     -0.251226    26A     -0.234044    27A     -0.214506
      28A     -0.192998    29A     -0.181149    30A     -0.159129
      31A     -0.121176    32A     -0.094733    33A     -0.091830
      34A     -0.082419    35A     -0.057689    36A     -0.050278
      37A     -0.026674

  @DF-RHF Final Energy:  -758.05076384114250

   => Energetics <=

    Nuclear Repulsion Energy =            505.4596903302207238
    One-Electron Energy =               -2077.9274895613393710
    Two-Electron Energy =                 814.4170353899760357
    Total Energy =                       -758.0507638411424978
  Basis Set: (AUG-CC-PVTZ AUX)
    Blend: AUG-CC-PVTZ-RI
    Molecular point group: c1

    Geometry (in Angstrom), charge = -2, multiplicity = 1:

       Center              X                  Y                   Z               Mass
    ------------   -----------------  -----------------  -----------------  -----------------
         P            1.103833027901    -0.006867252485     0.044618484301    30.973761998420
         O           -0.514172972099    -0.372814252485    -0.679547515699    15.994914619570
         O            2.018694027901    -0.505505252485    -1.077689515699    15.994914619570
         O            1.066269027901    -0.837593252485     1.341808484301    15.994914619570
         O            1.033610027901     1.523401747515     0.250590484301    15.994914619570
         C           -1.570490972099    -0.050844252485     0.179982484301    12.000000000000
         C           -2.002899872099     1.294414547515    -0.047817815699    12.000000000000
         C           -2.693432972099    -1.060894252485    -0.062458515699    12.000000000000
         H           -1.240960972099    -0.142872252485     1.226854484301     1.007825032230
         H           -2.829074972099     1.703832747515     0.632122484301     1.007825032230
         H           -1.135508972099     2.001805747515     0.057518484301     1.007825032230
         H           -2.409601972099     1.483852747515    -1.091961515699     1.007825032230
         H           -3.580686972099    -0.867007252485     0.561190484301     1.007825032230
         H           -2.321416972099    -2.068664252485     0.146489484301     1.007825032230
         H           -2.993598972099    -1.019697252485    -1.117365515699     1.007825032230

  Basis Set: AUG-CC-PVTZ
    Blend: AUG-CC-PVTZ
  Basis Set: (AUG-CC-PVTZ AUX)
    Blend: AUG-CC-PVTZ-JKFIT
	 Reference Energy          =    -758.0507638411424978 [Eh]
	 Singles Energy            =      -0.0000000000000000 [Eh]
	 Same-Spin Energy          =      -0.4705304485312795 [Eh]
	 Opposite-Spin Energy      =      -1.4041102574836479 [Eh]
	 Correlation Energy        =      -1.8746407060149275 [Eh]
	 Total Energy              =    -759.9254045471574273 [Eh]

	 ================> DF-SCS-MP2 Energies <==================
	-----------------------------------------------------------
	 SCS Same-Spin Scale       =       0.3333333333333333 [-]
	 SCS Opposite-Spin Scale   =       1.2000000000000000 [-]
	 SCS Same-Spin Energy      =      -0.1568434828437598 [Eh]
	 SCS Opposite-Spin Energy  =      -1.6849323089803774 [Eh]
	 SCS Correlation Energy    =      -1.8417757918241373 [Eh]
	 SCS Total Energy          =    -759.8925396329666455 [Eh]
	-----------------------------------------------------------

  Dipole Moment: [D]
     X:    -8.1666      Y:     0.1015      Z:     0.0730     Total:     8.1675

*** Psi4 exiting successfully. Buy a developer a beer!
