                               Psi4 1.4a3.dev225

  ==> Input File <==

--------------------------------------------------------------------------
#psi4
#
memory 32 gb

molecule  {
-2 1
  P        1.2274490    -0.0222580     0.0433940
  O       -0.3905570    -0.3882050    -0.6807720
  O        2.1423100    -0.5208960    -1.0789140
  O        1.1898850    -0.8529840     1.3405840
  O        1.1572260     1.5080110     0.2493660
  C       -1.4468750    -0.0662350     0.1787580
  C       -1.9094950     1.3730130    -0.0649580
  C       -2.5698170    -1.0762850    -0.0636830
  H       -1.1173450    -0.1582630     1.2256300
  H       -2.7054590     1.6884420     0.6308980
  H       -1.0118930     1.9864150     0.0562940
  H       -2.2859860     1.4684620    -1.0931860
  H       -3.4570710    -0.8823980     0.5599660
  H       -2.2317945    -1.9919686     0.1261721
  H       -2.8699830    -1.0350880    -1.1185900
units angstrom
no_reorient  #important for SAPT in psi4, default
symmetry c1  #important for SAPT in psi4, default
}

set PROPERTIES_ORIGIN ["COM"]
properties('MP2/aug-cc-pvtz', properties = ['dipole'])
--------------------------------------------------------------------------

    Molecular point group: c1
  Charge       = -2
  Multiplicity = 1
  Basis Set: AUG-CC-PVTZ
    Blend: AUG-CC-PVTZ
  Basis Set: (AUG-CC-PVTZ AUX)
    Blend: AUG-CC-PVTZ-JKFIT

    Orbital Energies [Eh]
    ---------------------

    Doubly Occupied:

       1A    -79.675021     2A    -20.202226     3A    -20.118491
       4A    -20.118346     5A    -20.116223     6A    -10.979473
       7A    -10.948495     8A    -10.934733     9A     -7.189240
      10A     -5.088712    11A     -5.086230    12A     -5.086169
      13A     -1.014469    14A     -0.929023    15A     -0.860283
      16A     -0.859593    17A     -0.753668    18A     -0.671997
      19A     -0.501825    20A     -0.392482    21A     -0.348521
      22A     -0.316638    23A     -0.303541    24A     -0.276568
      25A     -0.246122    26A     -0.243303    27A     -0.226762
      28A     -0.190098    29A     -0.182127    30A     -0.161085
      31A     -0.114720    32A     -0.094573    33A     -0.091663
      34A     -0.082401    35A     -0.057434    36A     -0.049938
      37A     -0.026533

  @DF-RHF Final Energy:  -758.05506305831409

   => Energetics <=

    Nuclear Repulsion Energy =            504.0125805225538898
    One-Electron Energy =               -2075.0578263832153425
    Two-Electron Energy =                 812.9901828023473627
    Total Energy =                       -758.0550630583140901
  Basis Set: (AUG-CC-PVTZ AUX)
    Blend: AUG-CC-PVTZ-RI
    Molecular point group: c1

    Geometry (in Angstrom), charge = -2, multiplicity = 1:

       Center              X                  Y                   Z               Mass
    ------------   -----------------  -----------------  -----------------  -----------------
         P            1.106708166571    -0.015712215444     0.046141804721    30.973761998420
         O           -0.511297833429    -0.381659215444    -0.678024195279    15.994914619570
         O            2.021569166571    -0.514350215444    -1.076166195279    15.994914619570
         O            1.069144166571    -0.846438215444     1.343331804721    15.994914619570
         O            1.036485166571     1.514556784556     0.252113804721    15.994914619570
         C           -1.567615833429    -0.059689215444     0.181505804721    12.000000000000
         C           -2.030235833429     1.379558784556    -0.062210195279    12.000000000000
         C           -2.690557833429    -1.069739215444    -0.060935195279    12.000000000000
         H           -1.238085833429    -0.151717215444     1.228377804721     1.007825032230
         H           -2.826199833429     1.694987784556     0.633645804721     1.007825032230
         H           -1.132633833429     1.992960784556     0.059041804721     1.007825032230
         H           -2.406726833429     1.475007784556    -1.090438195279     1.007825032230
         H           -3.577811833429    -0.875852215444     0.562713804721     1.007825032230
         H           -2.352535333429    -1.985422815444     0.128919904721     1.007825032230
         H           -2.990723833429    -1.028542215444    -1.115842195279     1.007825032230

  Basis Set: AUG-CC-PVTZ
    Blend: AUG-CC-PVTZ
  Basis Set: (AUG-CC-PVTZ AUX)
    Blend: AUG-CC-PVTZ-JKFIT
	 Reference Energy          =    -758.0550630583140901 [Eh]
	 Singles Energy            =      -0.0000000000000000 [Eh]
	 Same-Spin Energy          =      -0.4697196607848642 [Eh]
	 Opposite-Spin Energy      =      -1.4026719509789485 [Eh]
	 Correlation Energy        =      -1.8723916117638126 [Eh]
	 Total Energy              =    -759.9274546700778501 [Eh]

	 ================> DF-SCS-MP2 Energies <==================
	-----------------------------------------------------------
	 SCS Same-Spin Scale       =       0.3333333333333333 [-]
	 SCS Opposite-Spin Scale   =       1.2000000000000000 [-]
	 SCS Same-Spin Energy      =      -0.1565732202616214 [Eh]
	 SCS Opposite-Spin Energy  =      -1.6832063411747382 [Eh]
	 SCS Correlation Energy    =      -1.8397795614363597 [Eh]
	 SCS Total Energy          =    -759.8948426197504205 [Eh]
	-----------------------------------------------------------

  Dipole Moment: [D]
     X:    -8.2414      Y:     0.0058      Z:     0.0679     Total:     8.2417

*** Psi4 exiting successfully. Buy a developer a beer!
