                               Psi4 1.4a3.dev225

  ==> Input File <==

--------------------------------------------------------------------------
#psi4
#
memory 32 gb

molecule  {
-2 1
  P        1.2274490    -0.0222580     0.0433940
  O       -0.3905570    -0.3882050    -0.6807720
  O        2.1423100    -0.5208960    -1.0789140
  O        1.1898850    -0.8529840     1.3405840
  O        1.1572260     1.5080110     0.2493660
  C       -1.4468750    -0.0662350     0.1787580
  C       -1.9094950     1.3730130    -0.0649580
  C       -2.5698170    -1.0762850    -0.0636830
  H       -1.1173450    -0.1582630     1.2256300
  H       -2.7198878     1.6941599     0.6435121
  H       -1.0118930     1.9864150     0.0562940
  H       -2.2859860     1.4684620    -1.0931860
  H       -3.4570710    -0.8823980     0.5599660
  H       -2.1978010    -2.0840550     0.1452650
  H       -2.8699830    -1.0350880    -1.1185900
units angstrom
no_reorient  #important for SAPT in psi4, default
symmetry c1  #important for SAPT in psi4, default
}

set PROPERTIES_ORIGIN ["COM"]
properties('MP2/aug-cc-pvtz', properties = ['dipole'])
--------------------------------------------------------------------------

    Molecular point group: c1
  Charge       = -2
  Multiplicity = 1
  Basis Set: AUG-CC-PVTZ
    Blend: AUG-CC-PVTZ
  Basis Set: (AUG-CC-PVTZ AUX)
    Blend: AUG-CC-PVTZ-JKFIT

    Orbital Energies [Eh]
    ---------------------

    Doubly Occupied:

       1A    -79.675363     2A    -20.202801     3A    -20.118933
       4A    -20.118570     5A    -20.116508     6A    -10.980913
       7A    -10.961609     8A    -10.938825     9A     -7.189584
      10A     -5.089058    11A     -5.086572    12A     -5.086511
      13A     -1.015014    14A     -0.929351    15A     -0.860581
      16A     -0.859926    17A     -0.749597    18A     -0.664972
      19A     -0.500102    20A     -0.392615    21A     -0.335571
      22A     -0.316163    23A     -0.303132    24A     -0.275951
      25A     -0.244269    26A     -0.243254    27A     -0.224874
      28A     -0.189983    29A     -0.182591    30A     -0.161755
      31A     -0.115462    32A     -0.094895    33A     -0.091957
      34A     -0.082887    35A     -0.057729    36A     -0.050377
      37A     -0.026844

  @DF-RHF Final Energy:  -758.06074935524339

   => Energetics <=

    Nuclear Repulsion Energy =            503.4675072218724381
    One-Electron Energy =               -2073.9863165367528381
    Two-Electron Energy =                 812.4580599596370121
    Total Energy =                       -758.0607493552433880
  Basis Set: (AUG-CC-PVTZ AUX)
    Blend: AUG-CC-PVTZ-RI
    Molecular point group: c1

    Geometry (in Angstrom), charge = -2, multiplicity = 1:

       Center              X                  Y                   Z               Mass
    ------------   -----------------  -----------------  -----------------  -----------------
         P            1.106565292488    -0.015081496842     0.045910259716    30.973761998420
         O           -0.511440707512    -0.381028496842    -0.678255740284    15.994914619570
         O            2.021426292488    -0.513719496842    -1.076397740284    15.994914619570
         O            1.069001292488    -0.845807496842     1.343100259716    15.994914619570
         O            1.036342292488     1.515187503158     0.251882259716    15.994914619570
         C           -1.567758707512    -0.059058496842     0.181274259716    12.000000000000
         C           -2.030378707512     1.380189503158    -0.062441740284    12.000000000000
         C           -2.690700707512    -1.069108496842    -0.061166740284    12.000000000000
         H           -1.238228707512    -0.151086496842     1.228146259716     1.007825032230
         H           -2.840771507512     1.701336403158     0.646028359716     1.007825032230
         H           -1.132776707512     1.993591503158     0.058810259716     1.007825032230
         H           -2.406869707512     1.475638503158    -1.090669740284     1.007825032230
         H           -3.577954707512    -0.875221496842     0.562482259716     1.007825032230
         H           -2.318684707512    -2.076878496842     0.147781259716     1.007825032230
         H           -2.990866707512    -1.027911496842    -1.116073740284     1.007825032230

  Basis Set: AUG-CC-PVTZ
    Blend: AUG-CC-PVTZ
  Basis Set: (AUG-CC-PVTZ AUX)
    Blend: AUG-CC-PVTZ-JKFIT
	 Reference Energy          =    -758.0607493552433880 [Eh]
	 Singles Energy            =      -0.0000000000000000 [Eh]
	 Same-Spin Energy          =      -0.4696570089157136 [Eh]
	 Opposite-Spin Energy      =      -1.4032377728072103 [Eh]
	 Correlation Energy        =      -1.8728947817229238 [Eh]
	 Total Energy              =    -759.9336441369663362 [Eh]

	 ================> DF-SCS-MP2 Energies <==================
	-----------------------------------------------------------
	 SCS Same-Spin Scale       =       0.3333333333333333 [-]
	 SCS Opposite-Spin Scale   =       1.2000000000000000 [-]
	 SCS Same-Spin Energy      =      -0.1565523363052378 [Eh]
	 SCS Opposite-Spin Energy  =      -1.6838853273686523 [Eh]
	 SCS Correlation Energy    =      -1.8404376636738902 [Eh]
	 SCS Total Energy          =    -759.9011870189173123 [Eh]
	-----------------------------------------------------------

  Dipole Moment: [D]
     X:    -8.1973      Y:     0.0694      Z:     0.0424     Total:     8.1977

*** Psi4 exiting successfully. Buy a developer a beer!
