                               Psi4 1.4a3.dev225

  ==> Input File <==

--------------------------------------------------------------------------
#psi4
#
memory 32 gb

molecule  {
-2 1
  P        1.2274490    -0.0222580     0.0433940
  O       -0.3905570    -0.3882050    -0.6807720
  O        2.1769759    -0.3670400    -1.1075664
  O        1.1898850    -0.8529840     1.3405840
  O        1.1572260     1.5080110     0.2493660
  C       -1.4468750    -0.0662350     0.1787580
  C       -1.9094950     1.3730130    -0.0649580
  C       -2.5698170    -1.0762850    -0.0636830
  H       -1.1173450    -0.1582630     1.2256300
  H       -2.7054590     1.6884420     0.6308980
  H       -1.0118930     1.9864150     0.0562940
  H       -2.2859860     1.4684620    -1.0931860
  H       -3.4570710    -0.8823980     0.5599660
  H       -2.1978010    -2.0840550     0.1452650
  H       -2.8699830    -1.0350880    -1.1185900
units angstrom
no_reorient  #important for SAPT in psi4, default
symmetry c1  #important for SAPT in psi4, default
}

set PROPERTIES_ORIGIN ["COM"]
properties('MP2/aug-cc-pvtz', properties = ['dipole'])
--------------------------------------------------------------------------

    Molecular point group: c1
  Charge       = -2
  Multiplicity = 1
  Basis Set: AUG-CC-PVTZ
    Blend: AUG-CC-PVTZ
  Basis Set: (AUG-CC-PVTZ AUX)
    Blend: AUG-CC-PVTZ-JKFIT

    Orbital Energies [Eh]
    ---------------------

    Doubly Occupied:

       1A    -79.675037     2A    -20.204845     3A    -20.125138
       4A    -20.116226     5A    -20.108539     6A    -10.981995
       7A    -10.962637     8A    -10.935521     9A     -7.189270
      10A     -5.088688    11A     -5.086427    12A     -5.086041
      13A     -1.016163    14A     -0.929491    15A     -0.865875
      16A     -0.851131    17A     -0.750843    18A     -0.666236
      19A     -0.501467    20A     -0.393803    21A     -0.336039
      22A     -0.317850    23A     -0.303416    24A     -0.277041
      25A     -0.244910    26A     -0.244096    27A     -0.225094
      28A     -0.190478    29A     -0.180511    30A     -0.162346
      31A     -0.116633    32A     -0.094134    33A     -0.092624
      34A     -0.081825    35A     -0.059940    36A     -0.045621
      37A     -0.023414

  @DF-RHF Final Energy:  -758.05859822108664

   => Energetics <=

    Nuclear Repulsion Energy =            503.4332704483877592
    One-Electron Energy =               -2073.9210386482691320
    Two-Electron Energy =                 812.4291699787947891
    Total Energy =                       -758.0585982210866405
  Basis Set: (AUG-CC-PVTZ AUX)
    Blend: AUG-CC-PVTZ-RI
    Molecular point group: c1

    Geometry (in Angstrom), charge = -2, multiplicity = 1:

       Center              X                  Y                   Z               Mass
    ------------   -----------------  -----------------  -----------------  -----------------
         P            1.102442205351    -0.032871389163     0.049323140343    30.973761998420
         O           -0.515563794649    -0.398818389163    -0.674842859657    15.994914619570
         O            2.051969105351    -0.377653389163    -1.101637259657    15.994914619570
         O            1.064878205351    -0.863597389163     1.346513140343    15.994914619570
         O            1.032219205351     1.497397610837     0.255295140343    15.994914619570
         C           -1.571881794649    -0.076848389163     0.184687140343    12.000000000000
         C           -2.034501794649     1.362399610837    -0.059028859657    12.000000000000
         C           -2.694823794649    -1.086898389163    -0.057753859657    12.000000000000
         H           -1.242351794649    -0.168876389163     1.231559140343     1.007825032230
         H           -2.830465794649     1.677828610837     0.636827140343     1.007825032230
         H           -1.136899794649     1.975801610837     0.062223140343     1.007825032230
         H           -2.410992794649     1.457848610837    -1.087256859657     1.007825032230
         H           -3.582077794649    -0.893011389163     0.565895140343     1.007825032230
         H           -2.322807794649    -2.094668389163     0.151194140343     1.007825032230
         H           -2.994989794649    -1.045701389163    -1.112660859657     1.007825032230

  Basis Set: AUG-CC-PVTZ
    Blend: AUG-CC-PVTZ
  Basis Set: (AUG-CC-PVTZ AUX)
    Blend: AUG-CC-PVTZ-JKFIT
	 Reference Energy          =    -758.0585982210866405 [Eh]
	 Singles Energy            =      -0.0000000000000000 [Eh]
	 Same-Spin Energy          =      -0.4697219013625064 [Eh]
	 Opposite-Spin Energy      =      -1.4032122560232190 [Eh]
	 Correlation Energy        =      -1.8729341573857252 [Eh]
	 Total Energy              =    -759.9315323784724114 [Eh]

	 ================> DF-SCS-MP2 Energies <==================
	-----------------------------------------------------------
	 SCS Same-Spin Scale       =       0.3333333333333333 [-]
	 SCS Opposite-Spin Scale   =       1.2000000000000000 [-]
	 SCS Same-Spin Energy      =      -0.1565739671208354 [Eh]
	 SCS Opposite-Spin Energy  =      -1.6838547072278627 [Eh]
	 SCS Correlation Energy    =      -1.8404286743486982 [Eh]
	 SCS Total Energy          =    -759.8990268954353269 [Eh]
	-----------------------------------------------------------

  Dipole Moment: [D]
     X:    -8.3157      Y:    -0.3104      Z:     0.1451     Total:     8.3228

*** Psi4 exiting successfully. Buy a developer a beer!
