                               Psi4 1.4a3.dev225

  ==> Input File <==

--------------------------------------------------------------------------
#psi4
#
memory 32 gb

molecule  {
-2 1
  P        1.2274490    -0.0222580     0.0433940
  O       -0.3905570    -0.3882050    -0.6807720
  O        2.1423100    -0.5208960    -1.0789140
  O        1.1898850    -0.8529840     1.3405840
  O        1.1572260     1.5080110     0.2493660
  C       -1.4468750    -0.0662350     0.1787580
  C       -1.9094950     1.3730130    -0.0649580
  C       -2.5551351    -1.0630791    -0.0605132
  H       -1.1173450    -0.1582630     1.2256300
  H       -2.7054590     1.6884420     0.6308980
  H       -1.0118930     1.9864150     0.0562940
  H       -2.2859860     1.4684620    -1.0931860
  H       -3.4570710    -0.8823980     0.5599660
  H       -2.1978010    -2.0840550     0.1452650
  H       -2.8699830    -1.0350880    -1.1185900
units angstrom
no_reorient  #important for SAPT in psi4, default
symmetry c1  #important for SAPT in psi4, default
}

set PROPERTIES_ORIGIN ["COM"]
properties('MP2/aug-cc-pvtz', properties = ['dipole'])
--------------------------------------------------------------------------

    Molecular point group: c1
  Charge       = -2
  Multiplicity = 1
  Basis Set: AUG-CC-PVTZ
    Blend: AUG-CC-PVTZ
  Basis Set: (AUG-CC-PVTZ AUX)
    Blend: AUG-CC-PVTZ-JKFIT

    Orbital Energies [Eh]
    ---------------------

    Doubly Occupied:

       1A    -79.675103     2A    -20.202263     3A    -20.118667
       4A    -20.118377     5A    -20.116278     6A    -10.979137
       7A    -10.963088     8A    -10.935862     9A     -7.189322
      10A     -5.088794    11A     -5.086313    12A     -5.086251
      13A     -1.015070    14A     -0.929253    15A     -0.860353
      16A     -0.859698    17A     -0.752038    18A     -0.665436
      19A     -0.501066    20A     -0.393179    21A     -0.335332
      22A     -0.319047    23A     -0.301658    24A     -0.274617
      25A     -0.243580    26A     -0.242908    27A     -0.224890
      28A     -0.189798    29A     -0.182805    30A     -0.162489
      31A     -0.115258    32A     -0.094665    33A     -0.091736
      34A     -0.082882    35A     -0.057502    36A     -0.050205
      37A     -0.026622

  @DF-RHF Final Energy:  -758.06066984840743

   => Energetics <=

    Nuclear Repulsion Energy =            503.9440926946545574
    One-Electron Energy =               -2074.9464409064335086
    Two-Electron Energy =                 812.9416783633715795
    Total Energy =                       -758.0606698484074286
  Basis Set: (AUG-CC-PVTZ AUX)
    Blend: AUG-CC-PVTZ-RI
    Molecular point group: c1

    Geometry (in Angstrom), charge = -2, multiplicity = 1:

       Center              X                  Y                   Z               Mass
    ------------   -----------------  -----------------  -----------------  -----------------
         P            1.105183312926    -0.016188011977     0.045726757612    30.973761998420
         O           -0.512822687074    -0.382135011977    -0.678439242388    15.994914619570
         O            2.020044312926    -0.514826011977    -1.076581242388    15.994914619570
         O            1.067619312926    -0.846914011977     1.342916757612    15.994914619570
         O            1.034960312926     1.514080988023     0.251698757612    15.994914619570
         C           -1.569140687074    -0.060165011977     0.181090757612    12.000000000000
         C           -2.031760687074     1.379082988023    -0.062625242388    12.000000000000
         C           -2.677400787074    -1.057009111977    -0.058180442388    12.000000000000
         H           -1.239610687074    -0.152193011977     1.227962757612     1.007825032230
         H           -2.827724687074     1.694511988023     0.633230757612     1.007825032230
         H           -1.134158687074     1.992484988023     0.058626757612     1.007825032230
         H           -2.408251687074     1.474531988023    -1.090853242388     1.007825032230
         H           -3.579336687074    -0.876328011977     0.562298757612     1.007825032230
         H           -2.320066687074    -2.077985011977     0.147597757612     1.007825032230
         H           -2.992248687074    -1.029018011977    -1.116257242388     1.007825032230

  Basis Set: AUG-CC-PVTZ
    Blend: AUG-CC-PVTZ
  Basis Set: (AUG-CC-PVTZ AUX)
    Blend: AUG-CC-PVTZ-JKFIT
	 Reference Energy          =    -758.0606698484074286 [Eh]
	 Singles Energy            =      -0.0000000000000000 [Eh]
	 Same-Spin Energy          =      -0.4697814445412660 [Eh]
	 Opposite-Spin Energy      =      -1.4032392797012558 [Eh]
	 Correlation Energy        =      -1.8730207242425219 [Eh]
	 Total Energy              =    -759.9336905726499936 [Eh]

	 ================> DF-SCS-MP2 Energies <==================
	-----------------------------------------------------------
	 SCS Same-Spin Scale       =       0.3333333333333333 [-]
	 SCS Opposite-Spin Scale   =       1.2000000000000000 [-]
	 SCS Same-Spin Energy      =      -0.1565938148470886 [Eh]
	 SCS Opposite-Spin Energy  =      -1.6838871356415070 [Eh]
	 SCS Correlation Energy    =      -1.8404809504885957 [Eh]
	 SCS Total Energy          =    -759.9011507988959693 [Eh]
	-----------------------------------------------------------

  Dipole Moment: [D]
     X:    -8.2285      Y:     0.0796      Z:     0.0583     Total:     8.2291

*** Psi4 exiting successfully. Buy a developer a beer!
