                               Psi4 1.4a3.dev225

  ==> Input File <==

--------------------------------------------------------------------------
#psi4
#
memory 32 gb

molecule  {
-2 1
  P        1.2274490    -0.0222580     0.0433940
  O       -0.3905570    -0.3882050    -0.6807720
  O        2.1423100    -0.5208960    -1.0789140
  O        1.1898850    -0.8529840     1.3405840
  O        1.1572260     1.5080110     0.2493660
  C       -1.4468750    -0.0662350     0.1787580
  C       -1.9246006     1.4200076    -0.0729159
  C       -2.5698170    -1.0762850    -0.0636830
  H       -1.1173450    -0.1582630     1.2256300
  H       -2.7054590     1.6884420     0.6308980
  H       -1.0118930     1.9864150     0.0562940
  H       -2.2859860     1.4684620    -1.0931860
  H       -3.4570710    -0.8823980     0.5599660
  H       -2.1978010    -2.0840550     0.1452650
  H       -2.8699830    -1.0350880    -1.1185900
units angstrom
no_reorient  #important for SAPT in psi4, default
symmetry c1  #important for SAPT in psi4, default
}

set PROPERTIES_ORIGIN ["COM"]
properties('MP2/aug-cc-pvtz', properties = ['dipole'])
--------------------------------------------------------------------------

    Molecular point group: c1
  Charge       = -2
  Multiplicity = 1
  Basis Set: AUG-CC-PVTZ
    Blend: AUG-CC-PVTZ
  Basis Set: (AUG-CC-PVTZ AUX)
    Blend: AUG-CC-PVTZ-JKFIT

    Orbital Energies [Eh]
    ---------------------

    Doubly Occupied:

       1A    -79.675309     2A    -20.203081     3A    -20.118909
       4A    -20.118544     5A    -20.116474     6A    -10.983756
       7A    -10.962002     8A    -10.933457     9A     -7.189533
      10A     -5.089008    11A     -5.086521    12A     -5.086460
      13A     -1.014060    14A     -0.929053    15A     -0.860535
      16A     -0.859867    17A     -0.746007    18A     -0.665561
      19A     -0.500386    20A     -0.391737    21A     -0.332781
      22A     -0.317602    23A     -0.303701    24A     -0.281191
      25A     -0.247216    26A     -0.243083    27A     -0.226320
      28A     -0.187572    29A     -0.182829    30A     -0.162490
      31A     -0.110954    32A     -0.094844    33A     -0.091896
      34A     -0.082959    35A     -0.057650    36A     -0.050116
      37A     -0.026811

  @DF-RHF Final Energy:  -758.05933906679945

   => Energetics <=

    Nuclear Repulsion Energy =            502.6535379063072924
    One-Electron Energy =               -2072.3652068560600128
    Two-Electron Energy =                 811.6523298829532678
    Total Energy =                       -758.0593390667994527
  Basis Set: (AUG-CC-PVTZ AUX)
    Blend: AUG-CC-PVTZ-RI
    Molecular point group: c1

    Geometry (in Angstrom), charge = -2, multiplicity = 1:

       Center              X                  Y                   Z               Mass
    ------------   -----------------  -----------------  -----------------  -----------------
         P            1.107773376496    -0.019125985319     0.046694326236    30.973761998420
         O           -0.510232623504    -0.385072985319    -0.677471673764    15.994914619570
         O            2.022634376496    -0.517763985319    -1.075613673764    15.994914619570
         O            1.070209376496    -0.849851985319     1.343884326236    15.994914619570
         O            1.037550376496     1.511143014681     0.252666326236    15.994914619570
         C           -1.566550623504    -0.063102985319     0.182058326236    12.000000000000
         C           -2.044276223504     1.423139614681    -0.069615573764    12.000000000000
         C           -2.689492623504    -1.073152985319    -0.060382673764    12.000000000000
         H           -1.237020623504    -0.155130985319     1.228930326236     1.007825032230
         H           -2.825134623504     1.691574014681     0.634198326236     1.007825032230
         H           -1.131568623504     1.989547014681     0.059594326236     1.007825032230
         H           -2.405661623504     1.471594014681    -1.089885673764     1.007825032230
         H           -3.576746623504    -0.879265985319     0.563266326236     1.007825032230
         H           -2.317476623504    -2.080922985319     0.148565326236     1.007825032230
         H           -2.989658623504    -1.031955985319    -1.115289673764     1.007825032230

  Basis Set: AUG-CC-PVTZ
    Blend: AUG-CC-PVTZ
  Basis Set: (AUG-CC-PVTZ AUX)
    Blend: AUG-CC-PVTZ-JKFIT
	 Reference Energy          =    -758.0593390667994527 [Eh]
	 Singles Energy            =      -0.0000000000000000 [Eh]
	 Same-Spin Energy          =      -0.4695899403854495 [Eh]
	 Opposite-Spin Energy      =      -1.4031894044752031 [Eh]
	 Correlation Energy        =      -1.8727793448606527 [Eh]
	 Total Energy              =    -759.9321184116600989 [Eh]

	 ================> DF-SCS-MP2 Energies <==================
	-----------------------------------------------------------
	 SCS Same-Spin Scale       =       0.3333333333333333 [-]
	 SCS Opposite-Spin Scale   =       1.2000000000000000 [-]
	 SCS Same-Spin Energy      =      -0.1565299801284832 [Eh]
	 SCS Opposite-Spin Energy  =      -1.6838272853702436 [Eh]
	 SCS Correlation Energy    =      -1.8403572654987268 [Eh]
	 SCS Total Energy          =    -759.8996963322981628 [Eh]
	-----------------------------------------------------------

  Dipole Moment: [D]
     X:    -8.2270      Y:     0.0435      Z:     0.0553     Total:     8.2273

*** Psi4 exiting successfully. Buy a developer a beer!
