                               Psi4 1.4a3.dev225

  ==> Input File <==

--------------------------------------------------------------------------
#psi4
#
memory 32 gb

molecule  {
-2 1
  P        1.2274490    -0.0222580     0.0433940
  O       -0.3905570    -0.3882050    -0.6807720
  O        2.1423100    -0.5208960    -1.0789140
  O        1.1898850    -0.8529840     1.3405840
  O        1.1572260     1.5080110     0.2493660
  C       -1.4468750    -0.0662350     0.1787580
  C       -1.9094950     1.3730130    -0.0649580
  C       -2.5698170    -1.0762850    -0.0636830
  H       -1.1173450    -0.1582630     1.2256300
  H       -2.7054590     1.6884420     0.6308980
  H       -1.0118930     1.9864150     0.0562940
  H       -2.2859860     1.4684620    -1.0931860
  H       -3.4350849    -0.8863013     0.5912732
  H       -2.1978010    -2.0840550     0.1452650
  H       -2.8699830    -1.0350880    -1.1185900
units angstrom
no_reorient  #important for SAPT in psi4, default
symmetry c1  #important for SAPT in psi4, default
}

set PROPERTIES_ORIGIN ["COM"]
properties('MP2/aug-cc-pvtz', properties = ['dipole'])
--------------------------------------------------------------------------

    Molecular point group: c1
  Charge       = -2
  Multiplicity = 1
  Basis Set: AUG-CC-PVTZ
    Blend: AUG-CC-PVTZ
  Basis Set: (AUG-CC-PVTZ AUX)
    Blend: AUG-CC-PVTZ-JKFIT

    Orbital Energies [Eh]
    ---------------------

    Doubly Occupied:

       1A    -79.675093     2A    -20.202166     3A    -20.118673
       4A    -20.118361     5A    -20.116265     6A    -10.980334
       7A    -10.961509     8A    -10.935936     9A     -7.189310
      10A     -5.088781    11A     -5.086301    12A     -5.086240
      13A     -1.014521    14A     -0.929078    15A     -0.860343
      16A     -0.859693    17A     -0.750004    18A     -0.665910
      19A     -0.499824    20A     -0.393134    21A     -0.334695
      22A     -0.317071    23A     -0.303543    24A     -0.278372
      25A     -0.244332    26A     -0.242358    27A     -0.224773
      28A     -0.189688    29A     -0.182257    30A     -0.161519
      31A     -0.115027    32A     -0.094666    33A     -0.091726
      34A     -0.082488    35A     -0.057487    36A     -0.050087
      37A     -0.026614

  @DF-RHF Final Energy:  -758.06112914231301

   => Energetics <=

    Nuclear Repulsion Energy =            503.5904122780775083
    One-Electron Energy =               -2074.2467313583506439
    Two-Electron Energy =                 812.5951899379600718
    Total Energy =                       -758.0611291423130069
  Basis Set: (AUG-CC-PVTZ AUX)
    Blend: AUG-CC-PVTZ-RI
    Molecular point group: c1

    Geometry (in Angstrom), charge = -2, multiplicity = 1:

       Center              X                  Y                   Z               Mass
    ------------   -----------------  -----------------  -----------------  -----------------
         P            1.106299367356    -0.015011236622     0.045773750620    30.973761998420
         O           -0.511706632644    -0.380958236622    -0.678392249380    15.994914619570
         O            2.021160367356    -0.513649236622    -1.076534249380    15.994914619570
         O            1.068735367356    -0.845737236622     1.342963750620    15.994914619570
         O            1.036076367356     1.515257763378     0.251745750620    15.994914619570
         C           -1.568024632644    -0.058988236622     0.181137750620    12.000000000000
         C           -2.030644632644     1.380259763378    -0.062578249380    12.000000000000
         C           -2.690966632644    -1.069038236622    -0.061303249380    12.000000000000
         H           -1.238494632644    -0.151016236622     1.228009750620     1.007825032230
         H           -2.826608632644     1.695688763378     0.633277750620     1.007825032230
         H           -1.133042632644     1.993661763378     0.058673750620     1.007825032230
         H           -2.407135632644     1.475708763378    -1.090806249380     1.007825032230
         H           -3.556234532644    -0.879054536622     0.593652950620     1.007825032230
         H           -2.318950632644    -2.076808236622     0.147644750620     1.007825032230
         H           -2.991132632644    -1.027841236622    -1.116210249380     1.007825032230

  Basis Set: AUG-CC-PVTZ
    Blend: AUG-CC-PVTZ
  Basis Set: (AUG-CC-PVTZ AUX)
    Blend: AUG-CC-PVTZ-JKFIT
	 Reference Energy          =    -758.0611291423130069 [Eh]
	 Singles Energy            =      -0.0000000000000000 [Eh]
	 Same-Spin Energy          =      -0.4696934260290103 [Eh]
	 Opposite-Spin Energy      =      -1.4031529245362844 [Eh]
	 Correlation Energy        =      -1.8728463505652946 [Eh]
	 Total Energy              =    -759.9339754928782895 [Eh]

	 ================> DF-SCS-MP2 Energies <==================
	-----------------------------------------------------------
	 SCS Same-Spin Scale       =       0.3333333333333333 [-]
	 SCS Opposite-Spin Scale   =       1.2000000000000000 [-]
	 SCS Same-Spin Energy      =      -0.1565644753430034 [Eh]
	 SCS Opposite-Spin Energy  =      -1.6837835094435412 [Eh]
	 SCS Correlation Energy    =      -1.8403479847865445 [Eh]
	 SCS Total Energy          =    -759.9014771270994970 [Eh]
	-----------------------------------------------------------

  Dipole Moment: [D]
     X:    -8.2213      Y:     0.0824      Z:     0.0630     Total:     8.2219

*** Psi4 exiting successfully. Buy a developer a beer!
