                               Psi4 1.4a3.dev225

  ==> Input File <==

--------------------------------------------------------------------------
#psi4
#
memory 32 gb

molecule  {
-2 1
  P        1.2274490    -0.0222580     0.0433940
  O       -0.3905570    -0.3882050    -0.6807720
  O        2.1423100    -0.5208960    -1.0789140
  O        1.1898850    -0.8529840     1.3405840
  O        1.1572260     1.5080110     0.2493660
  C       -1.4468750    -0.0662350     0.1787580
  C       -1.9094950     1.3730130    -0.0649580
  C       -2.5698170    -1.0762850    -0.0636830
  H       -1.1173450    -0.1582630     1.2256300
  H       -2.7054590     1.6884420     0.6308980
  H       -1.0118930     1.9864150     0.0562940
  H       -2.2859860     1.4684620    -1.0931860
  H       -3.4570710    -0.8823980     0.5599660
  H       -2.2147977    -2.0380118     0.1357185
  H       -2.8699830    -1.0350880    -1.1185900
units angstrom
no_reorient  #important for SAPT in psi4, default
symmetry c1  #important for SAPT in psi4, default
}

set PROPERTIES_ORIGIN ["COM"]
properties('MP2/aug-cc-pvtz', properties = ['dipole'])
--------------------------------------------------------------------------

    Molecular point group: c1
  Charge       = -2
  Multiplicity = 1
  Basis Set: AUG-CC-PVTZ
    Blend: AUG-CC-PVTZ
  Basis Set: (AUG-CC-PVTZ AUX)
    Blend: AUG-CC-PVTZ-JKFIT

    Orbital Energies [Eh]
    ---------------------

    Doubly Occupied:

       1A    -79.675084     2A    -20.202291     3A    -20.118595
       4A    -20.118372     5A    -20.116270     6A    -10.979979
       7A    -10.955048     8A    -10.935297     9A     -7.189302
      10A     -5.088774    11A     -5.086292    12A     -5.086231
      13A     -1.014546    14A     -0.929071    15A     -0.860334
      16A     -0.859660    17A     -0.751448    18A     -0.668766
      19A     -0.501015    20A     -0.392439    21A     -0.341680
      22A     -0.317052    23A     -0.303334    24A     -0.276636
      25A     -0.244997    26A     -0.243524    27A     -0.225971
      28A     -0.189940    29A     -0.182253    30A     -0.161333
      31A     -0.114916    32A     -0.094637    33A     -0.091714
      34A     -0.082512    35A     -0.057485    36A     -0.050040
      37A     -0.026591

  @DF-RHF Final Energy:  -758.06016798043618

   => Energetics <=

    Nuclear Repulsion Energy =            503.7806048357059012
    One-Electron Energy =               -2074.6146861057573005
    Two-Electron Energy =                 812.7739132896152796
    Total Energy =                       -758.0601679804361765
  Basis Set: (AUG-CC-PVTZ AUX)
    Blend: AUG-CC-PVTZ-RI
    Molecular point group: c1

    Geometry (in Angstrom), charge = -2, multiplicity = 1:

       Center              X                  Y                   Z               Mass
    ------------   -----------------  -----------------  -----------------  -----------------
         P            1.106584044954    -0.015375978243     0.046072090739    30.973761998420
         O           -0.511421955046    -0.381322978243    -0.678093909261    15.994914619570
         O            2.021445044954    -0.514013978243    -1.076235909261    15.994914619570
         O            1.069020044954    -0.846101978243     1.343262090739    15.994914619570
         O            1.036361044954     1.514893021757     0.252044090739    15.994914619570
         C           -1.567739955046    -0.059352978243     0.181436090739    12.000000000000
         C           -2.030359955046     1.379895021757    -0.062279909261    12.000000000000
         C           -2.690681955046    -1.069402978243    -0.061004909261    12.000000000000
         H           -1.238209955046    -0.151380978243     1.228308090739     1.007825032230
         H           -2.826323955046     1.695324021757     0.633576090739     1.007825032230
         H           -1.132757955046     1.993297021757     0.058972090739     1.007825032230
         H           -2.406850955046     1.475344021757    -1.090507909261     1.007825032230
         H           -3.577935955046    -0.875515978243     0.562644090739     1.007825032230
         H           -2.335662655046    -2.031129778243     0.138396590739     1.007825032230
         H           -2.990847955046    -1.028205978243    -1.115911909261     1.007825032230

  Basis Set: AUG-CC-PVTZ
    Blend: AUG-CC-PVTZ
  Basis Set: (AUG-CC-PVTZ AUX)
    Blend: AUG-CC-PVTZ-JKFIT
	 Reference Energy          =    -758.0601679804361765 [Eh]
	 Singles Energy            =      -0.0000000000000000 [Eh]
	 Same-Spin Energy          =      -0.4696967651124757 [Eh]
	 Opposite-Spin Energy      =      -1.4028661134779350 [Eh]
	 Correlation Energy        =      -1.8725628785904107 [Eh]
	 Total Energy              =    -759.9327308590266057 [Eh]

	 ================> DF-SCS-MP2 Energies <==================
	-----------------------------------------------------------
	 SCS Same-Spin Scale       =       0.3333333333333333 [-]
	 SCS Opposite-Spin Scale   =       1.2000000000000000 [-]
	 SCS Same-Spin Energy      =      -0.1565655883708252 [Eh]
	 SCS Opposite-Spin Energy  =      -1.6834393361735220 [Eh]
	 SCS Correlation Energy    =      -1.8400049245443473 [Eh]
	 SCS Total Energy          =    -759.9001729049805363 [Eh]
	-----------------------------------------------------------

  Dipole Moment: [D]
     X:    -8.2333      Y:     0.0430      Z:     0.0631     Total:     8.2336

*** Psi4 exiting successfully. Buy a developer a beer!
