                               Psi4 1.4a3.dev225

  ==> Input File <==

--------------------------------------------------------------------------
#psi4
#
memory 32 gb

molecule  {
-2 1
  P        1.2274490    -0.0222580     0.0433940
  O       -0.3011668    -0.3679875    -0.6407639
  O        2.1423100    -0.5208960    -1.0789140
  O        1.1898850    -0.8529840     1.3405840
  O        1.1572260     1.5080110     0.2493660
  C       -1.4468750    -0.0662350     0.1787580
  C       -1.9094950     1.3730130    -0.0649580
  C       -2.5698170    -1.0762850    -0.0636830
  H       -1.1173450    -0.1582630     1.2256300
  H       -2.7054590     1.6884420     0.6308980
  H       -1.0118930     1.9864150     0.0562940
  H       -2.2859860     1.4684620    -1.0931860
  H       -3.4570710    -0.8823980     0.5599660
  H       -2.1978010    -2.0840550     0.1452650
  H       -2.8699830    -1.0350880    -1.1185900
units angstrom
no_reorient  #important for SAPT in psi4, default
symmetry c1  #important for SAPT in psi4, default
}

set PROPERTIES_ORIGIN ["COM"]
properties('MP2/aug-cc-pvtz', properties = ['dipole'])
--------------------------------------------------------------------------

    Molecular point group: c1
  Charge       = -2
  Multiplicity = 1
  Basis Set: AUG-CC-PVTZ
    Blend: AUG-CC-PVTZ
  Basis Set: (AUG-CC-PVTZ AUX)
    Blend: AUG-CC-PVTZ-JKFIT

    Orbital Energies [Eh]
    ---------------------

    Doubly Occupied:

       1A    -79.663679     2A    -20.206239     3A    -20.109360
       4A    -20.108860     5A    -20.107753     6A    -10.989933
       7A    -10.969961     8A    -10.941248     9A     -7.178632
      10A     -5.078209    11A     -5.075773    12A     -5.075678
      13A     -1.018725    14A     -0.917935    15A     -0.853137
      16A     -0.852017    17A     -0.761537    18A     -0.671057
      19A     -0.509685    20A     -0.396808    21A     -0.341634
      22A     -0.320433    23A     -0.305366    24A     -0.281644
      25A     -0.249408    26A     -0.244702    27A     -0.227580
      28A     -0.187852    29A     -0.178813    30A     -0.158462
      31A     -0.122083    32A     -0.087730    33A     -0.084998
      34A     -0.081910    35A     -0.048844    36A     -0.041900
      37A     -0.018712

  @DF-RHF Final Energy:  -758.06168520386655

   => Energetics <=

    Nuclear Repulsion Energy =            505.7024054567320377
    One-Electron Energy =               -2078.5915833480480615
    Two-Electron Energy =                 814.8274926874494213
    Total Energy =                       -758.0616852038665456
  Basis Set: (AUG-CC-PVTZ AUX)
    Blend: AUG-CC-PVTZ-RI
    Molecular point group: c1

    Geometry (in Angstrom), charge = -2, multiplicity = 1:

       Center              X                  Y                   Z               Mass
    ------------   -----------------  -----------------  -----------------  -----------------
         P            1.096099752269    -0.017382914826     0.041365505438    30.973761998420
         O           -0.432516047731    -0.363112414826    -0.642792394562    15.994914619570
         O            2.010960752269    -0.516020914826    -1.080942494562    15.994914619570
         O            1.058535752269    -0.848108914826     1.338555505438    15.994914619570
         O            1.025876752269     1.512886085174     0.247337505438    15.994914619570
         C           -1.578224247731    -0.061359914826     0.176729505438    12.000000000000
         C           -2.040844247731     1.377888085174    -0.066986494562    12.000000000000
         C           -2.701166247731    -1.071409914826    -0.065711494562    12.000000000000
         H           -1.248694247731    -0.153387914826     1.223601505438     1.007825032230
         H           -2.836808247731     1.693317085174     0.628869505438     1.007825032230
         H           -1.143242247731     1.991290085174     0.054265505438     1.007825032230
         H           -2.417335247731     1.473337085174    -1.095214494562     1.007825032230
         H           -3.588420247731    -0.877522914826     0.557937505438     1.007825032230
         H           -2.329150247731    -2.079179914826     0.143236505438     1.007825032230
         H           -3.001332247731    -1.030212914826    -1.120618494562     1.007825032230

  Basis Set: AUG-CC-PVTZ
    Blend: AUG-CC-PVTZ
  Basis Set: (AUG-CC-PVTZ AUX)
    Blend: AUG-CC-PVTZ-JKFIT
	 Reference Energy          =    -758.0616852038665456 [Eh]
	 Singles Energy            =      -0.0000000000000000 [Eh]
	 Same-Spin Energy          =      -0.4687241829294405 [Eh]
	 Opposite-Spin Energy      =      -1.4011604234747761 [Eh]
	 Correlation Energy        =      -1.8698846064042165 [Eh]
	 Total Energy              =    -759.9315698102707302 [Eh]

	 ================> DF-SCS-MP2 Energies <==================
	-----------------------------------------------------------
	 SCS Same-Spin Scale       =       0.3333333333333333 [-]
	 SCS Opposite-Spin Scale   =       1.2000000000000000 [-]
	 SCS Same-Spin Energy      =      -0.1562413943098135 [Eh]
	 SCS Opposite-Spin Energy  =      -1.6813925081697312 [Eh]
	 SCS Correlation Energy    =      -1.8376339024795447 [Eh]
	 SCS Total Energy          =    -759.8993191063460699 [Eh]
	-----------------------------------------------------------

  Dipole Moment: [D]
     X:    -8.9950      Y:     0.0059      Z:    -0.0803     Total:     8.9954

*** Psi4 exiting successfully. Buy a developer a beer!
