                               Psi4 1.4a3.dev225

  ==> Input File <==

--------------------------------------------------------------------------
#psi4
#
memory 32 gb

molecule  {
-2 1
  P        1.2274490    -0.0222580     0.0433940
  O       -0.3905570    -0.3882050    -0.6807720
  O        2.1423100    -0.5208960    -1.0789140
  O        1.1898850    -0.8529840     1.3405840
  O        1.1572260     1.5080110     0.2493660
  C       -1.4468750    -0.0662350     0.1787580
  C       -1.9094950     1.3730130    -0.0649580
  C       -2.5331123    -1.0432703    -0.0557585
  H       -1.1173450    -0.1582630     1.2256300
  H       -2.7054590     1.6884420     0.6308980
  H       -1.0118930     1.9864150     0.0562940
  H       -2.2859860     1.4684620    -1.0931860
  H       -3.4570710    -0.8823980     0.5599660
  H       -2.1978010    -2.0840550     0.1452650
  H       -2.8699830    -1.0350880    -1.1185900
units angstrom
no_reorient  #important for SAPT in psi4, default
symmetry c1  #important for SAPT in psi4, default
}

set PROPERTIES_ORIGIN ["COM"]
properties('MP2/aug-cc-pvtz', properties = ['dipole'])
--------------------------------------------------------------------------

    Molecular point group: c1
  Charge       = -2
  Multiplicity = 1
  Basis Set: AUG-CC-PVTZ
    Blend: AUG-CC-PVTZ
  Basis Set: (AUG-CC-PVTZ AUX)
    Blend: AUG-CC-PVTZ-JKFIT

    Orbital Energies [Eh]
    ---------------------

    Doubly Occupied:

       1A    -79.675073     2A    -20.202189     3A    -20.118639
       4A    -20.118387     5A    -20.116254     6A    -10.977025
       7A    -10.965577     8A    -10.935841     9A     -7.189293
      10A     -5.088764    11A     -5.086284    12A     -5.086223
      13A     -1.015851    14A     -0.929502    15A     -0.860336
      16A     -0.859689    17A     -0.755603    18A     -0.664738
      19A     -0.502061    20A     -0.394310    21A     -0.335662
      22A     -0.321372    23A     -0.299854    24A     -0.271450
      25A     -0.243491    26A     -0.241670    27A     -0.224118
      28A     -0.189998    29A     -0.183261    30A     -0.163574
      31A     -0.115451    32A     -0.094636    33A     -0.091725
      34A     -0.083240    35A     -0.057482    36A     -0.050317
      37A     -0.026612

  @DF-RHF Final Energy:  -758.05836463209425

   => Energetics <=

    Nuclear Repulsion Energy =            504.5254203605601901
    One-Electron Energy =               -2076.0964656244450453
    Two-Electron Energy =                 813.5126806317905448
    Total Energy =                       -758.0583646320942535
  Basis Set: (AUG-CC-PVTZ AUX)
    Blend: AUG-CC-PVTZ-RI
    Molecular point group: c1

    Geometry (in Angstrom), charge = -2, multiplicity = 1:

       Center              X                  Y                   Z               Mass
    ------------   -----------------  -----------------  -----------------  -----------------
         P            1.103268400565    -0.017910414032     0.045313329992    30.973761998420
         O           -0.514737599435    -0.383857414032    -0.678852670008    15.994914619570
         O            2.018129400565    -0.516548414032    -1.076994670008    15.994914619570
         O            1.065704400565    -0.848636414032     1.342503329992    15.994914619570
         O            1.033045400565     1.512358585968     0.251285329992    15.994914619570
         C           -1.571055599435    -0.061887414032     0.180677329992    12.000000000000
         C           -2.033675599435     1.377360585968    -0.063038670008    12.000000000000
         C           -2.657292899435    -1.038922714032    -0.053839170008    12.000000000000
         H           -1.241525599435    -0.153915414032     1.227549329992     1.007825032230
         H           -2.829639599435     1.692789585968     0.632817329992     1.007825032230
         H           -1.136073599435     1.990762585968     0.058213329992     1.007825032230
         H           -2.410166599435     1.472809585968    -1.091266670008     1.007825032230
         H           -3.581251599435    -0.878050414032     0.561885329992     1.007825032230
         H           -2.321981599435    -2.079707414032     0.147184329992     1.007825032230
         H           -2.994163599435    -1.030740414032    -1.116670670008     1.007825032230

  Basis Set: AUG-CC-PVTZ
    Blend: AUG-CC-PVTZ
  Basis Set: (AUG-CC-PVTZ AUX)
    Blend: AUG-CC-PVTZ-JKFIT
	 Reference Energy          =    -758.0583646320942535 [Eh]
	 Singles Energy            =      -0.0000000000000000 [Eh]
	 Same-Spin Energy          =      -0.4699969680390352 [Eh]
	 Opposite-Spin Energy      =      -1.4035080828168141 [Eh]
	 Correlation Energy        =      -1.8735050508558493 [Eh]
	 Total Energy              =    -759.9318696829501505 [Eh]

	 ================> DF-SCS-MP2 Energies <==================
	-----------------------------------------------------------
	 SCS Same-Spin Scale       =       0.3333333333333333 [-]
	 SCS Opposite-Spin Scale   =       1.2000000000000000 [-]
	 SCS Same-Spin Energy      =      -0.1566656560130117 [Eh]
	 SCS Opposite-Spin Energy  =      -1.6842096993801767 [Eh]
	 SCS Correlation Energy    =      -1.8408753553931885 [Eh]
	 SCS Total Energy          =    -759.8992399874874764 [Eh]
	-----------------------------------------------------------

  Dipole Moment: [D]
     X:    -8.2239      Y:     0.0765      Z:     0.0609     Total:     8.2245

*** Psi4 exiting successfully. Buy a developer a beer!
