                               Psi4 1.4a3.dev225

  ==> Input File <==

--------------------------------------------------------------------------
#psi4
#
memory 32 gb

molecule  {
-2 1
  P        1.2274490    -0.0222580     0.0433940
  O       -0.3905570    -0.3882050    -0.6807720
  O        2.1423100    -0.5208960    -1.0789140
  O        1.1898850    -0.8529840     1.3405840
  O        1.1572260     1.5080110     0.2493660
  C       -1.3713903    -0.0892430     0.1173358
  C       -1.9094950     1.3730130    -0.0649580
  C       -2.5698170    -1.0762850    -0.0636830
  H       -1.1173450    -0.1582630     1.2256300
  H       -2.7054590     1.6884420     0.6308980
  H       -1.0118930     1.9864150     0.0562940
  H       -2.2859860     1.4684620    -1.0931860
  H       -3.4570710    -0.8823980     0.5599660
  H       -2.1978010    -2.0840550     0.1452650
  H       -2.8699830    -1.0350880    -1.1185900
units angstrom
no_reorient  #important for SAPT in psi4, default
symmetry c1  #important for SAPT in psi4, default
}

set PROPERTIES_ORIGIN ["COM"]
properties('MP2/aug-cc-pvtz', properties = ['dipole'])
--------------------------------------------------------------------------

    Molecular point group: c1
  Charge       = -2
  Multiplicity = 1
  Basis Set: AUG-CC-PVTZ
    Blend: AUG-CC-PVTZ
  Basis Set: (AUG-CC-PVTZ AUX)
    Blend: AUG-CC-PVTZ-JKFIT

    Orbital Energies [Eh]
    ---------------------

    Doubly Occupied:

       1A    -79.680840     2A    -20.210813     3A    -20.122878
       4A    -20.122281     5A    -20.120635     6A    -10.985339
       7A    -10.957053     8A    -10.931192     9A     -7.195213
      10A     -5.094795    11A     -5.092080    12A     -5.092016
      13A     -1.059310    14A     -0.937892    15A     -0.864636
      16A     -0.863667    17A     -0.737828    18A     -0.657810
      19A     -0.495890    20A     -0.406035    21A     -0.333377
      22A     -0.321960    23A     -0.303099    24A     -0.272870
      25A     -0.268888    26A     -0.248369    27A     -0.226736
      28A     -0.188857    29A     -0.187086    30A     -0.152075
      31A     -0.106433    32A     -0.098749    33A     -0.095729
      34A     -0.085529    35A     -0.061870    36A     -0.053670
      37A     -0.030417

  @DF-RHF Final Energy:  -758.05229142574024

   => Energetics <=

    Nuclear Repulsion Energy =            505.1605074514109788
    One-Electron Energy =               -2077.0977607502300089
    Two-Electron Energy =                 813.8849618730788507
    Total Energy =                       -758.0522914257402363
  Basis Set: (AUG-CC-PVTZ AUX)
    Blend: AUG-CC-PVTZ-RI
    Molecular point group: c1

    Geometry (in Angstrom), charge = -2, multiplicity = 1:

       Center              X                  Y                   Z               Mass
    ------------   -----------------  -----------------  -----------------  -----------------
         P            1.099896426910    -0.013039164201     0.051343119714    30.973761998420
         O           -0.518109573090    -0.378986164201    -0.672822880286    15.994914619570
         O            2.014757426910    -0.511677164201    -1.070964880286    15.994914619570
         O            1.062332426910    -0.843765164201     1.348533119714    15.994914619570
         O            1.029673426910     1.517229835799     0.257315119714    15.994914619570
         C           -1.498942873090    -0.080024164201     0.125284919714    12.000000000000
         C           -2.037047573090     1.382231835799    -0.057008880286    12.000000000000
         C           -2.697369573090    -1.067066164201    -0.055733880286    12.000000000000
         H           -1.244897573090    -0.149044164201     1.233579119714     1.007825032230
         H           -2.833011573090     1.697660835799     0.638847119714     1.007825032230
         H           -1.139445573090     1.995633835799     0.064243119714     1.007825032230
         H           -2.413538573090     1.477680835799    -1.085236880286     1.007825032230
         H           -3.584623573090    -0.873179164201     0.567915119714     1.007825032230
         H           -2.325353573090    -2.074836164201     0.153214119714     1.007825032230
         H           -2.997535573090    -1.025869164201    -1.110640880286     1.007825032230

  Basis Set: AUG-CC-PVTZ
    Blend: AUG-CC-PVTZ
  Basis Set: (AUG-CC-PVTZ AUX)
    Blend: AUG-CC-PVTZ-JKFIT
	 Reference Energy          =    -758.0522914257402363 [Eh]
	 Singles Energy            =      -0.0000000000000000 [Eh]
	 Same-Spin Energy          =      -0.4700035940559748 [Eh]
	 Opposite-Spin Energy      =      -1.4024246028227636 [Eh]
	 Correlation Energy        =      -1.8724281968787384 [Eh]
	 Total Energy              =    -759.9247196226190226 [Eh]

	 ================> DF-SCS-MP2 Energies <==================
	-----------------------------------------------------------
	 SCS Same-Spin Scale       =       0.3333333333333333 [-]
	 SCS Opposite-Spin Scale   =       1.2000000000000000 [-]
	 SCS Same-Spin Energy      =      -0.1566678646853249 [Eh]
	 SCS Opposite-Spin Energy  =      -1.6829095233873164 [Eh]
	 SCS Correlation Energy    =      -1.8395773880726414 [Eh]
	 SCS Total Energy          =    -759.8918688138128346 [Eh]
	-----------------------------------------------------------

  Dipole Moment: [D]
     X:    -7.6112      Y:     0.0005      Z:    -0.0704     Total:     7.6116

*** Psi4 exiting successfully. Buy a developer a beer!
