                               Psi4 1.4a3.dev225

  ==> Input File <==

--------------------------------------------------------------------------
#psi4
#
memory 32 gb

molecule  {
-2 1
  P        1.2274490    -0.0222580     0.0433940
  O       -0.3905570    -0.3882050    -0.6807720
  O        2.1423100    -0.5208960    -1.0789140
  O        1.1898850    -0.8529840     1.3405840
  O        1.1526828     1.6070150     0.2626918
  C       -1.4468750    -0.0662350     0.1787580
  C       -1.9094950     1.3730130    -0.0649580
  C       -2.5698170    -1.0762850    -0.0636830
  H       -1.1173450    -0.1582630     1.2256300
  H       -2.7054590     1.6884420     0.6308980
  H       -1.0118930     1.9864150     0.0562940
  H       -2.2859860     1.4684620    -1.0931860
  H       -3.4570710    -0.8823980     0.5599660
  H       -2.1978010    -2.0840550     0.1452650
  H       -2.8699830    -1.0350880    -1.1185900
units angstrom
no_reorient  #important for SAPT in psi4, default
symmetry c1  #important for SAPT in psi4, default
}

set PROPERTIES_ORIGIN ["COM"]
properties('MP2/aug-cc-pvtz', properties = ['dipole'])
--------------------------------------------------------------------------

    Molecular point group: c1
  Charge       = -2
  Multiplicity = 1
  Basis Set: AUG-CC-PVTZ
    Blend: AUG-CC-PVTZ
  Basis Set: (AUG-CC-PVTZ AUX)
    Blend: AUG-CC-PVTZ-JKFIT

    Orbital Energies [Eh]
    ---------------------

    Doubly Occupied:

       1A    -79.691195     2A    -20.209088     3A    -20.127462
       4A    -20.125332     5A    -20.123140     6A    -10.982809
       7A    -10.963314     8A    -10.934688     9A     -7.203203
      10A     -5.102743    11A     -5.100309    12A     -5.099751
      13A     -1.018201    14A     -0.926081    15A     -0.868060
      16A     -0.838058    17A     -0.751617    18A     -0.666279
      19A     -0.502469    20A     -0.396787    21A     -0.337127
      22A     -0.318376    23A     -0.306314    24A     -0.277307
      25A     -0.246343    26A     -0.245003    27A     -0.225742
      28A     -0.188046    29A     -0.181694    30A     -0.160648
      31A     -0.116331    32A     -0.096058    33A     -0.090193
      34A     -0.079368    35A     -0.063180    36A     -0.046097
      37A     -0.029509

  @DF-RHF Final Energy:  -758.04688891868716

   => Energetics <=

    Nuclear Repulsion Energy =            499.6521658881500798
    One-Electron Energy =               -2066.1222653730310412
    Two-Electron Energy =                 808.4232105661936885
    Total Energy =                       -758.0468889186871593
  Basis Set: (AUG-CC-PVTZ AUX)
    Blend: AUG-CC-PVTZ-RI
    Molecular point group: c1

    Geometry (in Angstrom), charge = -2, multiplicity = 1:

       Center              X                  Y                   Z               Mass
    ------------   -----------------  -----------------  -----------------  -----------------
         P            1.106986473201    -0.026514135869     0.044457938523    30.973761998420
         O           -0.511019526799    -0.392461135869    -0.679708061477    15.994914619570
         O            2.021847473201    -0.525152135869    -1.077850061477    15.994914619570
         O            1.069422473201    -0.857240135869     1.341647938523    15.994914619570
         O            1.032220273201     1.602758864131     0.263755738523    15.994914619570
         C           -1.567337526799    -0.070491135869     0.179821938523    12.000000000000
         C           -2.029957526799     1.368756864131    -0.063894061477    12.000000000000
         C           -2.690279526799    -1.080541135869    -0.062619061477    12.000000000000
         H           -1.237807526799    -0.162519135869     1.226693938523     1.007825032230
         H           -2.825921526799     1.684185864131     0.631961938523     1.007825032230
         H           -1.132355526799     1.982158864131     0.057357938523     1.007825032230
         H           -2.406448526799     1.464205864131    -1.092122061477     1.007825032230
         H           -3.577533526799    -0.886654135869     0.561029938523     1.007825032230
         H           -2.318263526799    -2.088311135869     0.146328938523     1.007825032230
         H           -2.990445526799    -1.039344135869    -1.117526061477     1.007825032230

  Basis Set: AUG-CC-PVTZ
    Blend: AUG-CC-PVTZ
  Basis Set: (AUG-CC-PVTZ AUX)
    Blend: AUG-CC-PVTZ-JKFIT
	 Reference Energy          =    -758.0468889186871593 [Eh]
	 Singles Energy            =      -0.0000000000000000 [Eh]
	 Same-Spin Energy          =      -0.4715504889944739 [Eh]
	 Opposite-Spin Energy      =      -1.4080347758611746 [Eh]
	 Correlation Energy        =      -1.8795852648556486 [Eh]
	 Total Energy              =    -759.9264741835428367 [Eh]

	 ================> DF-SCS-MP2 Energies <==================
	-----------------------------------------------------------
	 SCS Same-Spin Scale       =       0.3333333333333333 [-]
	 SCS Opposite-Spin Scale   =       1.2000000000000000 [-]
	 SCS Same-Spin Energy      =      -0.1571834963314913 [Eh]
	 SCS Opposite-Spin Energy  =      -1.6896417310334095 [Eh]
	 SCS Correlation Energy    =      -1.8468252273649008 [Eh]
	 SCS Total Energy          =    -759.8937141460520479 [Eh]
	-----------------------------------------------------------

  Dipole Moment: [D]
     X:    -8.2574      Y:    -0.5843      Z:    -0.0274     Total:     8.2781

*** Psi4 exiting successfully. Buy a developer a beer!
