                               Psi4 1.4a3.dev225

  ==> Input File <==

--------------------------------------------------------------------------
#psi4
#
memory 32 gb

molecule  {
-2 1
  P        1.2274490    -0.0222580     0.0433940
  O       -0.3905570    -0.3882050    -0.6807720
  O        2.1423100    -0.5208960    -1.0789140
  O        1.1898850    -0.8529840     1.3405840
  O        1.1572260     1.5080110     0.2493660
  C       -1.4468750    -0.0662350     0.1787580
  C       -1.9155372     1.3918108    -0.0681411
  C       -2.5698170    -1.0762850    -0.0636830
  H       -1.1173450    -0.1582630     1.2256300
  H       -2.7054590     1.6884420     0.6308980
  H       -1.0118930     1.9864150     0.0562940
  H       -2.2859860     1.4684620    -1.0931860
  H       -3.4570710    -0.8823980     0.5599660
  H       -2.1978010    -2.0840550     0.1452650
  H       -2.8699830    -1.0350880    -1.1185900
units angstrom
no_reorient  #important for SAPT in psi4, default
symmetry c1  #important for SAPT in psi4, default
}

set PROPERTIES_ORIGIN ["COM"]
properties('MP2/aug-cc-pvtz', properties = ['dipole'])
--------------------------------------------------------------------------

    Molecular point group: c1
  Charge       = -2
  Multiplicity = 1
  Basis Set: AUG-CC-PVTZ
    Blend: AUG-CC-PVTZ
  Basis Set: (AUG-CC-PVTZ AUX)
    Blend: AUG-CC-PVTZ-JKFIT

    Orbital Energies [Eh]
    ---------------------

    Doubly Occupied:

       1A    -79.675202     2A    -20.202622     3A    -20.118781
       4A    -20.118442     5A    -20.116370     6A    -10.981832
       7A    -10.961699     8A    -10.934868     9A     -7.189422
      10A     -5.088895    11A     -5.086412    12A     -5.086350
      13A     -1.014365    14A     -0.929080    15A     -0.860436
      16A     -0.859773    17A     -0.748221    18A     -0.665760
      19A     -0.500404    20A     -0.392173    21A     -0.334251
      22A     -0.317475    23A     -0.303278    24A     -0.278444
      25A     -0.245463    26A     -0.242979    27A     -0.225817
      28A     -0.188899    29A     -0.182577    30A     -0.161983
      31A     -0.113568    32A     -0.094753    33A     -0.091812
      34A     -0.082752    35A     -0.057572    36A     -0.050140
      37A     -0.026707

  @DF-RHF Final Energy:  -758.06095076907729

   => Energetics <=

    Nuclear Repulsion Energy =            503.1965457433888673
    One-Electron Energy =               -2073.4558395575409122
    Two-Electron Energy =                 812.1983430450746937
    Total Energy =                       -758.0609507690772944
  Basis Set: (AUG-CC-PVTZ AUX)
    Blend: AUG-CC-PVTZ-RI
    Molecular point group: c1

    Geometry (in Angstrom), charge = -2, multiplicity = 1:

       Center              X                  Y                   Z               Mass
    ------------   -----------------  -----------------  -----------------  -----------------
         P            1.106985301560    -0.016674235274     0.046279150893    30.973761998420
         O           -0.511020698440    -0.382621235274    -0.677886849107    15.994914619570
         O            2.021846301560    -0.515312235274    -1.076028849107    15.994914619570
         O            1.069421301560    -0.847400235274     1.343469150893    15.994914619570
         O            1.036762301560     1.513594764726     0.252251150893    15.994914619570
         C           -1.567338698440    -0.060651235274     0.181643150893    12.000000000000
         C           -2.036000898440     1.397394564726    -0.065255949107    12.000000000000
         C           -2.690280698440    -1.070701235274    -0.060797849107    12.000000000000
         H           -1.237808698440    -0.152679235274     1.228515150893     1.007825032230
         H           -2.825922698440     1.694025764726     0.633783150893     1.007825032230
         H           -1.132356698440     1.991998764726     0.059179150893     1.007825032230
         H           -2.406449698440     1.474045764726    -1.090300849107     1.007825032230
         H           -3.577534698440    -0.876814235274     0.562851150893     1.007825032230
         H           -2.318264698440    -2.078471235274     0.148150150893     1.007825032230
         H           -2.990446698440    -1.029504235274    -1.115704849107     1.007825032230

  Basis Set: AUG-CC-PVTZ
    Blend: AUG-CC-PVTZ
  Basis Set: (AUG-CC-PVTZ AUX)
    Blend: AUG-CC-PVTZ-JKFIT
	 Reference Energy          =    -758.0609507690772944 [Eh]
	 Singles Energy            =      -0.0000000000000000 [Eh]
	 Same-Spin Energy          =      -0.4696199440672345 [Eh]
	 Opposite-Spin Energy      =      -1.4031126570266712 [Eh]
	 Correlation Energy        =      -1.8727326010939058 [Eh]
	 Total Energy              =    -759.9336833701712521 [Eh]

	 ================> DF-SCS-MP2 Energies <==================
	-----------------------------------------------------------
	 SCS Same-Spin Scale       =       0.3333333333333333 [-]
	 SCS Opposite-Spin Scale   =       1.2000000000000000 [-]
	 SCS Same-Spin Energy      =      -0.1565399813557448 [Eh]
	 SCS Opposite-Spin Energy  =      -1.6837351884320053 [Eh]
	 SCS Correlation Energy    =      -1.8402751697877502 [Eh]
	 SCS Total Energy          =    -759.9012259388650818 [Eh]
	-----------------------------------------------------------

  Dipole Moment: [D]
     X:    -8.2284      Y:     0.0718      Z:     0.0562     Total:     8.2289

*** Psi4 exiting successfully. Buy a developer a beer!
