                               Psi4 1.4a3.dev225

  ==> Input File <==

--------------------------------------------------------------------------
#psi4
#
memory 32 gb

molecule  {
-2 1
  P        1.2274490    -0.0222580     0.0433940
  O       -0.5693374    -0.4286400    -0.7607882
  O        2.1423100    -0.5208960    -1.0789140
  O        1.1898850    -0.8529840     1.3405840
  O        1.1572260     1.5080110     0.2493660
  C       -1.4468750    -0.0662350     0.1787580
  C       -1.9094950     1.3730130    -0.0649580
  C       -2.5698170    -1.0762850    -0.0636830
  H       -1.1173450    -0.1582630     1.2256300
  H       -2.7054590     1.6884420     0.6308980
  H       -1.0118930     1.9864150     0.0562940
  H       -2.2859860     1.4684620    -1.0931860
  H       -3.4570710    -0.8823980     0.5599660
  H       -2.1978010    -2.0840550     0.1452650
  H       -2.8699830    -1.0350880    -1.1185900
units angstrom
no_reorient  #important for SAPT in psi4, default
symmetry c1  #important for SAPT in psi4, default
}

set PROPERTIES_ORIGIN ["COM"]
properties('MP2/aug-cc-pvtz', properties = ['dipole'])
--------------------------------------------------------------------------

    Molecular point group: c1
  Charge       = -2
  Multiplicity = 1
  Basis Set: AUG-CC-PVTZ
    Blend: AUG-CC-PVTZ
  Basis Set: (AUG-CC-PVTZ AUX)
    Blend: AUG-CC-PVTZ-JKFIT

    Orbital Energies [Eh]
    ---------------------

    Doubly Occupied:

       1A    -79.694465     2A    -20.188913     3A    -20.137157
       4A    -20.137128     5A    -20.133095     6A    -10.965504
       7A    -10.945501     8A    -10.926479     9A     -7.208585
      10A     -5.108069    11A     -5.105096    12A     -5.105084
      13A     -1.015367    14A     -0.949207    15A     -0.875223
      16A     -0.874923    17A     -0.728069    18A     -0.656819
      19A     -0.485939    20A     -0.382516    21A     -0.327761
      22A     -0.311528    23A     -0.304387    24A     -0.266513
      25A     -0.238119    26A     -0.232645    27A     -0.220683
      28A     -0.199274    29A     -0.196299    30A     -0.165675
      31A     -0.109429    32A     -0.105646    33A     -0.098048
      34A     -0.078842    35A     -0.069744    36A     -0.060957
      37A     -0.042433

  @DF-RHF Final Energy:  -758.03675135171397

   => Energetics <=

    Nuclear Repulsion Energy =            499.8907719059373562
    One-Electron Energy =               -2066.5527985257176624
    Two-Electron Energy =                 808.6252752680663889
    Total Energy =                       -758.0367513517139741
  Basis Set: (AUG-CC-PVTZ AUX)
    Blend: AUG-CC-PVTZ-RI
    Molecular point group: c1

    Geometry (in Angstrom), charge = -2, multiplicity = 1:

       Center              X                  Y                   Z               Mass
    ------------   -----------------  -----------------  -----------------  -----------------
         P            1.127180267660    -0.010353393471     0.055276117203    30.973761998420
         O           -0.669606132340    -0.416735393471    -0.748906082797    15.994914619570
         O            2.042041267660    -0.508991393471    -1.067031882797    15.994914619570
         O            1.089616267660    -0.841079393471     1.352466117203    15.994914619570
         O            1.056957267660     1.519915606529     0.261248117203    15.994914619570
         C           -1.547143732340    -0.054330393471     0.190640117203    12.000000000000
         C           -2.009763732340     1.384917606529    -0.053075882797    12.000000000000
         C           -2.670085732340    -1.064380393471    -0.051800882797    12.000000000000
         H           -1.217613732340    -0.146358393471     1.237512117203     1.007825032230
         H           -2.805727732340     1.700346606529     0.642780117203     1.007825032230
         H           -1.112161732340     1.998319606529     0.068176117203     1.007825032230
         H           -2.386254732340     1.480366606529    -1.081303882797     1.007825032230
         H           -3.557339732340    -0.870493393471     0.571848117203     1.007825032230
         H           -2.298069732340    -2.072150393471     0.157147117203     1.007825032230
         H           -2.970251732340    -1.023183393471    -1.106707882797     1.007825032230

  Basis Set: AUG-CC-PVTZ
    Blend: AUG-CC-PVTZ
  Basis Set: (AUG-CC-PVTZ AUX)
    Blend: AUG-CC-PVTZ-JKFIT
	 Reference Energy          =    -758.0367513517139741 [Eh]
	 Singles Energy            =      -0.0000000000000000 [Eh]
	 Same-Spin Energy          =      -0.4722465412306786 [Eh]
	 Opposite-Spin Energy      =      -1.4079542597189032 [Eh]
	 Correlation Energy        =      -1.8802008009495819 [Eh]
	 Total Energy              =    -759.9169521526636117 [Eh]

	 ================> DF-SCS-MP2 Energies <==================
	-----------------------------------------------------------
	 SCS Same-Spin Scale       =       0.3333333333333333 [-]
	 SCS Opposite-Spin Scale   =       1.2000000000000000 [-]
	 SCS Same-Spin Energy      =      -0.1574155137435595 [Eh]
	 SCS Opposite-Spin Energy  =      -1.6895451116626838 [Eh]
	 SCS Correlation Energy    =      -1.8469606254062434 [Eh]
	 SCS Total Energy          =    -759.8837119771202424 [Eh]
	-----------------------------------------------------------

  Dipole Moment: [D]
     X:    -6.6987      Y:     0.2522      Z:     0.2811     Total:     6.7093

*** Psi4 exiting successfully. Buy a developer a beer!
