                               Psi4 1.4a3.dev225

  ==> Input File <==

--------------------------------------------------------------------------
#psi4
#
memory 32 gb

molecule  {
-2 1
  P        1.2274490    -0.0222580     0.0433940
  O       -0.3905570    -0.3882050    -0.6807720
  O        2.1423100    -0.5208960    -1.0789140
  O        1.1898850    -0.8529840     1.3405840
  O        1.1572260     1.5080110     0.2493660
  C       -1.4468750    -0.0662350     0.1787580
  C       -1.9094950     1.3730130    -0.0649580
  C       -2.5698170    -1.0762850    -0.0636830
  H       -1.1472652    -0.1499072     1.1305776
  H       -2.7054590     1.6884420     0.6308980
  H       -1.0118930     1.9864150     0.0562940
  H       -2.2859860     1.4684620    -1.0931860
  H       -3.4570710    -0.8823980     0.5599660
  H       -2.1978010    -2.0840550     0.1452650
  H       -2.8699830    -1.0350880    -1.1185900
units angstrom
no_reorient  #important for SAPT in psi4, default
symmetry c1  #important for SAPT in psi4, default
}

set PROPERTIES_ORIGIN ["COM"]
properties('MP2/aug-cc-pvtz', properties = ['dipole'])
--------------------------------------------------------------------------

    Molecular point group: c1
  Charge       = -2
  Multiplicity = 1
  Basis Set: AUG-CC-PVTZ
    Blend: AUG-CC-PVTZ
  Basis Set: (AUG-CC-PVTZ AUX)
    Blend: AUG-CC-PVTZ-JKFIT

    Orbital Energies [Eh]
    ---------------------

    Doubly Occupied:

       1A    -79.674763     2A    -20.200415     3A    -20.118543
       4A    -20.118358     5A    -20.115933     6A    -10.968669
       7A    -10.961051     8A    -10.935318     9A     -7.188968
      10A     -5.088427    11A     -5.085969    12A     -5.085910
      13A     -1.014256    14A     -0.928921    15A     -0.860085
      16A     -0.859557    17A     -0.752263    18A     -0.665802
      19A     -0.516108    20A     -0.397925    21A     -0.335590
      22A     -0.317080    23A     -0.302874    24A     -0.276949
      25A     -0.246722    26A     -0.242862    27A     -0.224325
      28A     -0.189745    29A     -0.183573    30A     -0.166980
      31A     -0.116232    32A     -0.094713    33A     -0.091465
      34A     -0.082230    35A     -0.057312    36A     -0.049752
      37A     -0.026451

  @DF-RHF Final Energy:  -758.05614284000853

   => Energetics <=

    Nuclear Repulsion Energy =            504.0630578189843618
    One-Electron Energy =               -2075.1542106374472496
    Two-Electron Energy =                 813.0350099784543545
    Total Energy =                       -758.0561428400085333
  Basis Set: (AUG-CC-PVTZ AUX)
    Blend: AUG-CC-PVTZ-RI
    Molecular point group: c1

    Geometry (in Angstrom), charge = -2, multiplicity = 1:

       Center              X                  Y                   Z               Mass
    ------------   -----------------  -----------------  -----------------  -----------------
         P            1.106678420702    -0.015100760493     0.046696510078    30.973761998420
         O           -0.511327579298    -0.381047760493    -0.677469489922    15.994914619570
         O            2.021539420702    -0.513738760493    -1.075611489922    15.994914619570
         O            1.069114420702    -0.845826760493     1.343886510078    15.994914619570
         O            1.036455420702     1.515168239507     0.252668510078    15.994914619570
         C           -1.567645579298    -0.059077760493     0.182060510078    12.000000000000
         C           -2.030265579298     1.380170239507    -0.061655489922    12.000000000000
         C           -2.690587579298    -1.069127760493    -0.060380489922    12.000000000000
         H           -1.268035779298    -0.142749960493     1.133880110078     1.007825032230
         H           -2.826229579298     1.695599239507     0.634200510078     1.007825032230
         H           -1.132663579298     1.993572239507     0.059596510078     1.007825032230
         H           -2.406756579298     1.475619239507    -1.089883489922     1.007825032230
         H           -3.577841579298    -0.875240760493     0.563268510078     1.007825032230
         H           -2.318571579298    -2.076897760493     0.148567510078     1.007825032230
         H           -2.990753579298    -1.027930760493    -1.115287489922     1.007825032230

  Basis Set: AUG-CC-PVTZ
    Blend: AUG-CC-PVTZ
  Basis Set: (AUG-CC-PVTZ AUX)
    Blend: AUG-CC-PVTZ-JKFIT
	 Reference Energy          =    -758.0561428400085333 [Eh]
	 Singles Energy            =      -0.0000000000000000 [Eh]
	 Same-Spin Energy          =      -0.4693363527523629 [Eh]
	 Opposite-Spin Energy      =      -1.4022962475652712 [Eh]
	 Correlation Energy        =      -1.8716326003176340 [Eh]
	 Total Energy              =    -759.9277754403261724 [Eh]

	 ================> DF-SCS-MP2 Energies <==================
	-----------------------------------------------------------
	 SCS Same-Spin Scale       =       0.3333333333333333 [-]
	 SCS Opposite-Spin Scale   =       1.2000000000000000 [-]
	 SCS Same-Spin Energy      =      -0.1564454509174543 [Eh]
	 SCS Opposite-Spin Energy  =      -1.6827554970783254 [Eh]
	 SCS Correlation Energy    =      -1.8392009479957796 [Eh]
	 SCS Total Energy          =    -759.8953437880043111 [Eh]
	-----------------------------------------------------------

  Dipole Moment: [D]
     X:    -8.2822      Y:     0.0891      Z:     0.0982     Total:     8.2833

*** Psi4 exiting successfully. Buy a developer a beer!
