                               Psi4 1.4a3.dev225

  ==> Input File <==

--------------------------------------------------------------------------
#psi4
#
memory 32 gb

molecule  {
-2 1
  P        1.2274490    -0.0222580     0.0433940
  O       -0.3905570    -0.3882050    -0.6807720
  O        2.1423100    -0.5208960    -1.0789140
  O        1.1898850    -0.8529840     1.3405840
  O        1.1572260     1.5080110     0.2493660
  C       -1.4468750    -0.0662350     0.1787580
  C       -1.9094950     1.3730130    -0.0649580
  C       -2.5698170    -1.0762850    -0.0636830
  H       -1.0575046    -0.1749747     1.4157348
  H       -2.7054590     1.6884420     0.6308980
  H       -1.0118930     1.9864150     0.0562940
  H       -2.2859860     1.4684620    -1.0931860
  H       -3.4570710    -0.8823980     0.5599660
  H       -2.1978010    -2.0840550     0.1452650
  H       -2.8699830    -1.0350880    -1.1185900
units angstrom
no_reorient  #important for SAPT in psi4, default
symmetry c1  #important for SAPT in psi4, default
}

set PROPERTIES_ORIGIN ["COM"]
properties('MP2/aug-cc-pvtz', properties = ['dipole'])
--------------------------------------------------------------------------

    Molecular point group: c1
  Charge       = -2
  Multiplicity = 1
  Basis Set: AUG-CC-PVTZ
    Blend: AUG-CC-PVTZ
  Basis Set: (AUG-CC-PVTZ AUX)
    Blend: AUG-CC-PVTZ-JKFIT

    Orbital Energies [Eh]
    ---------------------

    Doubly Occupied:

       1A    -79.676212     2A    -20.207747     3A    -20.119182
       4A    -20.118465     5A    -20.117388     6A    -11.002129
       7A    -10.963218     8A    -10.937949     9A     -7.190454
      10A     -5.089964    11A     -5.087415    12A     -5.087348
      13A     -1.017179    14A     -0.930031    15A     -0.861210
      16A     -0.860128    17A     -0.748151    18A     -0.666970
      19A     -0.482882    20A     -0.381536    21A     -0.335294
      22A     -0.319327    23A     -0.303752    24A     -0.276920
      25A     -0.245734    26A     -0.240268    27A     -0.226380
      28A     -0.190470    29A     -0.181856    30A     -0.149810
      31A     -0.110827    32A     -0.094260    33A     -0.092502
      34A     -0.082711    35A     -0.057627    36A     -0.051083
      37A     -0.027058

  @DF-RHF Final Energy:  -758.04115245389107

   => Energetics <=

    Nuclear Repulsion Energy =            502.6959238865168231
    One-Electron Energy =               -2072.4112760922494090
    Two-Electron Energy =                 811.6741997518415701
    Total Energy =                       -758.0411524538910726
  Basis Set: (AUG-CC-PVTZ AUX)
    Blend: AUG-CC-PVTZ-RI
    Molecular point group: c1

    Geometry (in Angstrom), charge = -2, multiplicity = 1:

       Center              X                  Y                   Z               Mass
    ------------   -----------------  -----------------  -----------------  -----------------
         P            1.106022930794    -0.014917701408     0.044614107922    30.973761998420
         O           -0.511983069206    -0.380864701408    -0.679551892078    15.994914619570
         O            2.020883930794    -0.513555701408    -1.077693892078    15.994914619570
         O            1.068458930794    -0.845643701408     1.341804107922    15.994914619570
         O            1.035799930794     1.515351298592     0.250586107922    15.994914619570
         C           -1.568301069206    -0.058894701408     0.179978107922    12.000000000000
         C           -2.030921069206     1.380353298592    -0.063737892078    12.000000000000
         C           -2.691243069206    -1.068944701408    -0.062462892078    12.000000000000
         H           -1.178930669206    -0.167634401408     1.416954907922     1.007825032230
         H           -2.826885069206     1.695782298592     0.632118107922     1.007825032230
         H           -1.133319069206     1.993755298592     0.057514107922     1.007825032230
         H           -2.407412069206     1.475802298592    -1.091965892078     1.007825032230
         H           -3.578497069206    -0.875057701408     0.561186107922     1.007825032230
         H           -2.319227069206    -2.076714701408     0.146485107922     1.007825032230
         H           -2.991409069206    -1.027747701408    -1.117369892078     1.007825032230

  Basis Set: AUG-CC-PVTZ
    Blend: AUG-CC-PVTZ
  Basis Set: (AUG-CC-PVTZ AUX)
    Blend: AUG-CC-PVTZ-JKFIT
	 Reference Energy          =    -758.0411524538910726 [Eh]
	 Singles Energy            =      -0.0000000000000000 [Eh]
	 Same-Spin Energy          =      -0.4705865435163453 [Eh]
	 Opposite-Spin Energy      =      -1.4056263499370707 [Eh]
	 Correlation Energy        =      -1.8762128934534159 [Eh]
	 Total Energy              =    -759.9173653473444574 [Eh]

	 ================> DF-SCS-MP2 Energies <==================
	-----------------------------------------------------------
	 SCS Same-Spin Scale       =       0.3333333333333333 [-]
	 SCS Opposite-Spin Scale   =       1.2000000000000000 [-]
	 SCS Same-Spin Energy      =      -0.1568621811721151 [Eh]
	 SCS Opposite-Spin Energy  =      -1.6867516199244847 [Eh]
	 SCS Correlation Energy    =      -1.8436138010965999 [Eh]
	 SCS Total Energy          =    -759.8847662549876532 [Eh]
	-----------------------------------------------------------

  Dipole Moment: [D]
     X:    -8.0932      Y:     0.0806      Z:    -0.0982     Total:     8.0942

*** Psi4 exiting successfully. Buy a developer a beer!
