                               Psi4 1.3.2 release

  ==> Input File <==

--------------------------------------------------------------------------
#psi4
#
memory 32 gb

molecule  {
0 1
  O        1.7203660    -0.6953490    -0.0000010
  N        0.1393260     1.0073400     0.0000030
  C        0.4225050    -0.2936560     0.0000000
  C       -0.5457690    -1.3124174     0.1499970
  C       -1.8791730    -0.9359260    -0.0000020
  C       -2.2045600     0.4273250     0.0000020
  C       -1.1677370     1.3501220     0.0000040
  C        2.6948290     0.3578870    -0.0000010
  H       -0.2317940    -2.3512570    -0.0000050
  H       -2.6601020    -1.6923860    -0.0000030
  H       -3.2375940     0.7610840     0.0000020
  H       -1.3695760     2.4196570     0.0000060
  H        2.5921510     0.9846430     0.8882900
  H        2.5921450     0.9846480    -0.8882890
  H        3.6559850    -0.1549850    -0.0000060
units angstrom
no_reorient  #important for SAPT in psi4, default
symmetry c1  #important for SAPT in psi4, default
}

set PROPERTIES_ORIGIN ["COM"]
properties('MP2/aug-cc-pvtz', properties = ['dipole'])
--------------------------------------------------------------------------

    Molecular point group: c1
  Charge       = 0
  Multiplicity = 1
  Basis Set: AUG-CC-PVTZ
    Blend: AUG-CC-PVTZ
  Basis Set: (AUG-CC-PVTZ AUX)
    Blend: AUG-CC-PVTZ-JKFIT

    Orbital Energies [Eh]
    ---------------------

    Doubly Occupied:

       1A    -20.588936     2A    -15.561498     3A    -11.340054
       4A    -11.282214     5A    -11.274987     6A    -11.264552
       7A    -11.238344     8A    -11.233585     9A     -1.417606
      10A     -1.248117    11A     -1.087999    12A     -1.030237
      13A     -0.944716    14A     -0.863086    15A     -0.828883
      16A     -0.726571    17A     -0.684114    18A     -0.665676
      19A     -0.653402    20A     -0.617986    21A     -0.597529
      22A     -0.560780    23A     -0.546365    24A     -0.536283
      25A     -0.512874    26A     -0.478254    27A     -0.426932
      28A     -0.385901    29A     -0.325371

  @DF-RHF Final Energy:  -360.70928363910605

   => Energetics <=

    Nuclear Repulsion Energy =            350.2133735795122220
    One-Electron Energy =               -1183.9996078594110713
    Two-Electron Energy =                 473.0769506407928020
    Total Energy =                       -360.7092836391060473
  Basis Set: (AUG-CC-PVTZ AUX)
    Blend: AUG-CC-PVTZ-RI
    Molecular point group: c1

    Geometry (in Angstrom), charge = 0, multiplicity = 1:

       Center              X                  Y                   Z               Mass
    ------------   -----------------  -----------------  -----------------  -----------------
         O            1.732644921955    -0.686753827185    -0.016506963826    15.994914619570
         N            0.151604921955     1.015935172815    -0.016502963826    14.003074004430
         C            0.434783921955    -0.285060827185    -0.016505963826    12.000000000000
         C           -0.533490078045    -1.303822227185     0.133491036174    12.000000000000
         C           -1.866894078045    -0.927330827185    -0.016507963826    12.000000000000
         C           -2.192281078045     0.435920172815    -0.016503963826    12.000000000000
         C           -1.155458078045     1.358717172815    -0.016501963826    12.000000000000
         C            2.707107921955     0.366482172815    -0.016506963826    12.000000000000
         H           -0.219515078045    -2.342661827185    -0.016510963826     1.007825032230
         H           -2.647823078045    -1.683790827185    -0.016508963826     1.007825032230
         H           -3.225315078045     0.769679172815    -0.016503963826     1.007825032230
         H           -1.357297078045     2.428252172815    -0.016499963826     1.007825032230
         H            2.604429921955     0.993238172815     0.871784036174     1.007825032230
         H            2.604423921955     0.993243172815    -0.904794963826     1.007825032230
         H            3.668263921955    -0.146389827185    -0.016511963826     1.007825032230

  Basis Set: AUG-CC-PVTZ
    Blend: AUG-CC-PVTZ
  Basis Set: (AUG-CC-PVTZ AUX)
    Blend: AUG-CC-PVTZ-JKFIT
	 Reference Energy          =    -360.7092836391060473 [Eh]
	 Singles Energy            =      -0.0000000000000000 [Eh]
	 Same-Spin Energy          =      -0.3789597071144100 [Eh]
	 Opposite-Spin Energy      =      -1.1795525092515620 [Eh]
	 Correlation Energy        =      -1.5585122163659719 [Eh]
	 Total Energy              =    -362.2677958554720021 [Eh]

	 ================> DF-SCS-MP2 Energies <==================
	-----------------------------------------------------------
	 SCS Same-Spin Scale       =       0.3333333333333333 [-]
	 SCS Opposite-Spin Scale   =       1.2000000000000000 [-]
	 SCS Same-Spin Energy      =      -0.1263199023714700 [Eh]
	 SCS Opposite-Spin Energy  =      -1.4154630111018742 [Eh]
	 SCS Correlation Energy    =      -1.5417829134733443 [Eh]
	 SCS Total Energy          =    -362.2510665525794025 [Eh]
	-----------------------------------------------------------

  Dipole Moment: [D]
     X:    -0.7774      Y:    -0.2012      Z:    -0.0733     Total:     0.8063

*** Psi4 exiting successfully. Buy a developer a beer!
