                               Psi4 1.3.2 release

  ==> Input File <==

--------------------------------------------------------------------------
#psi4
#
memory 32 gb

molecule  {
0 1
  O        1.7203660    -0.6953490    -0.0000010
  N        0.1393260     1.0073400     0.0000030
  C        0.4225050    -0.2936560     0.0000000
  C       -0.5457690    -1.3124175     0.1999970
  C       -1.8791730    -0.9359260    -0.0000020
  C       -2.2045600     0.4273250     0.0000020
  C       -1.1677370     1.3501220     0.0000040
  C        2.6948290     0.3578870    -0.0000010
  H       -0.2317940    -2.3512570    -0.0000050
  H       -2.6601020    -1.6923860    -0.0000030
  H       -3.2375940     0.7610840     0.0000020
  H       -1.3695760     2.4196570     0.0000060
  H        2.5921510     0.9846430     0.8882900
  H        2.5921450     0.9846480    -0.8882890
  H        3.6559850    -0.1549850    -0.0000060
units angstrom
no_reorient  #important for SAPT in psi4, default
symmetry c1  #important for SAPT in psi4, default
}

set PROPERTIES_ORIGIN ["COM"]
properties('MP2/aug-cc-pvtz', properties = ['dipole'])
--------------------------------------------------------------------------

    Molecular point group: c1
  Charge       = 0
  Multiplicity = 1
  Basis Set: AUG-CC-PVTZ
    Blend: AUG-CC-PVTZ
  Basis Set: (AUG-CC-PVTZ AUX)
    Blend: AUG-CC-PVTZ-JKFIT

    Orbital Energies [Eh]
    ---------------------

    Doubly Occupied:

       1A    -20.589333     2A    -15.561463     3A    -11.341335
       4A    -11.283220     5A    -11.275131     6A    -11.265966
       7A    -11.239586     8A    -11.233597     9A     -1.417868
      10A     -1.248240    11A     -1.087197    12A     -1.029760
      13A     -0.944668    14A     -0.862812    15A     -0.828206
      16A     -0.726428    17A     -0.683378    18A     -0.664485
      19A     -0.653509    20A     -0.616834    21A     -0.597353
      22A     -0.559996    23A     -0.546456    24A     -0.534607
      25A     -0.513026    26A     -0.478169    27A     -0.426585
      28A     -0.385523    29A     -0.325525

  @DF-RHF Final Energy:  -360.70427465875889

   => Energetics <=

    Nuclear Repulsion Energy =            350.0135302703598086
    One-Electron Energy =               -1183.5951022346441732
    Two-Electron Energy =                 472.8772973055255306
    Total Energy =                       -360.7042746587588908
  Basis Set: (AUG-CC-PVTZ AUX)
    Blend: AUG-CC-PVTZ-RI
    Molecular point group: c1

    Geometry (in Angstrom), charge = 0, multiplicity = 1:

       Center              X                  Y                   Z               Mass
    ------------   -----------------  -----------------  -----------------  -----------------
         O            1.732644921955    -0.686753816181    -0.022008887654    15.994914619570
         N            0.151604921955     1.015935183819    -0.022004887654    14.003074004430
         C            0.434783921955    -0.285060816181    -0.022007887654    12.000000000000
         C           -0.533490078045    -1.303822316181     0.177989112346    12.000000000000
         C           -1.866894078045    -0.927330816181    -0.022009887654    12.000000000000
         C           -2.192281078045     0.435920183819    -0.022005887654    12.000000000000
         C           -1.155458078045     1.358717183819    -0.022003887654    12.000000000000
         C            2.707107921955     0.366482183819    -0.022008887654    12.000000000000
         H           -0.219515078045    -2.342661816181    -0.022012887654     1.007825032230
         H           -2.647823078045    -1.683790816181    -0.022010887654     1.007825032230
         H           -3.225315078045     0.769679183819    -0.022005887654     1.007825032230
         H           -1.357297078045     2.428252183819    -0.022001887654     1.007825032230
         H            2.604429921955     0.993238183819     0.866282112346     1.007825032230
         H            2.604423921955     0.993243183819    -0.910296887654     1.007825032230
         H            3.668263921955    -0.146389816181    -0.022013887654     1.007825032230

  Basis Set: AUG-CC-PVTZ
    Blend: AUG-CC-PVTZ
  Basis Set: (AUG-CC-PVTZ AUX)
    Blend: AUG-CC-PVTZ-JKFIT
	 Reference Energy          =    -360.7042746587588908 [Eh]
	 Singles Energy            =      -0.0000000000000000 [Eh]
	 Same-Spin Energy          =      -0.3791057607840749 [Eh]
	 Opposite-Spin Energy      =      -1.1800975606974391 [Eh]
	 Correlation Energy        =      -1.5592033214815140 [Eh]
	 Total Energy              =    -362.2634779802403955 [Eh]

	 ================> DF-SCS-MP2 Energies <==================
	-----------------------------------------------------------
	 SCS Same-Spin Scale       =       0.3333333333333333 [-]
	 SCS Opposite-Spin Scale   =       1.2000000000000000 [-]
	 SCS Same-Spin Energy      =      -0.1263685869280250 [Eh]
	 SCS Opposite-Spin Energy  =      -1.4161170728369268 [Eh]
	 SCS Correlation Energy    =      -1.5424856597649517 [Eh]
	 SCS Total Energy          =    -362.2467603185238545 [Eh]
	-----------------------------------------------------------

  Dipole Moment: [D]
     X:    -0.7766      Y:    -0.1644      Z:    -0.0998     Total:     0.8001

*** Psi4 exiting successfully. Buy a developer a beer!
