                               Psi4 1.3.2 release

  ==> Input File <==

--------------------------------------------------------------------------
#psi4
#
memory 32 gb

molecule  {
0 1
  O        1.7203660    -0.6953490    -0.0000010
  N        0.1393260     1.0073400     0.0000030
  C        0.4225050    -0.2936560     0.0000000
  C       -0.5457690    -1.3124173     0.0999970
  C       -1.8791730    -0.9359260    -0.0000020
  C       -2.2045600     0.4273250     0.0000020
  C       -1.1677370     1.3501220     0.0000040
  C        2.6948290     0.3578870    -0.0000010
  H       -0.2317940    -2.3512570    -0.0000050
  H       -2.6601020    -1.6923860    -0.0000030
  H       -3.2375940     0.7610840     0.0000020
  H       -1.3695760     2.4196570     0.0000060
  H        2.5921510     0.9846430     0.8882900
  H        2.5921450     0.9846480    -0.8882890
  H        3.6559850    -0.1549850    -0.0000060
units angstrom
no_reorient  #important for SAPT in psi4, default
symmetry c1  #important for SAPT in psi4, default
}

set PROPERTIES_ORIGIN ["COM"]
properties('MP2/aug-cc-pvtz', properties = ['dipole'])
--------------------------------------------------------------------------

    Molecular point group: c1
  Charge       = 0
  Multiplicity = 1
  Basis Set: AUG-CC-PVTZ
    Blend: AUG-CC-PVTZ
  Basis Set: (AUG-CC-PVTZ AUX)
    Blend: AUG-CC-PVTZ-JKFIT

    Orbital Energies [Eh]
    ---------------------

    Doubly Occupied:

       1A    -20.588655     2A    -15.561534     3A    -11.339124
       4A    -11.281501     5A    -11.274886     6A    -11.263526
       7A    -11.237441     8A    -11.233587     9A     -1.417420
      10A     -1.248038    11A     -1.088588    12A     -1.030573
      13A     -0.944754    14A     -0.863285    15A     -0.829392
      16A     -0.726713    17A     -0.684662    18A     -0.666615
      19A     -0.653307    20A     -0.618849    21A     -0.597618
      22A     -0.561355    23A     -0.546239    24A     -0.537512
      25A     -0.512759    26A     -0.478310    27A     -0.427177
      28A     -0.386183    29A     -0.325275

  @DF-RHF Final Energy:  -360.71282902108931

   => Energetics <=

    Nuclear Repulsion Energy =            350.3575361571241729
    One-Electron Energy =               -1184.2909766430486798
    Two-Electron Energy =                 473.2206114648352013
    Total Energy =                       -360.7128290210893056
  Basis Set: (AUG-CC-PVTZ AUX)
    Blend: AUG-CC-PVTZ-RI
    Molecular point group: c1

    Geometry (in Angstrom), charge = 0, multiplicity = 1:

       Center              X                  Y                   Z               Mass
    ------------   -----------------  -----------------  -----------------  -----------------
         O            1.732644921955    -0.686753838189    -0.011005039997    15.994914619570
         N            0.151604921955     1.015935161811    -0.011001039997    14.003074004430
         C            0.434783921955    -0.285060838189    -0.011004039997    12.000000000000
         C           -0.533490078045    -1.303822138189     0.088992960003    12.000000000000
         C           -1.866894078045    -0.927330838189    -0.011006039997    12.000000000000
         C           -2.192281078045     0.435920161811    -0.011002039997    12.000000000000
         C           -1.155458078045     1.358717161811    -0.011000039997    12.000000000000
         C            2.707107921955     0.366482161811    -0.011005039997    12.000000000000
         H           -0.219515078045    -2.342661838189    -0.011009039997     1.007825032230
         H           -2.647823078045    -1.683790838189    -0.011007039997     1.007825032230
         H           -3.225315078045     0.769679161811    -0.011002039997     1.007825032230
         H           -1.357297078045     2.428252161811    -0.010998039997     1.007825032230
         H            2.604429921955     0.993238161811     0.877285960003     1.007825032230
         H            2.604423921955     0.993243161811    -0.899293039997     1.007825032230
         H            3.668263921955    -0.146389838189    -0.011010039997     1.007825032230

  Basis Set: AUG-CC-PVTZ
    Blend: AUG-CC-PVTZ
  Basis Set: (AUG-CC-PVTZ AUX)
    Blend: AUG-CC-PVTZ-JKFIT
	 Reference Energy          =    -360.7128290210893056 [Eh]
	 Singles Energy            =      -0.0000000000000000 [Eh]
	 Same-Spin Energy          =      -0.3788551789317873 [Eh]
	 Opposite-Spin Energy      =      -1.1792018364311940 [Eh]
	 Correlation Energy        =      -1.5580570153629814 [Eh]
	 Total Energy              =    -362.2708860364522820 [Eh]

	 ================> DF-SCS-MP2 Energies <==================
	-----------------------------------------------------------
	 SCS Same-Spin Scale       =       0.3333333333333333 [-]
	 SCS Opposite-Spin Scale   =       1.2000000000000000 [-]
	 SCS Same-Spin Energy      =      -0.1262850596439291 [Eh]
	 SCS Opposite-Spin Energy  =      -1.4150422037174328 [Eh]
	 SCS Correlation Energy    =      -1.5413272633613619 [Eh]
	 SCS Total Energy          =    -362.2541562844506871 [Eh]
	-----------------------------------------------------------

  Dipole Moment: [D]
     X:    -0.7778      Y:    -0.2275      Z:    -0.0481     Total:     0.8118

*** Psi4 exiting successfully. Buy a developer a beer!
