                               Psi4 1.3.2 release

  ==> Input File <==

--------------------------------------------------------------------------
#psi4
#
memory 32 gb

molecule  {
0 1
  O        1.7203660    -0.6953490    -0.0000010
  N        0.1393260     1.0073400     0.0000030
  C        0.4225050    -0.2936560     0.0000000
  C       -0.5457691    -1.3124178     0.2999970
  C       -1.8791730    -0.9359260    -0.0000020
  C       -2.2045600     0.4273250     0.0000020
  C       -1.1677370     1.3501220     0.0000040
  C        2.6948290     0.3578870    -0.0000010
  H       -0.2317940    -2.3512570    -0.0000050
  H       -2.6601020    -1.6923860    -0.0000030
  H       -3.2375940     0.7610840     0.0000020
  H       -1.3695760     2.4196570     0.0000060
  H        2.5921510     0.9846430     0.8882900
  H        2.5921450     0.9846480    -0.8882890
  H        3.6559850    -0.1549850    -0.0000060
units angstrom
no_reorient  #important for SAPT in psi4, default
symmetry c1  #important for SAPT in psi4, default
}

set PROPERTIES_ORIGIN ["COM"]
properties('MP2/aug-cc-pvtz', properties = ['dipole'])
--------------------------------------------------------------------------

    Molecular point group: c1
  Charge       = 0
  Multiplicity = 1
  Basis Set: AUG-CC-PVTZ
    Blend: AUG-CC-PVTZ
  Basis Set: (AUG-CC-PVTZ AUX)
    Blend: AUG-CC-PVTZ-JKFIT

    Orbital Energies [Eh]
    ---------------------

    Doubly Occupied:

       1A    -20.590481     2A    -15.561440     3A    -11.344845
       4A    -11.286121     5A    -11.275545     6A    -11.269847
       7A    -11.242992     8A    -11.233704     9A     -1.418621
      10A     -1.248651    11A     -1.085052    12A     -1.028330
      13A     -0.944561    14A     -0.862043    15A     -0.826480
      16A     -0.726288    17A     -0.681462    18A     -0.661874
      19A     -0.653597    20A     -0.614028    21A     -0.596452
      22A     -0.557906    23A     -0.546326    24A     -0.529936
      25A     -0.513350    26A     -0.477869    27A     -0.425551
      28A     -0.384546    29A     -0.326067

  @DF-RHF Final Energy:  -360.68972697796369

   => Energetics <=

    Nuclear Repulsion Energy =            349.4548647380923398
    One-Electron Energy =               -1182.4612515787166558
    Two-Electron Energy =                 472.3166598626606856
    Total Energy =                       -360.6897269779636872
  Basis Set: (AUG-CC-PVTZ AUX)
    Blend: AUG-CC-PVTZ-RI
    Molecular point group: c1

    Geometry (in Angstrom), charge = 0, multiplicity = 1:

       Center              X                  Y                   Z               Mass
    ------------   -----------------  -----------------  -----------------  -----------------
         O            1.732644932958    -0.686753783170    -0.033012735311    15.994914619570
         N            0.151604932958     1.015935216830    -0.033008735311    14.003074004430
         C            0.434783932958    -0.285060783170    -0.033011735311    12.000000000000
         C           -0.533490167042    -1.303822583170     0.266985264689    12.000000000000
         C           -1.866894067042    -0.927330783170    -0.033013735311    12.000000000000
         C           -2.192281067042     0.435920216830    -0.033009735311    12.000000000000
         C           -1.155458067042     1.358717216830    -0.033007735311    12.000000000000
         C            2.707107932958     0.366482216830    -0.033012735311    12.000000000000
         H           -0.219515067042    -2.342661783170    -0.033016735311     1.007825032230
         H           -2.647823067042    -1.683790783170    -0.033014735311     1.007825032230
         H           -3.225315067042     0.769679216830    -0.033009735311     1.007825032230
         H           -1.357297067042     2.428252216830    -0.033005735311     1.007825032230
         H            2.604429932958     0.993238216830     0.855278264689     1.007825032230
         H            2.604423932958     0.993243216830    -0.921300735311     1.007825032230
         H            3.668263932958    -0.146389783170    -0.033017735311     1.007825032230

  Basis Set: AUG-CC-PVTZ
    Blend: AUG-CC-PVTZ
  Basis Set: (AUG-CC-PVTZ AUX)
    Blend: AUG-CC-PVTZ-JKFIT
	 Reference Energy          =    -360.6897269779636872 [Eh]
	 Singles Energy            =      -0.0000000000000000 [Eh]
	 Same-Spin Energy          =      -0.3795097633362673 [Eh]
	 Opposite-Spin Energy      =      -1.1817418547960477 [Eh]
	 Correlation Energy        =      -1.5612516181323151 [Eh]
	 Total Energy              =    -362.2509785960959903 [Eh]

	 ================> DF-SCS-MP2 Energies <==================
	-----------------------------------------------------------
	 SCS Same-Spin Scale       =       0.3333333333333333 [-]
	 SCS Opposite-Spin Scale   =       1.2000000000000000 [-]
	 SCS Same-Spin Energy      =      -0.1265032544454224 [Eh]
	 SCS Opposite-Spin Energy  =      -1.4180902257552572 [Eh]
	 SCS Correlation Energy    =      -1.5445934802006795 [Eh]
	 SCS Total Energy          =    -362.2343204581643477 [Eh]
	-----------------------------------------------------------

  Dipole Moment: [D]
     X:    -0.7736      Y:    -0.0611      Z:    -0.1571     Total:     0.7917

*** Psi4 exiting successfully. Buy a developer a beer!
