                               Psi4 1.3.2 release

  ==> Input File <==

--------------------------------------------------------------------------
#psi4
#
memory 32 gb

molecule  {
0 1
  O        1.7203660    -0.6953490    -0.0000010
  N        0.1393260     1.0073400     0.0000030
  C        0.4225050    -0.2936560     0.0000000
  C       -0.5457690    -1.3124170    -0.0000030
  C       -1.8791730    -0.9359260    -0.0000020
  C       -2.2045600     0.4273250     0.0000020
  C       -1.1677370     1.3501220     0.0000040
  C        2.6948290     0.3578870    -0.0000010
  H       -0.2317940    -2.3512570    -0.0000050
  H       -2.6601020    -1.6923860    -0.0000030
  H       -3.2375940     0.7610840     0.0000020
  H       -1.3695760     2.4196570     0.0000060
  H        2.5921510     0.9846430     0.8882900
  H        2.5921450     0.9846480    -0.8882890
  H        3.6559850    -0.1549850    -0.0000060
units angstrom
no_reorient  #important for SAPT in psi4, default
symmetry c1  #important for SAPT in psi4, default
}

set PROPERTIES_ORIGIN ["COM"]
properties('MP2/aug-cc-pvtz', properties = ['dipole'])
--------------------------------------------------------------------------

    Molecular point group: c1
  Charge       = 0
  Multiplicity = 1
  Basis Set: AUG-CC-PVTZ
    Blend: AUG-CC-PVTZ
  Basis Set: (AUG-CC-PVTZ AUX)
    Blend: AUG-CC-PVTZ-JKFIT

    Orbital Energies [Eh]
    ---------------------

    Doubly Occupied:

       1A    -20.588433     2A    -15.561574     3A    -11.338371
       4A    -11.280938     5A    -11.274805     6A    -11.262701
       7A    -11.236715     8A    -11.233599     9A     -1.417274
      10A     -1.247982    11A     -1.089073    12A     -1.030841
      13A     -0.944790    14A     -0.863451    15A     -0.829818
      16A     -0.726854    17A     -0.685115    18A     -0.667422
      19A     -0.653222    20A     -0.619561    21A     -0.597671
      22A     -0.561827    23A     -0.546085    24A     -0.538530
      25A     -0.512666    26A     -0.478354    27A     -0.427374
      28A     -0.386419    29A     -0.325208

  @DF-RHF Final Energy:  -360.71564231163575

   => Energetics <=

    Nuclear Repulsion Energy =            350.4737330188580131
    One-Electron Energy =               -1184.5254083099712261
    Two-Electron Energy =                 473.3360329794775225
    Total Energy =                       -360.7156423116357473
  Basis Set: (AUG-CC-PVTZ AUX)
    Blend: AUG-CC-PVTZ-RI
    Molecular point group: c1

    Geometry (in Angstrom), charge = 0, multiplicity = 1:

       Center              X                  Y                   Z               Mass
    ------------   -----------------  -----------------  -----------------  -----------------
         O            1.732644921955    -0.686753871201    -0.000001192340    15.994914619570
         N            0.151604921955     1.015935128799     0.000002807660    14.003074004430
         C            0.434783921955    -0.285060871201    -0.000000192340    12.000000000000
         C           -0.533490078045    -1.303821871201    -0.000003192340    12.000000000000
         C           -1.866894078045    -0.927330871201    -0.000002192340    12.000000000000
         C           -2.192281078045     0.435920128799     0.000001807660    12.000000000000
         C           -1.155458078045     1.358717128799     0.000003807660    12.000000000000
         C            2.707107921955     0.366482128799    -0.000001192340    12.000000000000
         H           -0.219515078045    -2.342661871201    -0.000005192340     1.007825032230
         H           -2.647823078045    -1.683790871201    -0.000003192340     1.007825032230
         H           -3.225315078045     0.769679128799     0.000001807660     1.007825032230
         H           -1.357297078045     2.428252128799     0.000005807660     1.007825032230
         H            2.604429921955     0.993238128799     0.888289807660     1.007825032230
         H            2.604423921955     0.993243128799    -0.888289192340     1.007825032230
         H            3.668263921955    -0.146389871201    -0.000006192340     1.007825032230

  Basis Set: AUG-CC-PVTZ
    Blend: AUG-CC-PVTZ
  Basis Set: (AUG-CC-PVTZ AUX)
    Blend: AUG-CC-PVTZ-JKFIT
	 Reference Energy          =    -360.7156423116357473 [Eh]
	 Singles Energy            =      -0.0000000000000000 [Eh]
	 Same-Spin Energy          =      -0.3787736662171985 [Eh]
	 Opposite-Spin Energy      =      -1.1789953750750086 [Eh]
	 Correlation Energy        =      -1.5577690412922072 [Eh]
	 Total Energy              =    -362.2734113529279512 [Eh]

	 ================> DF-SCS-MP2 Energies <==================
	-----------------------------------------------------------
	 SCS Same-Spin Scale       =       0.3333333333333333 [-]
	 SCS Opposite-Spin Scale   =       1.2000000000000000 [-]
	 SCS Same-Spin Energy      =      -0.1262578887390662 [Eh]
	 SCS Opposite-Spin Energy  =      -1.4147944500900103 [Eh]
	 SCS Correlation Energy    =      -1.5410523388290764 [Eh]
	 SCS Total Energy          =    -362.2566946504648513 [Eh]
	-----------------------------------------------------------

  Dipole Moment: [D]
     X:    -0.7780      Y:    -0.2488      Z:    -0.0000     Total:     0.8168

*** Psi4 exiting successfully. Buy a developer a beer!
