                               Psi4 1.3.2 release

  ==> Input File <==

--------------------------------------------------------------------------
#psi4
#
memory 32 gb

molecule  {
0 1
  O        1.7203660    -0.6953490    -0.0000010
  N        0.1393260     1.0073400     0.0000030
  C        0.4225050    -0.2936560     0.0000000
  C       -0.5457690    -1.3124171     0.0499970
  C       -1.8791730    -0.9359260    -0.0000020
  C       -2.2045600     0.4273250     0.0000020
  C       -1.1677370     1.3501220     0.0000040
  C        2.6948290     0.3578870    -0.0000010
  H       -0.2317940    -2.3512570    -0.0000050
  H       -2.6601020    -1.6923860    -0.0000030
  H       -3.2375940     0.7610840     0.0000020
  H       -1.3695760     2.4196570     0.0000060
  H        2.5921510     0.9846430     0.8882900
  H        2.5921450     0.9846480    -0.8882890
  H        3.6559850    -0.1549850    -0.0000060
units angstrom
no_reorient  #important for SAPT in psi4, default
symmetry c1  #important for SAPT in psi4, default
}

set PROPERTIES_ORIGIN ["COM"]
properties('MP2/aug-cc-pvtz', properties = ['dipole'])
--------------------------------------------------------------------------

    Molecular point group: c1
  Charge       = 0
  Multiplicity = 1
  Basis Set: AUG-CC-PVTZ
    Blend: AUG-CC-PVTZ
  Basis Set: (AUG-CC-PVTZ AUX)
    Blend: AUG-CC-PVTZ-JKFIT

    Orbital Energies [Eh]
    ---------------------

    Doubly Occupied:

       1A    -20.588488     2A    -15.561562     3A    -11.338560
       4A    -11.281078     5A    -11.274825     6A    -11.262907
       7A    -11.236896     8A    -11.233594     9A     -1.417310
      10A     -1.247995    11A     -1.088950    12A     -1.030774
      13A     -0.944780    14A     -0.863408    15A     -0.829710
      16A     -0.726816    17A     -0.685000    18A     -0.667215
      19A     -0.653243    20A     -0.619381    21A     -0.597659
      22A     -0.561707    23A     -0.546129    24A     -0.538271
      25A     -0.512689    26A     -0.478343    27A     -0.427324
      28A     -0.386359    29A     -0.325223

  @DF-RHF Final Energy:  -360.71494126916605

   => Energetics <=

    Nuclear Repulsion Energy =            350.4446118220777180
    One-Electron Energy =               -1184.4667128907058213
    Two-Electron Energy =                 473.3071597994620561
    Total Energy =                       -360.7149412691660473
  Basis Set: (AUG-CC-PVTZ AUX)
    Blend: AUG-CC-PVTZ-RI
    Molecular point group: c1

    Geometry (in Angstrom), charge = 0, multiplicity = 1:

       Center              X                  Y                   Z               Mass
    ------------   -----------------  -----------------  -----------------  -----------------
         O            1.732644921955    -0.686753860197    -0.005503116168    15.994914619570
         N            0.151604921955     1.015935139803    -0.005499116168    14.003074004430
         C            0.434783921955    -0.285060860197    -0.005502116168    12.000000000000
         C           -0.533490078045    -1.303821960197     0.044494883832    12.000000000000
         C           -1.866894078045    -0.927330860197    -0.005504116168    12.000000000000
         C           -2.192281078045     0.435920139803    -0.005500116168    12.000000000000
         C           -1.155458078045     1.358717139803    -0.005498116168    12.000000000000
         C            2.707107921955     0.366482139803    -0.005503116168    12.000000000000
         H           -0.219515078045    -2.342661860197    -0.005507116168     1.007825032230
         H           -2.647823078045    -1.683790860197    -0.005505116168     1.007825032230
         H           -3.225315078045     0.769679139803    -0.005500116168     1.007825032230
         H           -1.357297078045     2.428252139803    -0.005496116168     1.007825032230
         H            2.604429921955     0.993238139803     0.882787883832     1.007825032230
         H            2.604423921955     0.993243139803    -0.893791116168     1.007825032230
         H            3.668263921955    -0.146389860197    -0.005508116168     1.007825032230

  Basis Set: AUG-CC-PVTZ
    Blend: AUG-CC-PVTZ
  Basis Set: (AUG-CC-PVTZ AUX)
    Blend: AUG-CC-PVTZ-JKFIT
	 Reference Energy          =    -360.7149412691660473 [Eh]
	 Singles Energy            =      -0.0000000000000000 [Eh]
	 Same-Spin Energy          =      -0.3787935619940406 [Eh]
	 Opposite-Spin Energy      =      -1.1790340928917020 [Eh]
	 Correlation Energy        =      -1.5578276548857426 [Eh]
	 Total Energy              =    -362.2727689240517748 [Eh]

	 ================> DF-SCS-MP2 Energies <==================
	-----------------------------------------------------------
	 SCS Same-Spin Scale       =       0.3333333333333333 [-]
	 SCS Opposite-Spin Scale   =       1.2000000000000000 [-]
	 SCS Same-Spin Energy      =      -0.1262645206646802 [Eh]
	 SCS Opposite-Spin Energy  =      -1.4148409114700424 [Eh]
	 SCS Correlation Energy    =      -1.5411054321347226 [Eh]
	 SCS Total Energy          =    -362.2560467013007610 [Eh]
	-----------------------------------------------------------

  Dipole Moment: [D]
     X:    -0.7780      Y:    -0.2435      Z:    -0.0238     Total:     0.8155

*** Psi4 exiting successfully. Buy a developer a beer!
