                               Psi4 1.3.2 release

  ==> Input File <==

--------------------------------------------------------------------------
#psi4
#
memory 32 gb

molecule  {
0 1
  O        1.7203660    -0.6953490    -0.0000010
  N        0.1393260     1.0073400     0.0000030
  C        0.4225050    -0.2936560     0.0000000
  C       -0.5457690    -1.3124176     0.2499970
  C       -1.8791730    -0.9359260    -0.0000020
  C       -2.2045600     0.4273250     0.0000020
  C       -1.1677370     1.3501220     0.0000040
  C        2.6948290     0.3578870    -0.0000010
  H       -0.2317940    -2.3512570    -0.0000050
  H       -2.6601020    -1.6923860    -0.0000030
  H       -3.2375940     0.7610840     0.0000020
  H       -1.3695760     2.4196570     0.0000060
  H        2.5921510     0.9846430     0.8882900
  H        2.5921450     0.9846480    -0.8882890
  H        3.6559850    -0.1549850    -0.0000060
units angstrom
no_reorient  #important for SAPT in psi4, default
symmetry c1  #important for SAPT in psi4, default
}

set PROPERTIES_ORIGIN ["COM"]
properties('MP2/aug-cc-pvtz', properties = ['dipole'])
--------------------------------------------------------------------------

    Molecular point group: c1
  Charge       = 0
  Multiplicity = 1
  Basis Set: AUG-CC-PVTZ
    Blend: AUG-CC-PVTZ
  Basis Set: (AUG-CC-PVTZ AUX)
    Blend: AUG-CC-PVTZ-JKFIT

    Orbital Energies [Eh]
    ---------------------

    Doubly Occupied:

       1A    -20.589848     2A    -15.561440     3A    -11.342942
       4A    -11.284521     5A    -11.275317     6A    -11.267742
       7A    -11.241145     8A    -11.233633     9A     -1.418207
      10A     -1.248414    11A     -1.086204    12A     -1.029129
      13A     -0.944615    14A     -0.862465    15A     -0.827393
      16A     -0.726321    17A     -0.682481    18A     -0.663166
      19A     -0.653594    20A     -0.615470    21A     -0.597025
      22A     -0.559026    23A     -0.546460    24A     -0.532488
      25A     -0.513197    26A     -0.478045    27A     -0.426129
      28A     -0.385066    29A     -0.325750

  @DF-RHF Final Energy:  -360.69776691574179

   => Energetics <=

    Nuclear Repulsion Energy =            349.7599127076962873
    One-Electron Energy =               -1183.0808963853112346
    Two-Electron Energy =                 472.6232167618732092
    Total Energy =                       -360.6977669157417949
  Basis Set: (AUG-CC-PVTZ AUX)
    Blend: AUG-CC-PVTZ-RI
    Molecular point group: c1

    Geometry (in Angstrom), charge = 0, multiplicity = 1:

       Center              X                  Y                   Z               Mass
    ------------   -----------------  -----------------  -----------------  -----------------
         O            1.732644921955    -0.686753805178    -0.027510811483    15.994914619570
         N            0.151604921955     1.015935194822    -0.027506811483    14.003074004430
         C            0.434783921955    -0.285060805178    -0.027509811483    12.000000000000
         C           -0.533490078045    -1.303822405178     0.222487188517    12.000000000000
         C           -1.866894078045    -0.927330805178    -0.027511811483    12.000000000000
         C           -2.192281078045     0.435920194822    -0.027507811483    12.000000000000
         C           -1.155458078045     1.358717194822    -0.027505811483    12.000000000000
         C            2.707107921955     0.366482194822    -0.027510811483    12.000000000000
         H           -0.219515078045    -2.342661805178    -0.027514811483     1.007825032230
         H           -2.647823078045    -1.683790805178    -0.027512811483     1.007825032230
         H           -3.225315078045     0.769679194822    -0.027507811483     1.007825032230
         H           -1.357297078045     2.428252194822    -0.027503811483     1.007825032230
         H            2.604429921955     0.993238194822     0.860780188517     1.007825032230
         H            2.604423921955     0.993243194822    -0.915798811483     1.007825032230
         H            3.668263921955    -0.146389805178    -0.027515811483     1.007825032230

  Basis Set: AUG-CC-PVTZ
    Blend: AUG-CC-PVTZ
  Basis Set: (AUG-CC-PVTZ AUX)
    Blend: AUG-CC-PVTZ-JKFIT
	 Reference Energy          =    -360.6977669157417949 [Eh]
	 Singles Energy            =      -0.0000000000000000 [Eh]
	 Same-Spin Energy          =      -0.3792904873650804 [Eh]
	 Opposite-Spin Energy      =      -1.1808312514369748 [Eh]
	 Correlation Energy        =      -1.5601217388020552 [Eh]
	 Total Energy              =    -362.2578886545438763 [Eh]

	 ================> DF-SCS-MP2 Energies <==================
	-----------------------------------------------------------
	 SCS Same-Spin Scale       =       0.3333333333333333 [-]
	 SCS Opposite-Spin Scale   =       1.2000000000000000 [-]
	 SCS Same-Spin Energy      =      -0.1264301624550268 [Eh]
	 SCS Opposite-Spin Energy  =      -1.4169975017243697 [Eh]
	 SCS Correlation Energy    =      -1.5434276641793965 [Eh]
	 SCS Total Energy          =    -362.2411945799211708 [Eh]
	-----------------------------------------------------------

  Dipole Moment: [D]
     X:    -0.7754      Y:    -0.1176      Z:    -0.1277     Total:     0.7946

*** Psi4 exiting successfully. Buy a developer a beer!
