                               Psi4 1.3.2 release

  ==> Input File <==

--------------------------------------------------------------------------
#psi4
#
memory 32 gb

molecule  {
0 1
  O       -2.2266400     1.8867650    -0.0032170
  O       -3.7615920     0.4694410    -0.8736430
  N       -2.7859400    -1.6499310     0.5252010
  N        2.1111422     0.2722364    -0.2826908
  N        3.8978530     1.3104060     0.6447910
  N        4.0160410    -0.8946960    -0.1223760
  C       -0.6937690    -0.3717720     0.7299070
  C       -0.1993830    -0.6671070    -0.6806480
  C       -2.2227870    -0.3377670     0.8339710
  C        1.3098450    -0.8661090    -0.7166530
  C       -2.8261080     0.6730930    -0.1173080
  C        3.2319800     0.2459460     0.0175660
  H       -0.2748670     0.5765650     1.0765220
  H       -0.3365530    -1.1529370     1.4152070
  H       -0.7054620    -1.5600450    -1.0625750
  H       -0.4516800     0.1714660    -1.3406670
  H       -2.4873830     0.0287790     1.8430020
  H        1.5813230    -1.7317920    -0.0895090
  H        1.6134840    -1.1144100    -1.7484380
  H       -3.7640510    -1.5477110     0.2601170
  H       -2.7467370    -2.2384130     1.3547150
  H       -2.6964570     2.4686380    -0.6361950
  H        3.2621090     2.1005400     0.7117460
  H        4.7565350     1.5848730     0.1747350
  H        5.0073770    -0.7866830     0.0488590
  H        3.7976690    -1.4866510    -0.9131750
units angstrom
no_reorient  #important for SAPT in psi4, default
symmetry c1  #important for SAPT in psi4, default
}

set PROPERTIES_ORIGIN ["COM"]
properties('MP2/aug-cc-pvtz', properties = ['dipole'])
--------------------------------------------------------------------------

    Molecular point group: c1
  Charge       = 0
  Multiplicity = 1
  Basis Set: AUG-CC-PVTZ
    Blend: AUG-CC-PVTZ
  Basis Set: (AUG-CC-PVTZ AUX)
    Blend: AUG-CC-PVTZ-JKFIT

    Orbital Energies [Eh]
    ---------------------

    Doubly Occupied:

       1A    -20.613494     2A    -20.550632     3A    -15.562970
       4A    -15.560168     5A    -15.543331     6A    -15.498517
       7A    -11.386002     8A    -11.312441     9A    -11.275168
      10A    -11.249280    11A    -11.218602    12A    -11.210165
      13A     -1.459130    14A     -1.355806    15A     -1.314155
      16A     -1.193437    17A     -1.170543    18A     -1.155141
      19A     -1.058657    20A     -0.985750    21A     -0.903989
      22A     -0.828769    23A     -0.778446    24A     -0.765960
      25A     -0.709563    26A     -0.705110    27A     -0.702328
      28A     -0.690326    29A     -0.659084    30A     -0.643167
      31A     -0.635794    32A     -0.621380    33A     -0.610392
      34A     -0.599351    35A     -0.573663    36A     -0.555745
      37A     -0.552763    38A     -0.526322    39A     -0.497738
      40A     -0.481208    41A     -0.478239    42A     -0.473307
      43A     -0.444453    44A     -0.432446    45A     -0.397490
      46A     -0.377886    47A     -0.364191

  @DF-RHF Final Energy:  -603.11102092010117

   => Energetics <=

    Nuclear Repulsion Energy =            727.4028405516559133
    One-Electron Energy =               -2267.6627293607739375
    Two-Electron Energy =                 937.1488678890167421
    Total Energy =                       -603.1110209201011685
  Basis Set: (AUG-CC-PVTZ AUX)
    Blend: AUG-CC-PVTZ-RI
    Molecular point group: c1

    Geometry (in Angstrom), charge = 0, multiplicity = 1:

       Center              X                  Y                   Z               Mass
    ------------   -----------------  -----------------  -----------------  -----------------
         O           -2.200175828421     1.866045440561     0.004875905700    15.994914619570
         O           -3.735127828421     0.448721440561    -0.865550094300    15.994914619570
         N           -2.759475828421    -1.670650559439     0.533293905700    14.003074004430
         N            2.137606371579     0.251516840561    -0.274597894300    14.003074004430
         N            3.924317171579     1.289686440561     0.652883905700    14.003074004430
         N            4.042505171579    -0.915415559439    -0.114283094300    14.003074004430
         C           -0.667304828421    -0.392491559439     0.737999905700    12.000000000000
         C           -0.172918828421    -0.687826559439    -0.672555094300    12.000000000000
         C           -2.196322828421    -0.358486559439     0.842063905700    12.000000000000
         C            1.336309171579    -0.886828559439    -0.708560094300    12.000000000000
         C           -2.799643828421     0.652373440561    -0.109215094300    12.000000000000
         C            3.258444171579     0.225226440561     0.025658905700    12.000000000000
         H           -0.248402828421     0.555845440561     1.084614905700     1.007825032230
         H           -0.310088828421    -1.173656559439     1.423299905700     1.007825032230
         H           -0.678997828421    -1.580764559439    -1.054482094300     1.007825032230
         H           -0.425215828421     0.150746440561    -1.332574094300     1.007825032230
         H           -2.460918828421     0.008059440561     1.851094905700     1.007825032230
         H            1.607787171579    -1.752511559439    -0.081416094300     1.007825032230
         H            1.639948171579    -1.135129559439    -1.740345094300     1.007825032230
         H           -3.737586828421    -1.568430559439     0.268209905700     1.007825032230
         H           -2.720272828421    -2.259132559439     1.362807905700     1.007825032230
         H           -2.669992828421     2.447918440561    -0.628102094300     1.007825032230
         H            3.288573171579     2.079820440561     0.719838905700     1.007825032230
         H            4.782999171579     1.564153440561     0.182827905700     1.007825032230
         H            5.033841171579    -0.807402559439     0.056951905700     1.007825032230
         H            3.824133171579    -1.507370559439    -0.905082094300     1.007825032230

  Basis Set: AUG-CC-PVTZ
    Blend: AUG-CC-PVTZ
  Basis Set: (AUG-CC-PVTZ AUX)
    Blend: AUG-CC-PVTZ-JKFIT
	 Reference Energy          =    -603.1110209201011685 [Eh]
	 Singles Energy            =      -0.0000000000000000 [Eh]
	 Same-Spin Energy          =      -0.6181646443989445 [Eh]
	 Opposite-Spin Energy      =      -1.9486070546279972 [Eh]
	 Correlation Energy        =      -2.5667716990269418 [Eh]
	 Total Energy              =    -605.6777926191281267 [Eh]

	 ================> DF-SCS-MP2 Energies <==================
	-----------------------------------------------------------
	 SCS Same-Spin Scale       =       0.3333333333333333 [-]
	 SCS Opposite-Spin Scale   =       1.2000000000000000 [-]
	 SCS Same-Spin Energy      =      -0.2060548814663148 [Eh]
	 SCS Opposite-Spin Energy  =      -2.3383284655535967 [Eh]
	 SCS Correlation Energy    =      -2.5443833470199118 [Eh]
	 SCS Total Energy          =    -605.6554042671210709 [Eh]
	-----------------------------------------------------------

  Dipole Moment: [D]
     X:     2.4754      Y:     0.3975      Z:     0.2410     Total:     2.5187

*** Psi4 exiting successfully. Buy a developer a beer!
