                               Psi4 1.3.2 release

  ==> Input File <==

--------------------------------------------------------------------------
#psi4
#
memory 32 gb

molecule  {
0 1
  O       -2.2266400     1.8867650    -0.0032170
  O       -3.7615920     0.4694410    -0.8736430
  N       -2.7859400    -1.6499310     0.5252010
  N        1.9794570     0.3457110    -0.2591130
  N        3.8158077     1.3630237     0.6349441
  N        4.0160410    -0.8946960    -0.1223760
  C       -0.6937690    -0.3717720     0.7299070
  C       -0.1993830    -0.6671070    -0.6806480
  C       -2.2227870    -0.3377670     0.8339710
  C        1.3098450    -0.8661090    -0.7166530
  C       -2.8261080     0.6730930    -0.1173080
  C        3.2319800     0.2459460     0.0175660
  H       -0.2748670     0.5765650     1.0765220
  H       -0.3365530    -1.1529370     1.4152070
  H       -0.7054620    -1.5600450    -1.0625750
  H       -0.4516800     0.1714660    -1.3406670
  H       -2.4873830     0.0287790     1.8430020
  H        1.5813230    -1.7317920    -0.0895090
  H        1.6134840    -1.1144100    -1.7484380
  H       -3.7640510    -1.5477110     0.2601170
  H       -2.7467370    -2.2384130     1.3547150
  H       -2.6964570     2.4686380    -0.6361950
  H        3.2621090     2.1005400     0.7117460
  H        4.7565350     1.5848730     0.1747350
  H        5.0073770    -0.7866830     0.0488590
  H        3.7976690    -1.4866510    -0.9131750
units angstrom
no_reorient  #important for SAPT in psi4, default
symmetry c1  #important for SAPT in psi4, default
}

set PROPERTIES_ORIGIN ["COM"]
properties('MP2/aug-cc-pvtz', properties = ['dipole'])
--------------------------------------------------------------------------

    Molecular point group: c1
  Charge       = 0
  Multiplicity = 1
  Basis Set: AUG-CC-PVTZ
    Blend: AUG-CC-PVTZ
  Basis Set: (AUG-CC-PVTZ AUX)
    Blend: AUG-CC-PVTZ-JKFIT

    Orbital Energies [Eh]
    ---------------------

    Doubly Occupied:

       1A    -20.609296     2A    -20.546519     3A    -15.588049
       4A    -15.567100     5A    -15.538973     6A    -15.511586
       7A    -11.381804     8A    -11.341666     9A    -11.270206
      10A    -11.236226    11A    -11.211659    12A    -11.200590
      13A     -1.454945    14A     -1.351701    15A     -1.295852
      16A     -1.188847    17A     -1.176360    18A     -1.154440
      19A     -1.045809    20A     -0.973221    21A     -0.891982
      22A     -0.824141    23A     -0.789845    24A     -0.765239
      25A     -0.724206    26A     -0.701563    27A     -0.696351
      28A     -0.683430    29A     -0.659010    30A     -0.654723
      31A     -0.629296    32A     -0.617136    33A     -0.607571
      34A     -0.592603    35A     -0.568952    36A     -0.551408
      37A     -0.539260    38A     -0.520720    39A     -0.490051
      40A     -0.476429    41A     -0.468740    42A     -0.466348
      43A     -0.439743    44A     -0.438498    45A     -0.396421
      46A     -0.389890    47A     -0.343124

  @DF-RHF Final Energy:  -603.11503447789380

   => Energetics <=

    Nuclear Repulsion Energy =            726.2735663613706265
    One-Electron Energy =               -2265.6341434234723238
    Two-Electron Energy =                 936.2455425842077830
    Total Energy =                       -603.1150344778938006
  Basis Set: (AUG-CC-PVTZ AUX)
    Blend: AUG-CC-PVTZ-RI
    Molecular point group: c1

    Geometry (in Angstrom), charge = 0, multiplicity = 1:

       Center              X                  Y                   Z               Mass
    ------------   -----------------  -----------------  -----------------  -----------------
         O           -2.182986378051     1.855904364145     0.003771586831    15.994914619570
         O           -3.717938378051     0.438580364145    -0.866654413169    15.994914619570
         N           -2.742286378051    -1.680791635855     0.532189586831    14.003074004430
         N            2.023110621949     0.314850364145    -0.252124413169    14.003074004430
         N            3.859461321949     1.332163064145     0.641932686831    14.003074004430
         N            4.059694621949    -0.925556635855    -0.115387413169    14.003074004430
         C           -0.650115378051    -0.402632635855     0.736895586831    12.000000000000
         C           -0.155729378051    -0.697967635855    -0.673659413169    12.000000000000
         C           -2.179133378051    -0.368627635855     0.840959586831    12.000000000000
         C            1.353498621949    -0.896969635855    -0.709664413169    12.000000000000
         C           -2.782454378051     0.642232364145    -0.110319413169    12.000000000000
         C            3.275633621949     0.215085364145     0.024554586831    12.000000000000
         H           -0.231213378051     0.545704364145     1.083510586831     1.007825032230
         H           -0.292899378051    -1.183797635855     1.422195586831     1.007825032230
         H           -0.661808378051    -1.590905635855    -1.055586413169     1.007825032230
         H           -0.408026378051     0.140605364145    -1.333678413169     1.007825032230
         H           -2.443729378051    -0.002081635855     1.849990586831     1.007825032230
         H            1.624976621949    -1.762652635855    -0.082520413169     1.007825032230
         H            1.657137621949    -1.145270635855    -1.741449413169     1.007825032230
         H           -3.720397378051    -1.578571635855     0.267105586831     1.007825032230
         H           -2.703083378051    -2.269273635855     1.361703586831     1.007825032230
         H           -2.652803378051     2.437777364145    -0.629206413169     1.007825032230
         H            3.305762621949     2.069679364145     0.718734586831     1.007825032230
         H            4.800188621949     1.554012364145     0.181723586831     1.007825032230
         H            5.051030621949    -0.817543635855     0.055847586831     1.007825032230
         H            3.841322621949    -1.517511635855    -0.906186413169     1.007825032230

  Basis Set: AUG-CC-PVTZ
    Blend: AUG-CC-PVTZ
  Basis Set: (AUG-CC-PVTZ AUX)
    Blend: AUG-CC-PVTZ-JKFIT
	 Reference Energy          =    -603.1150344778938006 [Eh]
	 Singles Energy            =      -0.0000000000000000 [Eh]
	 Same-Spin Energy          =      -0.6200216704795756 [Eh]
	 Opposite-Spin Energy      =      -1.9532529377339189 [Eh]
	 Correlation Energy        =      -2.5732746082134943 [Eh]
	 Total Energy              =    -605.6883090861073242 [Eh]

	 ================> DF-SCS-MP2 Energies <==================
	-----------------------------------------------------------
	 SCS Same-Spin Scale       =       0.3333333333333333 [-]
	 SCS Opposite-Spin Scale   =       1.2000000000000000 [-]
	 SCS Same-Spin Energy      =      -0.2066738901598585 [Eh]
	 SCS Opposite-Spin Energy  =      -2.3439035252807026 [Eh]
	 SCS Correlation Energy    =      -2.5505774154405612 [Eh]
	 SCS Total Energy          =    -605.6656118933343578 [Eh]
	-----------------------------------------------------------

  Dipole Moment: [D]
     X:     3.6044      Y:     0.2115      Z:     0.4071     Total:     3.6334

*** Psi4 exiting successfully. Buy a developer a beer!
