                               Psi4 1.3.2 release

  ==> Input File <==

--------------------------------------------------------------------------
#psi4
#
memory 32 gb

molecule  {
0 1
  O       -2.2266400     1.8867650    -0.0032170
  O       -3.7615920     0.4694410    -0.8736430
  N       -2.7859400    -1.6499310     0.5252010
  N        1.9794570     0.3457110    -0.2591130
  N        3.8978530     1.3104060     0.6447910
  N        4.0160410    -0.8946960    -0.1223760
  C       -0.6937690    -0.3717720     0.7299070
  C       -0.1993830    -0.6671070    -0.6806480
  C       -2.2227870    -0.3377670     0.8339710
  C        1.3098450    -0.8661090    -0.7166530
  C       -2.8261080     0.6730930    -0.1173080
  C        3.1370940     0.0942618    -0.0718127
  H       -0.2748670     0.5765650     1.0765220
  H       -0.3365530    -1.1529370     1.4152070
  H       -0.7054620    -1.5600450    -1.0625750
  H       -0.4516800     0.1714660    -1.3406670
  H       -2.4873830     0.0287790     1.8430020
  H        1.5813230    -1.7317920    -0.0895090
  H        1.6134840    -1.1144100    -1.7484380
  H       -3.7640510    -1.5477110     0.2601170
  H       -2.7467370    -2.2384130     1.3547150
  H       -2.6964570     2.4686380    -0.6361950
  H        3.2621090     2.1005400     0.7117460
  H        4.7565350     1.5848730     0.1747350
  H        5.0073770    -0.7866830     0.0488590
  H        3.7976690    -1.4866510    -0.9131750
units angstrom
no_reorient  #important for SAPT in psi4, default
symmetry c1  #important for SAPT in psi4, default
}

set PROPERTIES_ORIGIN ["COM"]
properties('MP2/aug-cc-pvtz', properties = ['dipole'])
--------------------------------------------------------------------------

    Molecular point group: c1
  Charge       = 0
  Multiplicity = 1
  Basis Set: AUG-CC-PVTZ
    Blend: AUG-CC-PVTZ
  Basis Set: (AUG-CC-PVTZ AUX)
    Blend: AUG-CC-PVTZ-JKFIT

    Orbital Energies [Eh]
    ---------------------

    Doubly Occupied:

       1A    -20.612869     2A    -20.550206     3A    -15.594039
       4A    -15.542988     5A    -15.539144     6A    -15.525222
       7A    -11.385582     8A    -11.338042     9A    -11.274913
      10A    -11.248461    11A    -11.218298    12A    -11.208445
      13A     -1.458582    14A     -1.355316    15A     -1.314698
      16A     -1.206785    17A     -1.192646    18A     -1.113226
      19A     -1.056033    20A     -0.982307    21A     -0.898761
      22A     -0.822680    23A     -0.796622    24A     -0.772272
      25A     -0.731775    26A     -0.705929    27A     -0.699999
      28A     -0.679491    29A     -0.661056    30A     -0.636048
      31A     -0.630760    32A     -0.620784    33A     -0.605009
      34A     -0.584622    35A     -0.567091    36A     -0.557680
      37A     -0.532762    38A     -0.526224    39A     -0.491667
      40A     -0.482283    41A     -0.475736    42A     -0.469508
      43A     -0.444507    44A     -0.438707    45A     -0.397943
      46A     -0.389408    47A     -0.371805

  @DF-RHF Final Energy:  -603.08186248397169

   => Energetics <=

    Nuclear Repulsion Energy =            727.2197626038295084
    One-Electron Energy =               -2267.1853968141485893
    Two-Electron Energy =                 936.8837717263472769
    Total Energy =                       -603.0818624839716904
  Basis Set: (AUG-CC-PVTZ AUX)
    Blend: AUG-CC-PVTZ-RI
    Molecular point group: c1

    Geometry (in Angstrom), charge = 0, multiplicity = 1:

       Center              X                  Y                   Z               Mass
    ------------   -----------------  -----------------  -----------------  -----------------
         O           -2.183045273628     1.870590455337     0.009139736478    15.994914619570
         O           -3.717997273628     0.453266455337    -0.861286263522    15.994914619570
         N           -2.742345273628    -1.666105544663     0.537557736478    14.003074004430
         N            2.023051726372     0.329536455337    -0.246756263522    14.003074004430
         N            3.941447726372     1.294231455337     0.657147736478    14.003074004430
         N            4.059635726372    -0.910870544663    -0.110019263522    14.003074004430
         C           -0.650174273628    -0.387946544663     0.742263736478    12.000000000000
         C           -0.155788273628    -0.683281544663    -0.668291263522    12.000000000000
         C           -2.179192273628    -0.353941544663     0.846327736478    12.000000000000
         C            1.353439726372    -0.882283544663    -0.704296263522    12.000000000000
         C           -2.782513273628     0.656918455337    -0.104951263522    12.000000000000
         C            3.180688726372     0.078087255337    -0.059455963522    12.000000000000
         H           -0.231272273628     0.560390455337     1.088878736478     1.007825032230
         H           -0.292958273628    -1.169111544663     1.427563736478     1.007825032230
         H           -0.661867273628    -1.576219544663    -1.050218263522     1.007825032230
         H           -0.408085273628     0.155291455337    -1.328310263522     1.007825032230
         H           -2.443788273628     0.012604455337     1.855358736478     1.007825032230
         H            1.624917726372    -1.747966544663    -0.077152263522     1.007825032230
         H            1.657078726372    -1.130584544663    -1.736081263522     1.007825032230
         H           -3.720456273628    -1.563885544663     0.272473736478     1.007825032230
         H           -2.703142273628    -2.254587544663     1.367071736478     1.007825032230
         H           -2.652862273628     2.452463455337    -0.623838263522     1.007825032230
         H            3.305703726372     2.084365455337     0.724102736478     1.007825032230
         H            4.800129726372     1.568698455337     0.187091736478     1.007825032230
         H            5.050971726372    -0.802857544663     0.061215736478     1.007825032230
         H            3.841263726372    -1.502825544663    -0.900818263522     1.007825032230

  Basis Set: AUG-CC-PVTZ
    Blend: AUG-CC-PVTZ
  Basis Set: (AUG-CC-PVTZ AUX)
    Blend: AUG-CC-PVTZ-JKFIT
	 Reference Energy          =    -603.0818624839716904 [Eh]
	 Singles Energy            =      -0.0000000000000000 [Eh]
	 Same-Spin Energy          =      -0.6205763143344341 [Eh]
	 Opposite-Spin Energy      =      -1.9553885905551598 [Eh]
	 Correlation Energy        =      -2.5759649048895938 [Eh]
	 Total Energy              =    -605.6578273888612785 [Eh]

	 ================> DF-SCS-MP2 Energies <==================
	-----------------------------------------------------------
	 SCS Same-Spin Scale       =       0.3333333333333333 [-]
	 SCS Opposite-Spin Scale   =       1.2000000000000000 [-]
	 SCS Same-Spin Energy      =      -0.2068587714448114 [Eh]
	 SCS Opposite-Spin Energy  =      -2.3464663086661917 [Eh]
	 SCS Correlation Energy    =      -2.5533250801110032 [Eh]
	 SCS Total Energy          =    -605.6351875640826847 [Eh]
	-----------------------------------------------------------

  Dipole Moment: [D]
     X:     2.5576      Y:    -0.7845      Z:    -0.2058     Total:     2.6831

*** Psi4 exiting successfully. Buy a developer a beer!
