                               Psi4 1.3.2 release

  ==> Input File <==

--------------------------------------------------------------------------
#psi4
#
memory 32 gb

molecule  {
0 1
  O       -2.2266400     1.8867650    -0.0032170
  O       -3.7615920     0.4694410    -0.8736430
  N       -2.7859400    -1.6499310     0.5252010
  N        1.9794570     0.3457110    -0.2591130
  N        3.8978530     1.3104060     0.6447910
  N        4.0160410    -0.8946960    -0.1223760
  C       -0.6937690    -0.3717720     0.7299070
  C       -0.1993830    -0.6671070    -0.6806480
  C       -2.2227870    -0.3377670     0.8339710
  C        1.2180016    -1.0323212    -0.7794088
  C       -2.8261080     0.6730930    -0.1173080
  C        3.2319800     0.2459460     0.0175660
  H       -0.2748670     0.5765650     1.0765220
  H       -0.3365530    -1.1529370     1.4152070
  H       -0.7054620    -1.5600450    -1.0625750
  H       -0.4516800     0.1714660    -1.3406670
  H       -2.4873830     0.0287790     1.8430020
  H        1.5813230    -1.7317920    -0.0895090
  H        1.6134840    -1.1144100    -1.7484380
  H       -3.7640510    -1.5477110     0.2601170
  H       -2.7467370    -2.2384130     1.3547150
  H       -2.6964570     2.4686380    -0.6361950
  H        3.2621090     2.1005400     0.7117460
  H        4.7565350     1.5848730     0.1747350
  H        5.0073770    -0.7866830     0.0488590
  H        3.7976690    -1.4866510    -0.9131750
units angstrom
no_reorient  #important for SAPT in psi4, default
symmetry c1  #important for SAPT in psi4, default
}

set PROPERTIES_ORIGIN ["COM"]
properties('MP2/aug-cc-pvtz', properties = ['dipole'])
--------------------------------------------------------------------------

    Molecular point group: c1
  Charge       = 0
  Multiplicity = 1
  Basis Set: AUG-CC-PVTZ
    Blend: AUG-CC-PVTZ
  Basis Set: (AUG-CC-PVTZ AUX)
    Blend: AUG-CC-PVTZ-JKFIT

    Orbital Energies [Eh]
    ---------------------

    Doubly Occupied:

       1A    -20.611369     2A    -20.548752     3A    -15.577083
       4A    -15.565423     5A    -15.541059     6A    -15.511135
       7A    -11.384084     8A    -11.330917     9A    -11.273254
      10A    -11.241888    11A    -11.216226    12A    -11.204919
      13A     -1.457100    14A     -1.353843    15A     -1.282995
      16A     -1.191248    17A     -1.161440    18A     -1.127064
      19A     -1.053377    20A     -0.984284    21A     -0.897132
      22A     -0.819248    23A     -0.783922    24A     -0.767987
      25A     -0.707584    26A     -0.703437    27A     -0.697559
      28A     -0.687084    29A     -0.658998    30A     -0.640758
      31A     -0.626775    32A     -0.619257    33A     -0.603819
      34A     -0.593521    35A     -0.576675    36A     -0.551709
      37A     -0.536340    38A     -0.517894    39A     -0.504668
      40A     -0.482656    41A     -0.474883    42A     -0.463466
      43A     -0.442622    44A     -0.434380    45A     -0.395821
      46A     -0.372992    47A     -0.344050

  @DF-RHF Final Energy:  -603.09686376348157

   => Energetics <=

    Nuclear Repulsion Energy =            723.6488292892366871
    One-Electron Energy =               -2260.4459926207305216
    Two-Electron Energy =                 933.7002995680121558
    Total Energy =                       -603.0968637634815650
  Basis Set: (AUG-CC-PVTZ AUX)
    Blend: AUG-CC-PVTZ-RI
    Molecular point group: c1

    Geometry (in Angstrom), charge = 0, multiplicity = 1:

       Center              X                  Y                   Z               Mass
    ------------   -----------------  -----------------  -----------------  -----------------
         O           -2.183254973522     1.871591743731     0.007304852065    15.994914619570
         O           -3.718206973522     0.454267743731    -0.863121147935    15.994914619570
         N           -2.742554973522    -1.665104256269     0.535722852065    14.003074004430
         N            2.022842026478     0.330537743731    -0.248591147935    14.003074004430
         N            3.941238026478     1.295232743731     0.655312852065    14.003074004430
         N            4.059426026478    -0.909869256269    -0.111854147935    14.003074004430
         C           -0.650383973522    -0.386945256269     0.740428852065    12.000000000000
         C           -0.155997973522    -0.682280256269    -0.670126147935    12.000000000000
         C           -2.179401973522    -0.352940256269     0.844492852065    12.000000000000
         C            1.261386626478    -1.047494456269    -0.768886947935    12.000000000000
         C           -2.782722973522     0.657919743731    -0.106786147935    12.000000000000
         C            3.275365026478     0.230772743731     0.028087852065    12.000000000000
         H           -0.231481973522     0.561391743731     1.087043852065     1.007825032230
         H           -0.293167973522    -1.168110256269     1.425728852065     1.007825032230
         H           -0.662076973522    -1.575218256269    -1.052053147935     1.007825032230
         H           -0.408294973522     0.156292743731    -1.330145147935     1.007825032230
         H           -2.443997973522     0.013605743731     1.853523852065     1.007825032230
         H            1.624708026478    -1.746965256269    -0.078987147935     1.007825032230
         H            1.656869026478    -1.129583256269    -1.737916147935     1.007825032230
         H           -3.720665973522    -1.562884256269     0.270638852065     1.007825032230
         H           -2.703351973522    -2.253586256269     1.365236852065     1.007825032230
         H           -2.653071973522     2.453464743731    -0.625673147935     1.007825032230
         H            3.305494026478     2.085366743731     0.722267852065     1.007825032230
         H            4.799920026478     1.569699743731     0.185256852065     1.007825032230
         H            5.050762026478    -0.801856256269     0.059380852065     1.007825032230
         H            3.841054026478    -1.501824256269    -0.902653147935     1.007825032230

  Basis Set: AUG-CC-PVTZ
    Blend: AUG-CC-PVTZ
  Basis Set: (AUG-CC-PVTZ AUX)
    Blend: AUG-CC-PVTZ-JKFIT
	 Reference Energy          =    -603.0968637634815650 [Eh]
	 Singles Energy            =      -0.0000000000000000 [Eh]
	 Same-Spin Energy          =      -0.6209973721674196 [Eh]
	 Opposite-Spin Energy      =      -1.9570804062711800 [Eh]
	 Correlation Energy        =      -2.5780777784385993 [Eh]
	 Total Energy              =    -605.6749415419201341 [Eh]

	 ================> DF-SCS-MP2 Energies <==================
	-----------------------------------------------------------
	 SCS Same-Spin Scale       =       0.3333333333333333 [-]
	 SCS Opposite-Spin Scale   =       1.2000000000000000 [-]
	 SCS Same-Spin Energy      =      -0.2069991240558065 [Eh]
	 SCS Opposite-Spin Energy  =      -2.3484964875254160 [Eh]
	 SCS Correlation Energy    =      -2.5554956115812226 [Eh]
	 SCS Total Energy          =    -605.6523593750628152 [Eh]
	-----------------------------------------------------------

  Dipole Moment: [D]
     X:     3.0115      Y:     0.0570      Z:     0.2355     Total:     3.0212

*** Psi4 exiting successfully. Buy a developer a beer!
