                               Psi4 1.3.2 release

  ==> Input File <==

--------------------------------------------------------------------------
#psi4
#
memory 32 gb

molecule  {
0 1
  O       -2.2266400     1.8867650    -0.0032170
  O       -3.7615920     0.4694410    -0.8736430
  N       -2.7859400    -1.6499310     0.5252010
  N        1.9794570     0.3457110    -0.2591130
  N        3.8978530     1.3104060     0.6447910
  N        4.0160410    -0.8946960    -0.1223760
  C       -0.6937690    -0.3717720     0.7299070
  C       -0.1993830    -0.6671070    -0.6806480
  C       -2.2227870    -0.3377670     0.8339710
  C        1.3098450    -0.8661090    -0.7166530
  C       -2.8261080     0.6730930    -0.1173080
  C        3.1346280     0.2537002    -0.0039388
  H       -0.2748670     0.5765650     1.0765220
  H       -0.3365530    -1.1529370     1.4152070
  H       -0.7054620    -1.5600450    -1.0625750
  H       -0.4516800     0.1714660    -1.3406670
  H       -2.4873830     0.0287790     1.8430020
  H        1.5813230    -1.7317920    -0.0895090
  H        1.6134840    -1.1144100    -1.7484380
  H       -3.7640510    -1.5477110     0.2601170
  H       -2.7467370    -2.2384130     1.3547150
  H       -2.6964570     2.4686380    -0.6361950
  H        3.2621090     2.1005400     0.7117460
  H        4.7565350     1.5848730     0.1747350
  H        5.0073770    -0.7866830     0.0488590
  H        3.7976690    -1.4866510    -0.9131750
units angstrom
no_reorient  #important for SAPT in psi4, default
symmetry c1  #important for SAPT in psi4, default
}

set PROPERTIES_ORIGIN ["COM"]
properties('MP2/aug-cc-pvtz', properties = ['dipole'])
--------------------------------------------------------------------------

    Molecular point group: c1
  Charge       = 0
  Multiplicity = 1
  Basis Set: AUG-CC-PVTZ
    Blend: AUG-CC-PVTZ
  Basis Set: (AUG-CC-PVTZ AUX)
    Blend: AUG-CC-PVTZ-JKFIT

    Orbital Energies [Eh]
    ---------------------

    Doubly Occupied:

       1A    -20.613085     2A    -20.550253     3A    -15.570249
       4A    -15.561198     5A    -15.542798     6A    -15.520935
       7A    -11.385624     8A    -11.332075     9A    -11.274769
      10A    -11.249679    11A    -11.217944    12A    -11.208125
      13A     -1.458730    14A     -1.355417    15A     -1.300446
      16A     -1.192987    17A     -1.173400    18A     -1.143231
      19A     -1.057712    20A     -0.984564    21A     -0.901263
      22A     -0.824097    23A     -0.776689    24A     -0.762032
      25A     -0.709413    26A     -0.703748    27A     -0.699613
      28A     -0.687741    29A     -0.659132    30A     -0.645369
      31A     -0.631440    32A     -0.620841    33A     -0.605269
      34A     -0.593655    35A     -0.571416    36A     -0.553935
      37A     -0.543584    38A     -0.521673    39A     -0.496009
      40A     -0.481345    41A     -0.474581    42A     -0.472380
      43A     -0.444016    44A     -0.433812    45A     -0.400884
      46A     -0.395386    47A     -0.374310

  @DF-RHF Final Energy:  -603.11273576675103

   => Energetics <=

    Nuclear Repulsion Energy =            726.8027472191208744
    One-Electron Energy =               -2266.4772611993812461
    Two-Electron Energy =                 936.5617782135093421
    Total Energy =                       -603.1127357667510296
  Basis Set: (AUG-CC-PVTZ AUX)
    Blend: AUG-CC-PVTZ-RI
    Molecular point group: c1

    Geometry (in Angstrom), charge = 0, multiplicity = 1:

       Center              X                  Y                   Z               Mass
    ------------   -----------------  -----------------  -----------------  -----------------
         O           -2.182875313745     1.859601756319     0.004461780237    15.994914619570
         O           -3.717827313745     0.442277756319    -0.865964219763    15.994914619570
         N           -2.742175313745    -1.677094243681     0.532879780237    14.003074004430
         N            2.023221686255     0.318547756319    -0.251434219763    14.003074004430
         N            3.941617686255     1.283242756319     0.652469780237    14.003074004430
         N            4.059805686255    -0.921859243681    -0.114697219763    14.003074004430
         C           -0.650004313745    -0.398935243681     0.737585780237    12.000000000000
         C           -0.155618313745    -0.694270243681    -0.672969219763    12.000000000000
         C           -2.179022313745    -0.364930243681     0.841649780237    12.000000000000
         C            1.353609686255    -0.893272243681    -0.708974219763    12.000000000000
         C           -2.782343313745     0.645929756319    -0.109629219763    12.000000000000
         C            3.178392686255     0.226536956319     0.003739980237    12.000000000000
         H           -0.231102313745     0.549401756319     1.084200780237     1.007825032230
         H           -0.292788313745    -1.180100243681     1.422885780237     1.007825032230
         H           -0.661697313745    -1.587208243681    -1.054896219763     1.007825032230
         H           -0.407915313745     0.144302756319    -1.332988219763     1.007825032230
         H           -2.443618313745     0.001615756319     1.850680780237     1.007825032230
         H            1.625087686255    -1.758955243681    -0.081830219763     1.007825032230
         H            1.657248686255    -1.141573243681    -1.740759219763     1.007825032230
         H           -3.720286313745    -1.574874243681     0.267795780237     1.007825032230
         H           -2.702972313745    -2.265576243681     1.362393780237     1.007825032230
         H           -2.652692313745     2.441474756319    -0.628516219763     1.007825032230
         H            3.305873686255     2.073376756319     0.719424780237     1.007825032230
         H            4.800299686255     1.557709756319     0.182413780237     1.007825032230
         H            5.051141686255    -0.813846243681     0.056537780237     1.007825032230
         H            3.841433686255    -1.513814243681    -0.905496219763     1.007825032230

  Basis Set: AUG-CC-PVTZ
    Blend: AUG-CC-PVTZ
  Basis Set: (AUG-CC-PVTZ AUX)
    Blend: AUG-CC-PVTZ-JKFIT
	 Reference Energy          =    -603.1127357667510296 [Eh]
	 Singles Energy            =      -0.0000000000000000 [Eh]
	 Same-Spin Energy          =      -0.6188079145474774 [Eh]
	 Opposite-Spin Energy      =      -1.9520089625576951 [Eh]
	 Correlation Energy        =      -2.5708168771051723 [Eh]
	 Total Energy              =    -605.6835526438561601 [Eh]

	 ================> DF-SCS-MP2 Energies <==================
	-----------------------------------------------------------
	 SCS Same-Spin Scale       =       0.3333333333333333 [-]
	 SCS Opposite-Spin Scale   =       1.2000000000000000 [-]
	 SCS Same-Spin Energy      =      -0.2062693048491591 [Eh]
	 SCS Opposite-Spin Energy  =      -2.3424107550692339 [Eh]
	 SCS Correlation Energy    =      -2.5486800599183930 [Eh]
	 SCS Total Energy          =    -605.6614158266694403 [Eh]
	-----------------------------------------------------------

  Dipole Moment: [D]
     X:     2.4951      Y:     0.2718      Z:     0.1406     Total:     2.5138

*** Psi4 exiting successfully. Buy a developer a beer!
