                               Psi4 1.3.2 release

  ==> Input File <==

--------------------------------------------------------------------------
#psi4
#
memory 32 gb

molecule  {
0 1
  O       -2.2266400     1.8867650    -0.0032170
  O       -3.7615920     0.4694410    -0.8736430
  N       -2.7859400    -1.6499310     0.5252010
  N        1.9794570     0.3457110    -0.2591130
  N        3.8978530     1.3104060     0.6447910
  N        4.0160410    -0.8946960    -0.1223760
  C       -0.6937690    -0.3717720     0.7299070
  C       -0.1993830    -0.6671070    -0.6806480
  C       -2.2227870    -0.3377670     0.8339710
  C        1.3098450    -0.8661090    -0.7166530
  C       -2.8261080     0.6730930    -0.1173080
  C        3.2726636     0.2190157     0.0219919
  H       -0.2748670     0.5765650     1.0765220
  H       -0.3365530    -1.1529370     1.4152070
  H       -0.7054620    -1.5600450    -1.0625750
  H       -0.4516800     0.1714660    -1.3406670
  H       -2.4873830     0.0287790     1.8430020
  H        1.5813230    -1.7317920    -0.0895090
  H        1.6134840    -1.1144100    -1.7484380
  H       -3.7640510    -1.5477110     0.2601170
  H       -2.7467370    -2.2384130     1.3547150
  H       -2.6964570     2.4686380    -0.6361950
  H        3.2621090     2.1005400     0.7117460
  H        4.7565350     1.5848730     0.1747350
  H        5.0073770    -0.7866830     0.0488590
  H        3.7976690    -1.4866510    -0.9131750
units angstrom
no_reorient  #important for SAPT in psi4, default
symmetry c1  #important for SAPT in psi4, default
}

set PROPERTIES_ORIGIN ["COM"]
properties('MP2/aug-cc-pvtz', properties = ['dipole'])
--------------------------------------------------------------------------

    Molecular point group: c1
  Charge       = 0
  Multiplicity = 1
  Basis Set: AUG-CC-PVTZ
    Blend: AUG-CC-PVTZ
  Basis Set: (AUG-CC-PVTZ AUX)
    Blend: AUG-CC-PVTZ-JKFIT

    Orbital Energies [Eh]
    ---------------------

    Doubly Occupied:

       1A    -20.608442     2A    -20.545685     3A    -15.592165
       4A    -15.573404     5A    -15.538125     6A    -15.511886
       7A    -11.380945     8A    -11.345154     9A    -11.269165
      10A    -11.233722    11A    -11.210212    12A    -11.199119
      13A     -1.454094    14A     -1.350869    15A     -1.302249
      16A     -1.187924    17A     -1.177458    18A     -1.147226
      19A     -1.042299    20A     -0.969477    21A     -0.888839
      22A     -0.823619    23A     -0.788779    24A     -0.763737
      25A     -0.729718    26A     -0.702369    27A     -0.699310
      28A     -0.687990    29A     -0.654627    30A     -0.645456
      31A     -0.629052    32A     -0.616304    33A     -0.603281
      34A     -0.591158    35A     -0.568295    36A     -0.552359
      37A     -0.538040    38A     -0.521446    39A     -0.489140
      40A     -0.475445    41A     -0.467873    42A     -0.465536
      43A     -0.440547    44A     -0.438509    45A     -0.395369
      46A     -0.388766    47A     -0.335078

  @DF-RHF Final Energy:  -603.12036537045958

   => Energetics <=

    Nuclear Repulsion Energy =            725.4406579755280973
    One-Electron Energy =               -2264.0415297272888893
    Two-Electron Energy =                 935.4805063813010975
    Total Energy =                       -603.1203653704595808
  Basis Set: (AUG-CC-PVTZ AUX)
    Blend: AUG-CC-PVTZ-RI
    Molecular point group: c1

    Geometry (in Angstrom), charge = 0, multiplicity = 1:

       Center              X                  Y                   Z               Mass
    ------------   -----------------  -----------------  -----------------  -----------------
         O           -2.192388904337     1.861992256544     0.002674603136    15.994914619570
         O           -3.727340904337     0.444668256544    -0.867751396864    15.994914619570
         N           -2.751688904337    -1.674703743456     0.531092603136    14.003074004430
         N            2.013708095663     0.320938256544    -0.253221396864    14.003074004430
         N            3.932104095663     1.285633256544     0.650682603136    14.003074004430
         N            4.050292095663    -0.919468743456    -0.116484396864    14.003074004430
         C           -0.659517904337    -0.396544743456     0.735798603136    12.000000000000
         C           -0.165131904337    -0.691879743456    -0.674756396864    12.000000000000
         C           -2.188535904337    -0.362539743456     0.839862603136    12.000000000000
         C            1.344096095663    -0.890881743456    -0.710761396864    12.000000000000
         C           -2.791856904337     0.648320256544    -0.111416396864    12.000000000000
         C            3.306914695663     0.194242956544     0.027883503136    12.000000000000
         H           -0.240615904337     0.551792256544     1.082413603136     1.007825032230
         H           -0.302301904337    -1.177709743456     1.421098603136     1.007825032230
         H           -0.671210904337    -1.584817743456    -1.056683396864     1.007825032230
         H           -0.417428904337     0.146693256544    -1.334775396864     1.007825032230
         H           -2.453131904337     0.004006256544     1.848893603136     1.007825032230
         H            1.615574095663    -1.756564743456    -0.083617396864     1.007825032230
         H            1.647735095663    -1.139182743456    -1.742546396864     1.007825032230
         H           -3.729799904337    -1.572483743456     0.266008603136     1.007825032230
         H           -2.712485904337    -2.263185743456     1.360606603136     1.007825032230
         H           -2.662205904337     2.443865256544    -0.630303396864     1.007825032230
         H            3.296360095663     2.075767256544     0.717637603136     1.007825032230
         H            4.790786095663     1.560100256544     0.180626603136     1.007825032230
         H            5.041628095663    -0.811455743456     0.054750603136     1.007825032230
         H            3.831920095663    -1.511423743456    -0.907283396864     1.007825032230

  Basis Set: AUG-CC-PVTZ
    Blend: AUG-CC-PVTZ
  Basis Set: (AUG-CC-PVTZ AUX)
    Blend: AUG-CC-PVTZ-JKFIT
	 Reference Energy          =    -603.1203653704595808 [Eh]
	 Singles Energy            =      -0.0000000000000000 [Eh]
	 Same-Spin Energy          =      -0.6211058080913179 [Eh]
	 Opposite-Spin Energy      =      -1.9548238306387840 [Eh]
	 Correlation Energy        =      -2.5759296387301021 [Eh]
	 Total Energy              =    -605.6962950091897255 [Eh]

	 ================> DF-SCS-MP2 Energies <==================
	-----------------------------------------------------------
	 SCS Same-Spin Scale       =       0.3333333333333333 [-]
	 SCS Opposite-Spin Scale   =       1.2000000000000000 [-]
	 SCS Same-Spin Energy      =      -0.2070352693637726 [Eh]
	 SCS Opposite-Spin Energy  =      -2.3457885967665408 [Eh]
	 SCS Correlation Energy    =      -2.5528238661303133 [Eh]
	 SCS Total Energy          =    -605.6731892365899057 [Eh]
	-----------------------------------------------------------

  Dipole Moment: [D]
     X:     3.7740      Y:     0.1435      Z:     0.3769     Total:     3.7955

*** Psi4 exiting successfully. Buy a developer a beer!
