                               Psi4 1.3.2 release

  ==> Input File <==

--------------------------------------------------------------------------
#psi4
#
memory 32 gb

molecule  {
0 1
  O       -2.2266400     1.8867650    -0.0032170
  O       -3.7615920     0.4694410    -0.8736430
  N       -2.7859400    -1.6499310     0.5252010
  N        1.9794570     0.3457110    -0.2591130
  N        3.8978530     1.3104060     0.6447910
  N        4.0160410    -0.8946960    -0.1223760
  C       -0.6937690    -0.3717720     0.7299070
  C       -0.1993830    -0.6671070    -0.6806480
  C       -2.2227870    -0.3377670     0.8339710
  C        1.3098450    -0.8661090    -0.7166530
  C       -2.8261080     0.6730930    -0.1173080
  C        3.2319800     0.2459460     0.0175660
  H       -0.2748670     0.5765650     1.0765220
  H       -0.3365530    -1.1529370     1.4152070
  H       -0.7054620    -1.5600450    -1.0625750
  H       -0.4516800     0.1714660    -1.3406670
  H       -2.4873830     0.0287790     1.8430020
  H        1.5813230    -1.7317920    -0.0895090
  H        1.6134840    -1.1144100    -1.7484380
  H       -3.7640510    -1.5477110     0.2601170
  H       -2.7467370    -2.2384130     1.3547150
  H       -2.6964570     2.4686380    -0.6361950
  H        3.3365966     2.1575629     0.6615726
  H        4.7565350     1.5848730     0.1747350
  H        5.0073770    -0.7866830     0.0488590
  H        3.7976690    -1.4866510    -0.9131750
units angstrom
no_reorient  #important for SAPT in psi4, default
symmetry c1  #important for SAPT in psi4, default
}

set PROPERTIES_ORIGIN ["COM"]
properties('MP2/aug-cc-pvtz', properties = ['dipole'])
--------------------------------------------------------------------------

    Molecular point group: c1
  Charge       = 0
  Multiplicity = 1
  Basis Set: AUG-CC-PVTZ
    Blend: AUG-CC-PVTZ
  Basis Set: (AUG-CC-PVTZ AUX)
    Blend: AUG-CC-PVTZ-JKFIT

    Orbital Energies [Eh]
    ---------------------

    Doubly Occupied:

       1A    -20.609644     2A    -20.546870     3A    -15.583936
       4A    -15.572384     5A    -15.539310     6A    -15.515342
       7A    -11.382152     8A    -11.342552     9A    -11.270590
      10A    -11.238334    11A    -11.212156    12A    -11.201547
      13A     -1.455295    14A     -1.352048    15A     -1.295267
      16A     -1.189236    17A     -1.168375    18A     -1.158181
      19A     -1.046848    20A     -0.974215    21A     -0.892800
      22A     -0.823010    23A     -0.785669    24A     -0.764695
      25A     -0.719941    26A     -0.702085    27A     -0.698426
      28A     -0.687434    29A     -0.655609    30A     -0.633802
      31A     -0.633025    32A     -0.617564    33A     -0.609076
      34A     -0.592864    35A     -0.569331    36A     -0.551376
      37A     -0.541330    38A     -0.521806    39A     -0.491373
      40A     -0.477014    41A     -0.469854    42A     -0.467539
      43A     -0.440089    44A     -0.439269    45A     -0.397709
      46A     -0.390844    47A     -0.347050

  @DF-RHF Final Energy:  -603.12504324034148

   => Energetics <=

    Nuclear Repulsion Energy =            725.5892297376619808
    One-Electron Energy =               -2264.2788080973668912
    Two-Electron Energy =                 935.5645351193634269
    Total Energy =                       -603.1250432403414834
  Basis Set: (AUG-CC-PVTZ AUX)
    Blend: AUG-CC-PVTZ-RI
    Molecular point group: c1

    Geometry (in Angstrom), charge = 0, multiplicity = 1:

       Center              X                  Y                   Z               Mass
    ------------   -----------------  -----------------  -----------------  -----------------
         O           -2.190016101190     1.859806115353     0.003270064687    15.994914619570
         O           -3.724968101190     0.442482115353    -0.867155935313    15.994914619570
         N           -2.749316101190    -1.676889884647     0.531688064687    14.003074004430
         N            2.016080898810     0.318752115353    -0.252625935313    14.003074004430
         N            3.934476898810     1.283447115353     0.651278064687    14.003074004430
         N            4.052664898810    -0.921654884647    -0.115888935313    14.003074004430
         C           -0.657145101190    -0.398730884647     0.736394064687    12.000000000000
         C           -0.162759101190    -0.694065884647    -0.674160935313    12.000000000000
         C           -2.186163101190    -0.364725884647     0.840458064687    12.000000000000
         C            1.346468898810    -0.893067884647    -0.710165935313    12.000000000000
         C           -2.789484101190     0.646134115353    -0.110820935313    12.000000000000
         C            3.268603898810     0.218987115353     0.024053064687    12.000000000000
         H           -0.238243101190     0.549606115353     1.083009064687     1.007825032230
         H           -0.299929101190    -1.179895884647     1.421694064687     1.007825032230
         H           -0.668838101190    -1.587003884647    -1.056087935313     1.007825032230
         H           -0.415056101190     0.144507115353    -1.334179935313     1.007825032230
         H           -2.450759101190     0.001820115353     1.849489064687     1.007825032230
         H            1.617946898810    -1.758750884647    -0.083021935313     1.007825032230
         H            1.650107898810    -1.141368884647    -1.741950935313     1.007825032230
         H           -3.727427101190    -1.574669884647     0.266604064687     1.007825032230
         H           -2.710113101190    -2.265371884647     1.361202064687     1.007825032230
         H           -2.659833101190     2.441679115353    -0.629707935313     1.007825032230
         H            3.373220498810     2.130604015353     0.668059664687     1.007825032230
         H            4.793158898810     1.557914115353     0.181222064687     1.007825032230
         H            5.044000898810    -0.813641884647     0.055346064687     1.007825032230
         H            3.834292898810    -1.513609884647    -0.906687935313     1.007825032230

  Basis Set: AUG-CC-PVTZ
    Blend: AUG-CC-PVTZ
  Basis Set: (AUG-CC-PVTZ AUX)
    Blend: AUG-CC-PVTZ-JKFIT
	 Reference Energy          =    -603.1250432403414834 [Eh]
	 Singles Energy            =      -0.0000000000000000 [Eh]
	 Same-Spin Energy          =      -0.6202151464737160 [Eh]
	 Opposite-Spin Energy      =      -1.9538188742239635 [Eh]
	 Correlation Energy        =      -2.5740340206976793 [Eh]
	 Total Energy              =    -605.6990772610391787 [Eh]

	 ================> DF-SCS-MP2 Energies <==================
	-----------------------------------------------------------
	 SCS Same-Spin Scale       =       0.3333333333333333 [-]
	 SCS Opposite-Spin Scale   =       1.2000000000000000 [-]
	 SCS Same-Spin Energy      =      -0.2067383821579053 [Eh]
	 SCS Opposite-Spin Energy  =      -2.3445826490687560 [Eh]
	 SCS Correlation Energy    =      -2.5513210312266614 [Eh]
	 SCS Total Energy          =    -605.6763642715681044 [Eh]
	-----------------------------------------------------------

  Dipole Moment: [D]
     X:     3.4653      Y:     0.3280      Z:     0.2817     Total:     3.4922

*** Psi4 exiting successfully. Buy a developer a beer!
