                               Psi4 1.3.2 release

  ==> Input File <==

--------------------------------------------------------------------------
#psi4
#
memory 32 gb

molecule  {
0 1
  O       -2.2266400     1.8867650    -0.0032170
  O       -3.7615920     0.4694410    -0.8736430
  N       -2.7859400    -1.6499310     0.5252010
  N        1.9794570     0.3457110    -0.2591130
  N        3.8978530     1.3104060     0.6447910
  N        4.0160410    -0.8946960    -0.1223760
  C       -0.6937690    -0.3717720     0.7299070
  C       -0.1993830    -0.6671070    -0.6806480
  C       -2.2227870    -0.3377670     0.8339710
  C        1.3098450    -0.8661090    -0.7166530
  C       -2.8261080     0.6730930    -0.1173080
  C        3.1530951     0.3036628     0.0110112
  H       -0.2748670     0.5765650     1.0765220
  H       -0.3365530    -1.1529370     1.4152070
  H       -0.7054620    -1.5600450    -1.0625750
  H       -0.4516800     0.1714660    -1.3406670
  H       -2.4873830     0.0287790     1.8430020
  H        1.5813230    -1.7317920    -0.0895090
  H        1.6134840    -1.1144100    -1.7484380
  H       -3.7640510    -1.5477110     0.2601170
  H       -2.7467370    -2.2384130     1.3547150
  H       -2.6964570     2.4686380    -0.6361950
  H        3.2621090     2.1005400     0.7117460
  H        4.7565350     1.5848730     0.1747350
  H        5.0073770    -0.7866830     0.0488590
  H        3.7976690    -1.4866510    -0.9131750
units angstrom
no_reorient  #important for SAPT in psi4, default
symmetry c1  #important for SAPT in psi4, default
}

set PROPERTIES_ORIGIN ["COM"]
properties('MP2/aug-cc-pvtz', properties = ['dipole'])
--------------------------------------------------------------------------

    Molecular point group: c1
  Charge       = 0
  Multiplicity = 1
  Basis Set: AUG-CC-PVTZ
    Blend: AUG-CC-PVTZ
  Basis Set: (AUG-CC-PVTZ AUX)
    Blend: AUG-CC-PVTZ-JKFIT

    Orbital Energies [Eh]
    ---------------------

    Doubly Occupied:

       1A    -20.612535     2A    -20.549658     3A    -15.569425
       4A    -15.565522     5A    -15.542108     6A    -15.519766
       7A    -11.385012     8A    -11.334455     9A    -11.273972
      10A    -11.248191    11A    -11.216786    12A    -11.206834
      13A     -1.458160    14A     -1.354843    15A     -1.297083
      16A     -1.192352    17A     -1.176977    18A     -1.142140
      19A     -1.055992    20A     -0.983230    21A     -0.900295
      22A     -0.823958    23A     -0.776958    24A     -0.761919
      25A     -0.708947    26A     -0.703473    27A     -0.696827
      28A     -0.693477    29A     -0.657209    30A     -0.644754
      31A     -0.628835    32A     -0.620228    33A     -0.607401
      34A     -0.594751    35A     -0.570960    36A     -0.551906
      37A     -0.545677    38A     -0.522460    39A     -0.495156
      40A     -0.480418    41A     -0.474514    42A     -0.472051
      43A     -0.443325    44A     -0.431175    45A     -0.399232
      46A     -0.394465    47A     -0.368723

  @DF-RHF Final Energy:  -603.11600823395406

   => Energetics <=

    Nuclear Repulsion Energy =            726.4496207202829510
    One-Electron Energy =               -2265.8229872960255307
    Two-Electron Energy =                 936.2573583417886312
    Total Energy =                       -603.1160082339540622
  Basis Set: (AUG-CC-PVTZ AUX)
    Blend: AUG-CC-PVTZ-RI
    Molecular point group: c1

    Geometry (in Angstrom), charge = 0, multiplicity = 1:

       Center              X                  Y                   Z               Mass
    ------------   -----------------  -----------------  -----------------  -----------------
         O           -2.184148089962     1.856158269846     0.003431407063    15.994914619570
         O           -3.719100089962     0.438834269846    -0.866994592937    15.994914619570
         N           -2.743448089962    -1.680537730154     0.531849407063    14.003074004430
         N            2.021948910038     0.315104269846    -0.252464592937    14.003074004430
         N            3.940344910038     1.279799269846     0.651439407063    14.003074004430
         N            4.058532910038    -0.925302730154    -0.115727592937    14.003074004430
         C           -0.651277089962    -0.402378730154     0.736555407063    12.000000000000
         C           -0.156891089962    -0.697713730154    -0.673999592937    12.000000000000
         C           -2.180295089962    -0.368373730154     0.840619407063    12.000000000000
         C            1.352336910038    -0.896715730154    -0.710004592937    12.000000000000
         C           -2.783616089962     0.642486269846    -0.110659592937    12.000000000000
         C            3.195587010038     0.273056069846     0.017659607063    12.000000000000
         H           -0.232375089962     0.545958269846     1.083170407063     1.007825032230
         H           -0.294061089962    -1.183543730154     1.421855407063     1.007825032230
         H           -0.662970089962    -1.590651730154    -1.055926592937     1.007825032230
         H           -0.409188089962     0.140859269846    -1.334018592937     1.007825032230
         H           -2.444891089962    -0.001827730154     1.849650407063     1.007825032230
         H            1.623814910038    -1.762398730154    -0.082860592937     1.007825032230
         H            1.655975910038    -1.145016730154    -1.741789592937     1.007825032230
         H           -3.721559089962    -1.578317730154     0.266765407063     1.007825032230
         H           -2.704245089962    -2.269019730154     1.361363407063     1.007825032230
         H           -2.653965089962     2.438031269846    -0.629546592937     1.007825032230
         H            3.304600910038     2.069933269846     0.718394407063     1.007825032230
         H            4.799026910038     1.554266269846     0.181383407063     1.007825032230
         H            5.049868910038    -0.817289730154     0.055507407063     1.007825032230
         H            3.840160910038    -1.517257730154    -0.906526592937     1.007825032230

  Basis Set: AUG-CC-PVTZ
    Blend: AUG-CC-PVTZ
  Basis Set: (AUG-CC-PVTZ AUX)
    Blend: AUG-CC-PVTZ-JKFIT
	 Reference Energy          =    -603.1160082339540622 [Eh]
	 Singles Energy            =      -0.0000000000000000 [Eh]
	 Same-Spin Energy          =      -0.6190964957083803 [Eh]
	 Opposite-Spin Energy      =      -1.9523654503443073 [Eh]
	 Correlation Energy        =      -2.5714619460526875 [Eh]
	 Total Energy              =    -605.6874701800066987 [Eh]

	 ================> DF-SCS-MP2 Energies <==================
	-----------------------------------------------------------
	 SCS Same-Spin Scale       =       0.3333333333333333 [-]
	 SCS Opposite-Spin Scale   =       1.2000000000000000 [-]
	 SCS Same-Spin Energy      =      -0.2063654985694601 [Eh]
	 SCS Opposite-Spin Energy  =      -2.3428385404131689 [Eh]
	 SCS Correlation Energy    =      -2.5492040389826292 [Eh]
	 SCS Total Energy          =    -605.6652122729367420 [Eh]
	-----------------------------------------------------------

  Dipole Moment: [D]
     X:     2.6497      Y:     0.6038      Z:     0.2834     Total:     2.7324

*** Psi4 exiting successfully. Buy a developer a beer!
