                               Psi4 1.4a3.dev225

  ==> Input File <==

--------------------------------------------------------------------------
#psi4
#
memory 32 gb

molecule  {
0 1
  O       -2.2193770     1.8892330     0.0268230
  O       -3.7558620     0.4909310    -0.8718590
  N       -2.7972650    -1.6524490     0.5031070
  N        1.9782870     0.3250840    -0.2428510
  N        3.8986140     1.3191370     0.6232000
  N        4.0945810    -0.8301440    -0.2248910
  C       -0.6989470    -0.3870780     0.7275970
  C       -0.2062790    -0.6613260    -0.6876040
  C       -2.2281040    -0.3472380     0.8304820
  C        1.3017160    -0.8701890    -0.7302520
  C       -2.8235710     0.6804660    -0.1079880
  C        3.2335740     0.2410780     0.0212990
  H       -0.2749720     0.5529910     1.0902940
  H       -0.3479120    -1.1823300     1.4000480
  H       -0.7189380    -1.5432990    -1.0858630
  H       -0.4507980     0.1909300    -1.3325750
  H       -2.4926300     0.0060750     1.8439900
  H        1.5489680    -1.7592400    -0.1213590
  H        1.6102530    -1.0961940    -1.7629760
  H       -3.7667330    -1.5380950     0.2123320
  H       -2.7872020    -2.2442710     1.3309830
  H       -2.6822190     2.4830960    -0.6002000
  H        3.2466167     2.1621249     0.6513419
  H        4.7687340     1.5514780     0.1515250
  H        4.8021180    -0.9483820     0.4927870
  H        3.6261930    -1.7023420    -0.4398710
units angstrom
no_reorient  #important for SAPT in psi4, default
symmetry c1  #important for SAPT in psi4, default
}

set PROPERTIES_ORIGIN ["COM"]
properties('MP2/aug-cc-pvtz', properties = ['dipole'])
--------------------------------------------------------------------------

    Molecular point group: c1
  Charge       = 0
  Multiplicity = 1
  Basis Set: AUG-CC-PVTZ
    Blend: AUG-CC-PVTZ
  Basis Set: (AUG-CC-PVTZ AUX)
    Blend: AUG-CC-PVTZ-JKFIT

    Orbital Energies [Eh]
    ---------------------

    Doubly Occupied:

       1A    -20.611588     2A    -20.548863     3A    -15.582635
       4A    -15.573970     5A    -15.541298     6A    -15.518034
       7A    -11.384193     8A    -11.341470     9A    -11.272925
      10A    -11.243165    11A    -11.215124    12A    -11.204456
      13A     -1.457313    14A     -1.354125    15A     -1.294025
      16A     -1.191330    17A     -1.162804    18A     -1.157586
      19A     -1.049448    20A     -0.976677    21A     -0.894966
      22A     -0.822277    23A     -0.781891    24A     -0.765142
      25A     -0.714651    26A     -0.704285    27A     -0.701911
      28A     -0.691774    29A     -0.657506    30A     -0.635517
      31A     -0.619649    32A     -0.616202    33A     -0.604150
      34A     -0.598324    35A     -0.572839    36A     -0.557171
      37A     -0.543467    38A     -0.526041    39A     -0.493471
      40A     -0.478914    41A     -0.473353    42A     -0.469952
      43A     -0.442241    44A     -0.435726    45A     -0.400047
      46A     -0.392748    47A     -0.350788

  @DF-RHF Final Energy:  -603.12459160155072

   => Energetics <=

    Nuclear Repulsion Energy =            725.1407684613097899
    One-Electron Energy =               -2263.2786598098709874
    Two-Electron Energy =                 935.0132997470104783
    Total Energy =                       -603.1245916015507191
  Basis Set: (AUG-CC-PVTZ AUX)
    Blend: AUG-CC-PVTZ-RI
    Molecular point group: c1

    Geometry (in Angstrom), charge = 0, multiplicity = 1:

       Center              X                  Y                   Z               Mass
    ------------   -----------------  -----------------  -----------------  -----------------
         O           -2.184671621568     1.859986370458     0.037202292182    15.994914619570
         O           -3.721156621568     0.461684370458    -0.861479707818    15.994914619570
         N           -2.762559621568    -1.681695629542     0.513486292182    14.003074004430
         N            2.012992378432     0.295837370458    -0.232471707818    14.003074004430
         N            3.933319378432     1.289890370458     0.633579292182    14.003074004430
         N            4.129286378432    -0.859390629542    -0.214511707818    14.003074004430
         C           -0.664241621568    -0.416324629542     0.737976292182    12.000000000000
         C           -0.171573621568    -0.690572629542    -0.677224707818    12.000000000000
         C           -2.193398621568    -0.376484629542     0.840861292182    12.000000000000
         C            1.336421378432    -0.899435629542    -0.719872707818    12.000000000000
         C           -2.788865621568     0.651219370458    -0.097608707818    12.000000000000
         C            3.268279378432     0.211831370458     0.031678292182    12.000000000000
         H           -0.240266621568     0.523744370458     1.100673292182     1.007825032230
         H           -0.313206621568    -1.211576629542     1.410427292182     1.007825032230
         H           -0.684232621568    -1.572545629542    -1.075483707818     1.007825032230
         H           -0.416092621568     0.161683370458    -1.322195707818     1.007825032230
         H           -2.457924621568    -0.023171629542     1.854369292182     1.007825032230
         H            1.583673378432    -1.788486629542    -0.110979707818     1.007825032230
         H            1.644958378432    -1.125440629542    -1.752596707818     1.007825032230
         H           -3.732027621568    -1.567341629542     0.222711292182     1.007825032230
         H           -2.752496621568    -2.273517629542     1.341362292182     1.007825032230
         H           -2.647513621568     2.453849370458    -0.589820707818     1.007825032230
         H            3.281322078432     2.132878270458     0.661721192182     1.007825032230
         H            4.803439378432     1.522231370458     0.161904292182     1.007825032230
         H            4.836823378432    -0.977628629542     0.503166292182     1.007825032230
         H            3.660898378432    -1.731588629542    -0.429491707818     1.007825032230

  Basis Set: AUG-CC-PVTZ
    Blend: AUG-CC-PVTZ
  Basis Set: (AUG-CC-PVTZ AUX)
    Blend: AUG-CC-PVTZ-JKFIT
	 Reference Energy          =    -603.1245916015507191 [Eh]
	 Singles Energy            =      -0.0000000000000000 [Eh]
	 Same-Spin Energy          =      -0.6204262727935173 [Eh]
	 Opposite-Spin Energy      =      -1.9546568304325271 [Eh]
	 Correlation Energy        =      -2.5750831032260444 [Eh]
	 Total Energy              =    -605.6996747047767258 [Eh]

	 ================> DF-SCS-MP2 Energies <==================
	-----------------------------------------------------------
	 SCS Same-Spin Scale       =       0.3333333333333333 [-]
	 SCS Opposite-Spin Scale   =       1.2000000000000000 [-]
	 SCS Same-Spin Energy      =      -0.2068087575978391 [Eh]
	 SCS Opposite-Spin Energy  =      -2.3455881965190324 [Eh]
	 SCS Correlation Energy    =      -2.5523969541168716 [Eh]
	 SCS Total Energy          =    -605.6769885556675490 [Eh]
	-----------------------------------------------------------

  Dipole Moment: [D]
     X:     2.4927      Y:    -0.2709      Z:     1.6901     Total:     3.0238

*** Psi4 exiting successfully. Buy a developer a beer!
