                               Psi4 1.4a3.dev225

  ==> Input File <==

--------------------------------------------------------------------------
#psi4
#
memory 32 gb

molecule  {
0 1
  O       -2.2193770     1.8892330     0.0268230
  O       -3.7558620     0.4909310    -0.8718590
  N       -2.7972650    -1.6524490     0.5031070
  N        1.9782870     0.3250840    -0.2428510
  N        3.8986140     1.3191370     0.6232000
  N        4.0945810    -0.8301440    -0.2248910
  C       -0.6989470    -0.3870780     0.7275970
  C       -0.2062790    -0.6613260    -0.6876040
  C       -2.2281040    -0.3472380     0.8304820
  C        1.3017160    -0.8701890    -0.7302520
  C       -2.8235710     0.6804660    -0.1079880
  C        3.2572845     0.2795137     0.0427584
  H       -0.2749720     0.5529910     1.0902940
  H       -0.3479120    -1.1823300     1.4000480
  H       -0.7189380    -1.5432990    -1.0858630
  H       -0.4507980     0.1909300    -1.3325750
  H       -2.4926300     0.0060750     1.8439900
  H        1.5489680    -1.7592400    -0.1213590
  H        1.6102530    -1.0961940    -1.7629760
  H       -3.7667330    -1.5380950     0.2123320
  H       -2.7872020    -2.2442710     1.3309830
  H       -2.6822190     2.4830960    -0.6002000
  H        3.2771960     2.1225880     0.6500220
  H        4.7687340     1.5514780     0.1515250
  H        4.8021180    -0.9483820     0.4927870
  H        3.6261930    -1.7023420    -0.4398710
units angstrom
no_reorient  #important for SAPT in psi4, default
symmetry c1  #important for SAPT in psi4, default
}

set PROPERTIES_ORIGIN ["COM"]
properties('MP2/aug-cc-pvtz', properties = ['dipole'])
--------------------------------------------------------------------------

    Molecular point group: c1
  Charge       = 0
  Multiplicity = 1
  Basis Set: AUG-CC-PVTZ
    Blend: AUG-CC-PVTZ
  Basis Set: (AUG-CC-PVTZ AUX)
    Blend: AUG-CC-PVTZ-JKFIT

    Orbital Energies [Eh]
    ---------------------

    Doubly Occupied:

       1A    -20.610713     2A    -20.547979     3A    -15.580384
       4A    -15.577172     5A    -15.540349     6A    -15.515365
       7A    -11.383285     8A    -11.344606     9A    -11.271806
      10A    -11.241122    11A    -11.213541    12A    -11.202762
      13A     -1.456430    14A     -1.353252    15A     -1.299704
      16A     -1.190330    17A     -1.174836    18A     -1.150334
      19A     -1.046659    20A     -0.974272    21A     -0.893413
      22A     -0.823877    23A     -0.785958    24A     -0.765664
      25A     -0.715492    26A     -0.707910    27A     -0.702230
      28A     -0.692964    29A     -0.656016    30A     -0.634683
      31A     -0.624358    32A     -0.618601    33A     -0.611292
      34A     -0.596468    35A     -0.572076    36A     -0.557766
      37A     -0.543136    38A     -0.526601    39A     -0.492007
      40A     -0.477892    41A     -0.472298    42A     -0.468800
      43A     -0.441443    44A     -0.438973    45A     -0.395418
      46A     -0.388503    47A     -0.343499

  @DF-RHF Final Energy:  -603.12359167794443

   => Energetics <=

    Nuclear Repulsion Energy =            725.0774157684995771
    One-Electron Energy =               -2263.1575365484154645
    Two-Electron Energy =                 934.9565291019714550
    Total Energy =                       -603.1235916779444324
  Basis Set: (AUG-CC-PVTZ AUX)
    Blend: AUG-CC-PVTZ-RI
    Molecular point group: c1

    Geometry (in Angstrom), charge = 0, multiplicity = 1:

       Center              X                  Y                   Z               Mass
    ------------   -----------------  -----------------  -----------------  -----------------
         O           -2.186482784333     1.857566187430     0.035730922897    15.994914619570
         O           -3.722967784333     0.459264187430    -0.862951077103    15.994914619570
         N           -2.764370784333    -1.684115812570     0.512014922897    14.003074004430
         N            2.011181215667     0.293417187430    -0.233943077103    14.003074004430
         N            3.931508215667     1.287470187430     0.632107922897    14.003074004430
         N            4.127475215667    -0.861810812570    -0.215983077103    14.003074004430
         C           -0.666052784333    -0.418744812570     0.736504922897    12.000000000000
         C           -0.173384784333    -0.692992812570    -0.678696077103    12.000000000000
         C           -2.195209784333    -0.378904812570     0.839389922897    12.000000000000
         C            1.334610215667    -0.901855812570    -0.721344077103    12.000000000000
         C           -2.790676784333     0.648799187430    -0.099080077103    12.000000000000
         C            3.290178715667     0.247846887430     0.051666322897    12.000000000000
         H           -0.242077784333     0.521324187430     1.099201922897     1.007825032230
         H           -0.315017784333    -1.213996812570     1.408955922897     1.007825032230
         H           -0.686043784333    -1.574965812570    -1.076955077103     1.007825032230
         H           -0.417903784333     0.159263187430    -1.323667077103     1.007825032230
         H           -2.459735784333    -0.025591812570     1.852897922897     1.007825032230
         H            1.581862215667    -1.790906812570    -0.112451077103     1.007825032230
         H            1.643147215667    -1.127860812570    -1.754068077103     1.007825032230
         H           -3.733838784333    -1.569761812570     0.221239922897     1.007825032230
         H           -2.754307784333    -2.275937812570     1.339890922897     1.007825032230
         H           -2.649324784333     2.451429187430    -0.591292077103     1.007825032230
         H            3.310090215667     2.090921187430     0.658929922897     1.007825032230
         H            4.801628215667     1.519811187430     0.160432922897     1.007825032230
         H            4.835012215667    -0.980048812570     0.501694922897     1.007825032230
         H            3.659087215667    -1.734008812570    -0.430963077103     1.007825032230

  Basis Set: AUG-CC-PVTZ
    Blend: AUG-CC-PVTZ
  Basis Set: (AUG-CC-PVTZ AUX)
    Blend: AUG-CC-PVTZ-JKFIT
	 Reference Energy          =    -603.1235916779444324 [Eh]
	 Singles Energy            =      -0.0000000000000000 [Eh]
	 Same-Spin Energy          =      -0.6206391865031762 [Eh]
	 Opposite-Spin Energy      =      -1.9543245670417040 [Eh]
	 Correlation Energy        =      -2.5749637535448802 [Eh]
	 Total Energy              =    -605.6985554314893534 [Eh]

	 ================> DF-SCS-MP2 Energies <==================
	-----------------------------------------------------------
	 SCS Same-Spin Scale       =       0.3333333333333333 [-]
	 SCS Opposite-Spin Scale   =       1.2000000000000000 [-]
	 SCS Same-Spin Energy      =      -0.2068797288343920 [Eh]
	 SCS Opposite-Spin Energy  =      -2.3451894804500446 [Eh]
	 SCS Correlation Energy    =      -2.5520692092844368 [Eh]
	 SCS Total Energy          =    -605.6756608872289007 [Eh]
	-----------------------------------------------------------

  Dipole Moment: [D]
     X:     2.7317      Y:    -0.0192      Z:     1.8279     Total:     3.2869

*** Psi4 exiting successfully. Buy a developer a beer!
