                               Psi4 1.3.2 release

  ==> Input File <==

--------------------------------------------------------------------------
#psi4
#
memory 32 gb

molecule  {
0 1
  O       -2.2266400     1.8867650    -0.0032170
  O       -3.7615920     0.4694410    -0.8736430
  N       -2.7859400    -1.6499310     0.5252010
  N        1.9681168     0.3587611    -0.2777883
  N        3.8978530     1.3104060     0.6447910
  N        4.0160410    -0.8946960    -0.1223760
  C       -0.6937690    -0.3717720     0.7299070
  C       -0.1993830    -0.6671070    -0.6806480
  C       -2.2227870    -0.3377670     0.8339710
  C        1.3098450    -0.8661090    -0.7166530
  C       -2.8261080     0.6730930    -0.1173080
  C        3.2319800     0.2459460     0.0175660
  H       -0.2748670     0.5765650     1.0765220
  H       -0.3365530    -1.1529370     1.4152070
  H       -0.7054620    -1.5600450    -1.0625750
  H       -0.4516800     0.1714660    -1.3406670
  H       -2.4873830     0.0287790     1.8430020
  H        1.5813230    -1.7317920    -0.0895090
  H        1.6134840    -1.1144100    -1.7484380
  H       -3.7640510    -1.5477110     0.2601170
  H       -2.7467370    -2.2384130     1.3547150
  H       -2.6964570     2.4686380    -0.6361950
  H        3.2621090     2.1005400     0.7117460
  H        4.7565350     1.5848730     0.1747350
  H        5.0073770    -0.7866830     0.0488590
  H        3.7976690    -1.4866510    -0.9131750
units angstrom
no_reorient  #important for SAPT in psi4, default
symmetry c1  #important for SAPT in psi4, default
}

set PROPERTIES_ORIGIN ["COM"]
properties('MP2/aug-cc-pvtz', properties = ['dipole'])
--------------------------------------------------------------------------

    Molecular point group: c1
  Charge       = 0
  Multiplicity = 1
  Basis Set: AUG-CC-PVTZ
    Blend: AUG-CC-PVTZ
  Basis Set: (AUG-CC-PVTZ AUX)
    Blend: AUG-CC-PVTZ-JKFIT

    Orbital Energies [Eh]
    ---------------------

    Doubly Occupied:

       1A    -20.609471     2A    -20.546695     3A    -15.585628
       4A    -15.573149     5A    -15.539156     6A    -15.517174
       7A    -11.381988     8A    -11.345168     9A    -11.270449
      10A    -11.237305    11A    -11.211993    12A    -11.200857
      13A     -1.455120    14A     -1.351874    15A     -1.293979
      16A     -1.189071    17A     -1.168916    18A     -1.155795
      19A     -1.045624    20A     -0.972800    21A     -0.891414
      22A     -0.821200    23A     -0.785235    24A     -0.764460
      25A     -0.720521    26A     -0.702703    27A     -0.700374
      28A     -0.689784    29A     -0.655508    30A     -0.638242
      31A     -0.631295    32A     -0.617360    33A     -0.606446
      34A     -0.592701    35A     -0.568894    36A     -0.550220
      37A     -0.540723    38A     -0.520413    39A     -0.490941
      40A     -0.476782    41A     -0.468927    42A     -0.466932
      43A     -0.439925    44A     -0.438938    45A     -0.399384
      46A     -0.391151    47A     -0.344500

  @DF-RHF Final Energy:  -603.12410890875958

   => Energetics <=

    Nuclear Repulsion Energy =            725.4696922591457451
    One-Electron Energy =               -2264.0532360605898248
    Two-Electron Energy =                 935.4594348926846124
    Total Energy =                       -603.1241089087595810
  Basis Set: (AUG-CC-PVTZ AUX)
    Blend: AUG-CC-PVTZ-RI
    Molecular point group: c1

    Geometry (in Angstrom), charge = 0, multiplicity = 1:

       Center              X                  Y                   Z               Mass
    ------------   -----------------  -----------------  -----------------  -----------------
         O           -2.188672893580     1.859086620756     0.004481618126    15.994914619570
         O           -3.723624893580     0.441762620756    -0.865944381874    15.994914619570
         N           -2.747972893580    -1.677609379244     0.532899618126    14.003074004430
         N            2.006083906420     0.331082720756    -0.270089681874    14.003074004430
         N            3.935820106420     1.282727620756     0.652489618126    14.003074004430
         N            4.054008106420    -0.922374379244    -0.114677381874    14.003074004430
         C           -0.655801893580    -0.399450379244     0.737605618126    12.000000000000
         C           -0.161415893580    -0.694785379244    -0.672949381874    12.000000000000
         C           -2.184819893580    -0.365445379244     0.841669618126    12.000000000000
         C            1.347812106420    -0.893787379244    -0.708954381874    12.000000000000
         C           -2.788140893580     0.645414620756    -0.109609381874    12.000000000000
         C            3.269947106420     0.218267620756     0.025264618126    12.000000000000
         H           -0.236899893580     0.548886620756     1.084220618126     1.007825032230
         H           -0.298585893580    -1.180615379244     1.422905618126     1.007825032230
         H           -0.667494893580    -1.587723379244    -1.054876381874     1.007825032230
         H           -0.413712893580     0.143787620756    -1.332968381874     1.007825032230
         H           -2.449415893580     0.001100620756     1.850700618126     1.007825032230
         H            1.619290106420    -1.759470379244    -0.081810381874     1.007825032230
         H            1.651451106420    -1.142088379244    -1.740739381874     1.007825032230
         H           -3.726083893580    -1.575389379244     0.267815618126     1.007825032230
         H           -2.708769893580    -2.266091379244     1.362413618126     1.007825032230
         H           -2.658489893580     2.440959620756    -0.628496381874     1.007825032230
         H            3.300076106420     2.072861620756     0.719444618126     1.007825032230
         H            4.794502106420     1.557194620756     0.182433618126     1.007825032230
         H            5.045344106420    -0.814361379244     0.056557618126     1.007825032230
         H            3.835636106420    -1.514329379244    -0.905476381874     1.007825032230

  Basis Set: AUG-CC-PVTZ
    Blend: AUG-CC-PVTZ
  Basis Set: (AUG-CC-PVTZ AUX)
    Blend: AUG-CC-PVTZ-JKFIT
	 Reference Energy          =    -603.1241089087595810 [Eh]
	 Singles Energy            =      -0.0000000000000000 [Eh]
	 Same-Spin Energy          =      -0.6206088833123709 [Eh]
	 Opposite-Spin Energy      =      -1.9545480845668088 [Eh]
	 Correlation Energy        =      -2.5751569678791797 [Eh]
	 Total Energy              =    -605.6992658766387194 [Eh]

	 ================> DF-SCS-MP2 Energies <==================
	-----------------------------------------------------------
	 SCS Same-Spin Scale       =       0.3333333333333333 [-]
	 SCS Opposite-Spin Scale   =       1.2000000000000000 [-]
	 SCS Same-Spin Energy      =      -0.2068696277707903 [Eh]
	 SCS Opposite-Spin Energy  =      -2.3454577014801705 [Eh]
	 SCS Correlation Energy    =      -2.5523273292509607 [Eh]
	 SCS Total Energy          =    -605.6764362380105240 [Eh]
	-----------------------------------------------------------

  Dipole Moment: [D]
     X:     3.4976      Y:     0.2695      Z:     0.3897     Total:     3.5296

*** Psi4 exiting successfully. Buy a developer a beer!
