                               Psi4 1.3.2 release

  ==> Input File <==

--------------------------------------------------------------------------
#psi4
#
memory 32 gb

molecule  {
0 1
  O       -2.2266400     1.8867650    -0.0032170
  O       -3.7615920     0.4694410    -0.8736430
  N       -2.7859400    -1.6499310     0.5252010
  N        1.9794570     0.3457110    -0.2591130
  N        3.8978530     1.3104060     0.6447910
  N        4.0160410    -0.8946960    -0.1223760
  C       -0.6937690    -0.3717720     0.7299070
  C       -0.1993830    -0.6671070    -0.6806480
  C       -2.2227870    -0.3377670     0.8339710
  C        1.2241295    -0.8117175    -0.7239468
  C       -2.8261080     0.6730930    -0.1173080
  C        3.2319800     0.2459460     0.0175660
  H       -0.2748670     0.5765650     1.0765220
  H       -0.3365530    -1.1529370     1.4152070
  H       -0.7054620    -1.5600450    -1.0625750
  H       -0.4516800     0.1714660    -1.3406670
  H       -2.4873830     0.0287790     1.8430020
  H        1.5813230    -1.7317920    -0.0895090
  H        1.6134840    -1.1144100    -1.7484380
  H       -3.7640510    -1.5477110     0.2601170
  H       -2.7467370    -2.2384130     1.3547150
  H       -2.6964570     2.4686380    -0.6361950
  H        3.2621090     2.1005400     0.7117460
  H        4.7565350     1.5848730     0.1747350
  H        5.0073770    -0.7866830     0.0488590
  H        3.7976690    -1.4866510    -0.9131750
units angstrom
no_reorient  #important for SAPT in psi4, default
symmetry c1  #important for SAPT in psi4, default
}

set PROPERTIES_ORIGIN ["COM"]
properties('MP2/aug-cc-pvtz', properties = ['dipole'])
--------------------------------------------------------------------------

    Molecular point group: c1
  Charge       = 0
  Multiplicity = 1
  Basis Set: AUG-CC-PVTZ
    Blend: AUG-CC-PVTZ
  Basis Set: (AUG-CC-PVTZ AUX)
    Blend: AUG-CC-PVTZ-JKFIT

    Orbital Energies [Eh]
    ---------------------

    Doubly Occupied:

       1A    -20.610747     2A    -20.548032     3A    -15.582742
       4A    -15.571212     5A    -15.540784     6A    -15.514530
       7A    -11.383341     8A    -11.342448     9A    -11.272056
      10A    -11.245900    11A    -11.214313    12A    -11.200113
      13A     -1.456432    14A     -1.353190    15A     -1.293491
      16A     -1.190967    17A     -1.166684    18A     -1.158382
      19A     -1.057152    20A     -0.982776    21A     -0.892602
      22A     -0.823984    23A     -0.782923    24A     -0.764620
      25A     -0.718470    26A     -0.703570    27A     -0.701343
      28A     -0.688684    29A     -0.658098    30A     -0.640347
      31A     -0.631209    32A     -0.618782    33A     -0.609723
      34A     -0.590110    35A     -0.572514    36A     -0.553330
      37A     -0.543656    38A     -0.521377    39A     -0.502768
      40A     -0.478142    41A     -0.476147    42A     -0.460487
      43A     -0.441386    44A     -0.438313    45A     -0.395349
      46A     -0.385884    47A     -0.341937

  @DF-RHF Final Energy:  -603.11386598174568

   => Energetics <=

    Nuclear Repulsion Energy =            726.6819559045545702
    One-Electron Energy =               -2266.3495545987270816
    Two-Electron Energy =                 936.5537327124268359
    Total Energy =                       -603.1138659817456755
  Basis Set: (AUG-CC-PVTZ AUX)
    Blend: AUG-CC-PVTZ-RI
    Molecular point group: c1

    Geometry (in Angstrom), charge = 0, multiplicity = 1:

       Center              X                  Y                   Z               Mass
    ------------   -----------------  -----------------  -----------------  -----------------
         O           -2.183677316249     1.856387453787     0.003482339891    15.994914619570
         O           -3.718629316249     0.439063453787    -0.866943660109    15.994914619570
         N           -2.742977316249    -1.680308546213     0.531900339891    14.003074004430
         N            2.022419683751     0.315333453787    -0.252413660109    14.003074004430
         N            3.940815683751     1.280028453787     0.651490339891    14.003074004430
         N            4.059003683751    -0.925073546213    -0.115676660109    14.003074004430
         C           -0.650806316249    -0.402149546213     0.736606339891    12.000000000000
         C           -0.156420316249    -0.697484546213    -0.673948660109    12.000000000000
         C           -2.179824316249    -0.368144546213     0.840670339891    12.000000000000
         C            1.267092183751    -0.842095046213    -0.717247460109    12.000000000000
         C           -2.783145316249     0.642715453787    -0.110608660109    12.000000000000
         C            3.274942683751     0.215568453787     0.024265339891    12.000000000000
         H           -0.231904316249     0.546187453787     1.083221339891     1.007825032230
         H           -0.293590316249    -1.183314546213     1.421906339891     1.007825032230
         H           -0.662499316249    -1.590422546213    -1.055875660109     1.007825032230
         H           -0.408717316249     0.141088453787    -1.333967660109     1.007825032230
         H           -2.444420316249    -0.001598546213     1.849701339891     1.007825032230
         H            1.624285683751    -1.762169546213    -0.082809660109     1.007825032230
         H            1.656446683751    -1.144787546213    -1.741738660109     1.007825032230
         H           -3.721088316249    -1.578088546213     0.266816339891     1.007825032230
         H           -2.703774316249    -2.268790546213     1.361414339891     1.007825032230
         H           -2.653494316249     2.438260453787    -0.629495660109     1.007825032230
         H            3.305071683751     2.070162453787     0.718445339891     1.007825032230
         H            4.799497683751     1.554495453787     0.181434339891     1.007825032230
         H            5.050339683751    -0.817060546213     0.055558339891     1.007825032230
         H            3.840631683751    -1.517028546213    -0.906475660109     1.007825032230

  Basis Set: AUG-CC-PVTZ
    Blend: AUG-CC-PVTZ
  Basis Set: (AUG-CC-PVTZ AUX)
    Blend: AUG-CC-PVTZ-JKFIT
	 Reference Energy          =    -603.1138659817456755 [Eh]
	 Singles Energy            =      -0.0000000000000000 [Eh]
	 Same-Spin Energy          =      -0.6212305949680437 [Eh]
	 Opposite-Spin Energy      =      -1.9549071611319997 [Eh]
	 Correlation Energy        =      -2.5761377561000431 [Eh]
	 Total Energy              =    -605.6900037378457000 [Eh]

	 ================> DF-SCS-MP2 Energies <==================
	-----------------------------------------------------------
	 SCS Same-Spin Scale       =       0.3333333333333333 [-]
	 SCS Opposite-Spin Scale   =       1.2000000000000000 [-]
	 SCS Same-Spin Energy      =      -0.2070768649893479 [Eh]
	 SCS Opposite-Spin Energy  =      -2.3458885933583997 [Eh]
	 SCS Correlation Energy    =      -2.5529654583477477 [Eh]
	 SCS Total Energy          =    -605.6668314400934605 [Eh]
	-----------------------------------------------------------

  Dipole Moment: [D]
     X:     3.2181      Y:     0.3273      Z:     0.3212     Total:     3.2506

*** Psi4 exiting successfully. Buy a developer a beer!
