                               Psi4 1.3.2 release

  ==> Input File <==

--------------------------------------------------------------------------
#psi4
#
memory 32 gb

molecule  {
0 1
  O       -2.2266400     1.8867650    -0.0032170
  O       -3.7615920     0.4694410    -0.8736430
  N       -2.7859400    -1.6499310     0.5252010
  N        1.9794570     0.3457110    -0.2591130
  N        3.8978530     1.3104060     0.6447910
  N        4.0160410    -0.8946960    -0.1223760
  C       -0.6937690    -0.3717720     0.7299070
  C       -0.1000620    -0.6602020    -0.6432739
  C       -2.2227870    -0.3377670     0.8339710
  C        1.3098450    -0.8661090    -0.7166530
  C       -2.8261080     0.6730930    -0.1173080
  C        3.2319800     0.2459460     0.0175660
  H       -0.2748670     0.5765650     1.0765220
  H       -0.3365530    -1.1529370     1.4152070
  H       -0.7054620    -1.5600450    -1.0625750
  H       -0.4516800     0.1714660    -1.3406670
  H       -2.4873830     0.0287790     1.8430020
  H        1.5813230    -1.7317920    -0.0895090
  H        1.6134840    -1.1144100    -1.7484380
  H       -3.7640510    -1.5477110     0.2601170
  H       -2.7467370    -2.2384130     1.3547150
  H       -2.6964570     2.4686380    -0.6361950
  H        3.2621090     2.1005400     0.7117460
  H        4.7565350     1.5848730     0.1747350
  H        5.0073770    -0.7866830     0.0488590
  H        3.7976690    -1.4866510    -0.9131750
units angstrom
no_reorient  #important for SAPT in psi4, default
symmetry c1  #important for SAPT in psi4, default
}

set PROPERTIES_ORIGIN ["COM"]
properties('MP2/aug-cc-pvtz', properties = ['dipole'])
--------------------------------------------------------------------------

    Molecular point group: c1
  Charge       = 0
  Multiplicity = 1
  Basis Set: AUG-CC-PVTZ
    Blend: AUG-CC-PVTZ
  Basis Set: (AUG-CC-PVTZ AUX)
    Blend: AUG-CC-PVTZ-JKFIT

    Orbital Energies [Eh]
    ---------------------

    Doubly Occupied:

       1A    -20.609957     2A    -20.547447     3A    -15.584116
       4A    -15.572015     5A    -15.539994     6A    -15.514833
       7A    -11.382870     8A    -11.341961     9A    -11.273343
      10A    -11.234739    11A    -11.213024    12A    -11.206454
      13A     -1.455703    14A     -1.352510    15A     -1.296058
      16A     -1.189931    17A     -1.168142    18A     -1.162752
      19A     -1.051075    20A     -0.983370    21A     -0.896634
      22A     -0.816674    23A     -0.786095    24A     -0.760522
      25A     -0.720611    26A     -0.704191    27A     -0.701329
      28A     -0.689010    29A     -0.657800    30A     -0.638999
      31A     -0.632535    32A     -0.617975    33A     -0.611218
      34A     -0.596480    35A     -0.572295    36A     -0.552190
      37A     -0.535681    38A     -0.522769    39A     -0.508724
      40A     -0.476246    41A     -0.461114    42A     -0.451669
      43A     -0.440124    44A     -0.435983    45A     -0.399697
      46A     -0.391751    47A     -0.348028

  @DF-RHF Final Energy:  -603.11279704079038

   => Energetics <=

    Nuclear Repulsion Energy =            726.4399326843930567
    One-Electron Energy =               -2265.8921860066907357
    Two-Electron Energy =                 936.3394562815071822
    Total Energy =                       -603.1127970407903831
  Basis Set: (AUG-CC-PVTZ AUX)
    Blend: AUG-CC-PVTZ-RI
    Molecular point group: c1

    Geometry (in Angstrom), charge = 0, multiplicity = 1:

       Center              X                  Y                   Z               Mass
    ------------   -----------------  -----------------  -----------------  -----------------
         O           -2.196430269151     1.859660284272     0.000403770933    15.994914619570
         O           -3.731382269151     0.442336284272    -0.870022229067    15.994914619570
         N           -2.755730269151    -1.677035715728     0.528821770933    14.003074004430
         N            2.009666730849     0.318606284272    -0.255492229067    14.003074004430
         N            3.928062730849     1.283301284272     0.648411770933    14.003074004430
         N            4.046250730849    -0.921800715728    -0.118755229067    14.003074004430
         C           -0.663559269151    -0.398876715728     0.733527770933    12.000000000000
         C           -0.069852269151    -0.687306715728    -0.639653129067    12.000000000000
         C           -2.192577269151    -0.364871715728     0.837591770933    12.000000000000
         C            1.340054730849    -0.893213715728    -0.713032229067    12.000000000000
         C           -2.795898269151     0.645988284272    -0.113687229067    12.000000000000
         C            3.262189730849     0.218841284272     0.021186770933    12.000000000000
         H           -0.244657269151     0.549460284272     1.080142770933     1.007825032230
         H           -0.306343269151    -1.180041715728     1.418827770933     1.007825032230
         H           -0.675252269151    -1.587149715728    -1.058954229067     1.007825032230
         H           -0.421470269151     0.144361284272    -1.337046229067     1.007825032230
         H           -2.457173269151     0.001674284272     1.846622770933     1.007825032230
         H            1.611532730849    -1.758896715728    -0.085888229067     1.007825032230
         H            1.643693730849    -1.141514715728    -1.744817229067     1.007825032230
         H           -3.733841269151    -1.574815715728     0.263737770933     1.007825032230
         H           -2.716527269151    -2.265517715728     1.358335770933     1.007825032230
         H           -2.666247269151     2.441533284272    -0.632574229067     1.007825032230
         H            3.292318730849     2.073435284272     0.715366770933     1.007825032230
         H            4.786744730849     1.557768284272     0.178355770933     1.007825032230
         H            5.037586730849    -0.813787715728     0.052479770933     1.007825032230
         H            3.827878730849    -1.513755715728    -0.909554229067     1.007825032230

  Basis Set: AUG-CC-PVTZ
    Blend: AUG-CC-PVTZ
  Basis Set: (AUG-CC-PVTZ AUX)
    Blend: AUG-CC-PVTZ-JKFIT
	 Reference Energy          =    -603.1127970407903831 [Eh]
	 Singles Energy            =      -0.0000000000000000 [Eh]
	 Same-Spin Energy          =      -0.6211284181075660 [Eh]
	 Opposite-Spin Energy      =      -1.9549549773627488 [Eh]
	 Correlation Energy        =      -2.5760833954703148 [Eh]
	 Total Energy              =    -605.6888804362606606 [Eh]

	 ================> DF-SCS-MP2 Energies <==================
	-----------------------------------------------------------
	 SCS Same-Spin Scale       =       0.3333333333333333 [-]
	 SCS Opposite-Spin Scale   =       1.2000000000000000 [-]
	 SCS Same-Spin Energy      =      -0.2070428060358553 [Eh]
	 SCS Opposite-Spin Energy  =      -2.3459459728352985 [Eh]
	 SCS Correlation Energy    =      -2.5529887788711538 [Eh]
	 SCS Total Energy          =    -605.6657858196615507 [Eh]
	-----------------------------------------------------------

  Dipole Moment: [D]
     X:     3.4165      Y:     0.2959      Z:     0.3655     Total:     3.4487

*** Psi4 exiting successfully. Buy a developer a beer!
