                               Psi4 1.3.2 release

  ==> Input File <==

--------------------------------------------------------------------------
#psi4
#
memory 32 gb

molecule  {
0 1
  O       -2.2266400     1.8867650    -0.0032170
  O       -3.7615920     0.4694410    -0.8736430
  N       -2.7859400    -1.6499310     0.5252010
  N        1.9794570     0.3457110    -0.2591130
  N        3.8978530     1.3104060     0.6447910
  N        4.0160410    -0.8946960    -0.1223760
  C       -0.6937690    -0.3717720     0.7299070
  C       -0.1993830    -0.6671070    -0.6806480
  C       -2.2227870    -0.3377670     0.8339710
  C        1.3098450    -0.8661090    -0.7166530
  C       -2.8261080     0.6730930    -0.1173080
  C        3.2319800     0.2459460     0.0175660
  H       -0.2748670     0.5765650     1.0765220
  H       -0.3365530    -1.1529370     1.4152070
  H       -0.7054620    -1.5600450    -1.0625750
  H       -0.4516800     0.1714660    -1.3406670
  H       -2.4873830     0.0287790     1.8430020
  H        1.5813230    -1.7317920    -0.0895090
  H        1.6134840    -1.1144100    -1.7484380
  H       -3.7640510    -1.5477110     0.2601170
  H       -2.7467370    -2.2384130     1.3547150
  H       -2.6964570     2.4686380    -0.6361950
  H        3.2862031     2.1205424     0.6950760
  H        4.7565350     1.5848730     0.1747350
  H        5.0073770    -0.7866830     0.0488590
  H        3.7976690    -1.4866510    -0.9131750
units angstrom
no_reorient  #important for SAPT in psi4, default
symmetry c1  #important for SAPT in psi4, default
}

set PROPERTIES_ORIGIN ["COM"]
properties('MP2/aug-cc-pvtz', properties = ['dipole'])
--------------------------------------------------------------------------

    Molecular point group: c1
  Charge       = 0
  Multiplicity = 1
  Basis Set: AUG-CC-PVTZ
    Blend: AUG-CC-PVTZ
  Basis Set: (AUG-CC-PVTZ AUX)
    Blend: AUG-CC-PVTZ-JKFIT

    Orbital Energies [Eh]
    ---------------------

    Doubly Occupied:

       1A    -20.609761     2A    -20.546973     3A    -15.583657
       4A    -15.571927     5A    -15.539417     6A    -15.515321
       7A    -11.382262     8A    -11.341929     9A    -11.270723
      10A    -11.238415    11A    -11.212339    12A    -11.201653
      13A     -1.455407    14A     -1.352155    15A     -1.295245
      16A     -1.189348    17A     -1.167852    18A     -1.157943
      19A     -1.046904    20A     -0.974202    21A     -0.892649
      22A     -0.822021    23A     -0.784887    24A     -0.764831
      25A     -0.719412    26A     -0.702429    27A     -0.699764
      28A     -0.688999    29A     -0.655726    30A     -0.636870
      31A     -0.632207    32A     -0.617648    33A     -0.607954
      34A     -0.593192    35A     -0.569303    36A     -0.551033
      37A     -0.541211    38A     -0.521696    39A     -0.491476
      40A     -0.477115    41A     -0.469883    42A     -0.467649
      43A     -0.440201    44A     -0.438654    45A     -0.397863
      46A     -0.390963    47A     -0.346930

  @DF-RHF Final Energy:  -603.12599722066909

   => Energetics <=

    Nuclear Repulsion Energy =            725.6932192091933302
    One-Electron Energy =               -2264.4864372850793188
    Two-Electron Energy =                 935.6672208552168968
    Total Energy =                       -603.1259972206690918
  Basis Set: (AUG-CC-PVTZ AUX)
    Blend: AUG-CC-PVTZ-RI
    Molecular point group: c1

    Geometry (in Angstrom), charge = 0, multiplicity = 1:

       Center              X                  Y                   Z               Mass
    ------------   -----------------  -----------------  -----------------  -----------------
         O           -2.189724404320     1.860020404179     0.003076134182    15.994914619570
         O           -3.724676404320     0.442696404179    -0.867349865818    15.994914619570
         N           -2.749024404320    -1.676675595821     0.531494134182    14.003074004430
         N            2.016372595680     0.318966404179    -0.252819865818    14.003074004430
         N            3.934768595680     1.283661404179     0.651084134182    14.003074004430
         N            4.052956595680    -0.921440595821    -0.116082865818    14.003074004430
         C           -0.656853404320    -0.398516595821     0.736200134182    12.000000000000
         C           -0.162467404320    -0.693851595821    -0.674354865818    12.000000000000
         C           -2.185871404320    -0.364511595821     0.840264134182    12.000000000000
         C            1.346760595680    -0.892853595821    -0.710359865818    12.000000000000
         C           -2.789192404320     0.646348404179    -0.111014865818    12.000000000000
         C            3.268895595680     0.219201404179     0.023859134182    12.000000000000
         H           -0.237951404320     0.549820404179     1.082815134182     1.007825032230
         H           -0.299637404320    -1.179681595821     1.421500134182     1.007825032230
         H           -0.668546404320    -1.586789595821    -1.056281865818     1.007825032230
         H           -0.414764404320     0.144721404179    -1.334373865818     1.007825032230
         H           -2.450467404320     0.002034404179     1.849295134182     1.007825032230
         H            1.618238595680    -1.758536595821    -0.083215865818     1.007825032230
         H            1.650399595680    -1.141154595821    -1.742144865818     1.007825032230
         H           -3.727135404320    -1.574455595821     0.266410134182     1.007825032230
         H           -2.709821404320    -2.265157595821     1.361008134182     1.007825032230
         H           -2.659541404320     2.441893404179    -0.629901865818     1.007825032230
         H            3.323118695680     2.093797804179     0.701369134182     1.007825032230
         H            4.793450595680     1.558128404179     0.181028134182     1.007825032230
         H            5.044292595680    -0.813427595821     0.055152134182     1.007825032230
         H            3.834584595680    -1.513395595821    -0.906881865818     1.007825032230

  Basis Set: AUG-CC-PVTZ
    Blend: AUG-CC-PVTZ
  Basis Set: (AUG-CC-PVTZ AUX)
    Blend: AUG-CC-PVTZ-JKFIT
	 Reference Energy          =    -603.1259972206690918 [Eh]
	 Singles Energy            =      -0.0000000000000000 [Eh]
	 Same-Spin Energy          =      -0.6202414304441946 [Eh]
	 Opposite-Spin Energy      =      -1.9537851737981500 [Eh]
	 Correlation Energy        =      -2.5740266042423445 [Eh]
	 Total Energy              =    -605.7000238249114545 [Eh]

	 ================> DF-SCS-MP2 Energies <==================
	-----------------------------------------------------------
	 SCS Same-Spin Scale       =       0.3333333333333333 [-]
	 SCS Opposite-Spin Scale   =       1.2000000000000000 [-]
	 SCS Same-Spin Energy      =      -0.2067471434813982 [Eh]
	 SCS Opposite-Spin Energy  =      -2.3445422085577801 [Eh]
	 SCS Correlation Energy    =      -2.5512893520391784 [Eh]
	 SCS Total Energy          =    -605.6772865727082262 [Eh]
	-----------------------------------------------------------

  Dipole Moment: [D]
     X:     3.4324      Y:     0.3027      Z:     0.3231     Total:     3.4608

*** Psi4 exiting successfully. Buy a developer a beer!
