                               Psi4 1.3.2 release

  ==> Input File <==

--------------------------------------------------------------------------
#psi4
#
memory 32 gb

molecule  {
0 1
  O       -2.2266400     1.8867650    -0.0032170
  O       -3.7615920     0.4694410    -0.8736430
  N       -2.7859400    -1.6499310     0.5252010
  N        1.9794570     0.3457110    -0.2591130
  N        3.8978530     1.3104060     0.6447910
  N        4.0160410    -0.8946960    -0.1223760
  C       -0.6937690    -0.3717720     0.7299070
  C       -0.0514564    -0.6562201    -0.6220654
  C       -2.2227870    -0.3377670     0.8339710
  C        1.3098450    -0.8661090    -0.7166530
  C       -2.8261080     0.6730930    -0.1173080
  C        3.2319800     0.2459460     0.0175660
  H       -0.2748670     0.5765650     1.0765220
  H       -0.3365530    -1.1529370     1.4152070
  H       -0.7054620    -1.5600450    -1.0625750
  H       -0.4516800     0.1714660    -1.3406670
  H       -2.4873830     0.0287790     1.8430020
  H        1.5813230    -1.7317920    -0.0895090
  H        1.6134840    -1.1144100    -1.7484380
  H       -3.7640510    -1.5477110     0.2601170
  H       -2.7467370    -2.2384130     1.3547150
  H       -2.6964570     2.4686380    -0.6361950
  H        3.2621090     2.1005400     0.7117460
  H        4.7565350     1.5848730     0.1747350
  H        5.0073770    -0.7866830     0.0488590
  H        3.7976690    -1.4866510    -0.9131750
units angstrom
no_reorient  #important for SAPT in psi4, default
symmetry c1  #important for SAPT in psi4, default
}

set PROPERTIES_ORIGIN ["COM"]
properties('MP2/aug-cc-pvtz', properties = ['dipole'])
--------------------------------------------------------------------------

    Molecular point group: c1
  Charge       = 0
  Multiplicity = 1
  Basis Set: AUG-CC-PVTZ
    Blend: AUG-CC-PVTZ
  Basis Set: (AUG-CC-PVTZ AUX)
    Blend: AUG-CC-PVTZ-JKFIT

    Orbital Energies [Eh]
    ---------------------

    Doubly Occupied:

       1A    -20.610025     2A    -20.547677     3A    -15.584475
       4A    -15.572255     5A    -15.540285     6A    -15.514642
       7A    -11.383176     8A    -11.342220     9A    -11.274759
      10A    -11.232656    11A    -11.213896    12A    -11.209743
      13A     -1.455833    14A     -1.352672    15A     -1.296595
      16A     -1.190344    17A     -1.168502    18A     -1.166084
      19A     -1.054150    20A     -0.988218    21A     -0.898847
      22A     -0.814741    23A     -0.787011    24A     -0.757972
      25A     -0.721517    26A     -0.705219    27A     -0.701598
      28A     -0.688497    29A     -0.659284    30A     -0.639812
      31A     -0.633701    32A     -0.618142    33A     -0.613669
      34A     -0.598030    35A     -0.574486    36A     -0.552762
      37A     -0.533988    38A     -0.525158    39A     -0.516053
      40A     -0.476704    41A     -0.457091    42A     -0.443081
      43A     -0.439566    44A     -0.431295    45A     -0.400023
      46A     -0.390713    47A     -0.348618

  @DF-RHF Final Energy:  -603.09585542817126

   => Energetics <=

    Nuclear Repulsion Energy =            726.8471740106605239
    One-Electron Energy =               -2266.6344897014510025
    Two-Electron Energy =                 936.6914602626191027
    Total Energy =                       -603.0958554281712622
  Basis Set: (AUG-CC-PVTZ AUX)
    Blend: AUG-CC-PVTZ-RI
    Molecular point group: c1

    Geometry (in Angstrom), charge = 0, multiplicity = 1:

       Center              X                  Y                   Z               Mass
    ------------   -----------------  -----------------  -----------------  -----------------
         O           -2.199780229444     1.859385846617    -0.001057946088    15.994914619570
         O           -3.734732229444     0.442061846617    -0.871483946088    15.994914619570
         N           -2.759080229444    -1.677310153383     0.527360053912    14.003074004430
         N            2.006316770556     0.318331846617    -0.256953946088    14.003074004430
         N            3.924712770556     1.283026846617     0.646950053912    14.003074004430
         N            4.042900770556    -0.922075153383    -0.120216946088    14.003074004430
         C           -0.666909229444    -0.399151153383     0.732066053912    12.000000000000
         C           -0.024596629444    -0.683599253383    -0.619906346088    12.000000000000
         C           -2.195927229444    -0.365146153383     0.836130053912    12.000000000000
         C            1.336704770556    -0.893488153383    -0.714493946088    12.000000000000
         C           -2.799248229444     0.645713846617    -0.115148946088    12.000000000000
         C            3.258839770556     0.218566846617     0.019725053912    12.000000000000
         H           -0.248007229444     0.549185846617     1.078681053912     1.007825032230
         H           -0.309693229444    -1.180316153383     1.417366053912     1.007825032230
         H           -0.678602229444    -1.587424153383    -1.060415946088     1.007825032230
         H           -0.424820229444     0.144086846617    -1.338507946088     1.007825032230
         H           -2.460523229444     0.001399846617     1.845161053912     1.007825032230
         H            1.608182770556    -1.759171153383    -0.087349946088     1.007825032230
         H            1.640343770556    -1.141789153383    -1.746278946088     1.007825032230
         H           -3.737191229444    -1.575090153383     0.262276053912     1.007825032230
         H           -2.719877229444    -2.265792153383     1.356874053912     1.007825032230
         H           -2.669597229444     2.441258846617    -0.634035946088     1.007825032230
         H            3.288968770556     2.073160846617     0.713905053912     1.007825032230
         H            4.783394770556     1.557493846617     0.176894053912     1.007825032230
         H            5.034236770556    -0.814062153383     0.051018053912     1.007825032230
         H            3.824528770556    -1.514030153383    -0.911015946088     1.007825032230

  Basis Set: AUG-CC-PVTZ
    Blend: AUG-CC-PVTZ
  Basis Set: (AUG-CC-PVTZ AUX)
    Blend: AUG-CC-PVTZ-JKFIT
	 Reference Energy          =    -603.0958554281712622 [Eh]
	 Singles Energy            =      -0.0000000000000000 [Eh]
	 Same-Spin Energy          =      -0.6219125232396590 [Eh]
	 Opposite-Spin Energy      =      -1.9561911255307263 [Eh]
	 Correlation Energy        =      -2.5781036487703854 [Eh]
	 Total Energy              =    -605.6739590769416282 [Eh]

	 ================> DF-SCS-MP2 Energies <==================
	-----------------------------------------------------------
	 SCS Same-Spin Scale       =       0.3333333333333333 [-]
	 SCS Opposite-Spin Scale   =       1.2000000000000000 [-]
	 SCS Same-Spin Energy      =      -0.2073041744132196 [Eh]
	 SCS Opposite-Spin Energy  =      -2.3474293506368715 [Eh]
	 SCS Correlation Energy    =      -2.5547335250500911 [Eh]
	 SCS Total Energy          =    -605.6505889532213587 [Eh]
	-----------------------------------------------------------

  Dipole Moment: [D]
     X:     3.4238      Y:     0.3015      Z:     0.3841     Total:     3.4584

*** Psi4 exiting successfully. Buy a developer a beer!
