                               Psi4 1.4a3.dev225

  ==> Input File <==

--------------------------------------------------------------------------
#psi4
#
memory 32 gb

molecule  {
0 1
  O       -2.2193770     1.8892330     0.0268230
  O       -3.7558620     0.4909310    -0.8718590
  N       -2.7972650    -1.6524490     0.5031070
  N        1.9782870     0.3250840    -0.2428510
  N        3.8986140     1.3191370     0.6232000
  N        4.0945810    -0.8301440    -0.2248910
  C       -0.6989470    -0.3870780     0.7275970
  C       -0.2062790    -0.6613260    -0.6876040
  C       -2.2281040    -0.3472380     0.8304820
  C        1.3017160    -0.8701890    -0.7302520
  C       -2.8235710     0.6804660    -0.1079880
  C        3.1847501     0.2443454     0.0110250
  H       -0.2749720     0.5529910     1.0902940
  H       -0.3479120    -1.1823300     1.4000480
  H       -0.7189380    -1.5432990    -1.0858630
  H       -0.4507980     0.1909300    -1.3325750
  H       -2.4926300     0.0060750     1.8439900
  H        1.5489680    -1.7592400    -0.1213590
  H        1.6102530    -1.0961940    -1.7629760
  H       -3.7667330    -1.5380950     0.2123320
  H       -2.7872020    -2.2442710     1.3309830
  H       -2.6822190     2.4830960    -0.6002000
  H        3.2771960     2.1225880     0.6500220
  H        4.7687340     1.5514780     0.1515250
  H        4.8021180    -0.9483820     0.4927870
  H        3.6261930    -1.7023420    -0.4398710
units angstrom
no_reorient  #important for SAPT in psi4, default
symmetry c1  #important for SAPT in psi4, default
}

set PROPERTIES_ORIGIN ["COM"]
properties('MP2/aug-cc-pvtz', properties = ['dipole'])
--------------------------------------------------------------------------

    Molecular point group: c1
  Charge       = 0
  Multiplicity = 1
  Basis Set: AUG-CC-PVTZ
    Blend: AUG-CC-PVTZ
  Basis Set: (AUG-CC-PVTZ AUX)
    Blend: AUG-CC-PVTZ-JKFIT

    Orbital Energies [Eh]
    ---------------------

    Doubly Occupied:

       1A    -20.613159     2A    -20.550445     3A    -15.576571
       4A    -15.564243     5A    -15.542967     6A    -15.521538
       7A    -11.385816     8A    -11.336608     9A    -11.274915
      10A    -11.248788    11A    -11.217901    12A    -11.207660
      13A     -1.458897    14A     -1.355688    15A     -1.294234
      16A     -1.193161    17A     -1.170226    18A     -1.153476
      19A     -1.055159    20A     -0.982241    21A     -0.899657
      22A     -0.824314    23A     -0.779494    24A     -0.764936
      25A     -0.712431    26A     -0.704432    27A     -0.700809
      28A     -0.691836    29A     -0.659142    30A     -0.641016
      31A     -0.623032    32A     -0.620332    33A     -0.603170
      34A     -0.597715    35A     -0.574296    36A     -0.557812
      37A     -0.546378    38A     -0.526223    39A     -0.496069
      40A     -0.480985    41A     -0.475626    42A     -0.472648
      43A     -0.444107    44A     -0.430862    45A     -0.405106
      46A     -0.395351    47A     -0.365322

  @DF-RHF Final Energy:  -603.12627446296062

   => Energetics <=

    Nuclear Repulsion Energy =            725.8555739645668154
    One-Electron Energy =               -2264.5701045513087593
    Two-Electron Energy =                 935.5882561237814343
    Total Energy =                       -603.1262744629606232
  Basis Set: (AUG-CC-PVTZ AUX)
    Blend: AUG-CC-PVTZ-RI
    Molecular point group: c1

    Geometry (in Angstrom), charge = 0, multiplicity = 1:

       Center              X                  Y                   Z               Mass
    ------------   -----------------  -----------------  -----------------  -----------------
         O           -2.181483620455     1.859990031772     0.037918029526    15.994914619570
         O           -3.717968620455     0.461688031772    -0.860763970474    15.994914619570
         N           -2.759371620455    -1.681691968228     0.514202029526    14.003074004430
         N            2.016180379545     0.295841031772    -0.231755970474    14.003074004430
         N            3.936507379545     1.289894031772     0.634295029526    14.003074004430
         N            4.132474379545    -0.859386968228    -0.213795970474    14.003074004430
         C           -0.661053620455    -0.416320968228     0.738692029526    12.000000000000
         C           -0.168385620455    -0.690568968228    -0.676508970474    12.000000000000
         C           -2.190210620455    -0.376480968228     0.841577029526    12.000000000000
         C            1.339609379545    -0.899431968228    -0.719156970474    12.000000000000
         C           -2.785677620455     0.651223031772    -0.096892970474    12.000000000000
         C            3.222643479545     0.215102431772     0.022120029526    12.000000000000
         H           -0.237078620455     0.523748031772     1.101389029526     1.007825032230
         H           -0.310018620455    -1.211572968228     1.411143029526     1.007825032230
         H           -0.681044620455    -1.572541968228    -1.074767970474     1.007825032230
         H           -0.412904620455     0.161687031772    -1.321479970474     1.007825032230
         H           -2.454736620455    -0.023167968228     1.855085029526     1.007825032230
         H            1.586861379545    -1.788482968228    -0.110263970474     1.007825032230
         H            1.648146379545    -1.125436968228    -1.751880970474     1.007825032230
         H           -3.728839620455    -1.567337968228     0.223427029526     1.007825032230
         H           -2.749308620455    -2.273513968228     1.342078029526     1.007825032230
         H           -2.644325620455     2.453853031772    -0.589104970474     1.007825032230
         H            3.315089379545     2.093345031772     0.661117029526     1.007825032230
         H            4.806627379545     1.522235031772     0.162620029526     1.007825032230
         H            4.840011379545    -0.977624968228     0.503882029526     1.007825032230
         H            3.664086379545    -1.731584968228    -0.428775970474     1.007825032230

  Basis Set: AUG-CC-PVTZ
    Blend: AUG-CC-PVTZ
  Basis Set: (AUG-CC-PVTZ AUX)
    Blend: AUG-CC-PVTZ-JKFIT
	 Reference Energy          =    -603.1262744629606232 [Eh]
	 Singles Energy            =      -0.0000000000000000 [Eh]
	 Same-Spin Energy          =      -0.6192970860087648 [Eh]
	 Opposite-Spin Energy      =      -1.9528369709788636 [Eh]
	 Correlation Energy        =      -2.5721340569876281 [Eh]
	 Total Energy              =    -605.6984085199482024 [Eh]

	 ================> DF-SCS-MP2 Energies <==================
	-----------------------------------------------------------
	 SCS Same-Spin Scale       =       0.3333333333333333 [-]
	 SCS Opposite-Spin Scale   =       1.2000000000000000 [-]
	 SCS Same-Spin Energy      =      -0.2064323620029216 [Eh]
	 SCS Opposite-Spin Energy  =      -2.3434043651746364 [Eh]
	 SCS Correlation Energy    =      -2.5498367271775577 [Eh]
	 SCS Total Energy          =    -605.6761111901381582 [Eh]
	-----------------------------------------------------------

  Dipole Moment: [D]
     X:     2.0681      Y:    -0.3212      Z:     1.5983     Total:     2.6334

*** Psi4 exiting successfully. Buy a developer a beer!
