                               Psi4 1.3.2 release

  ==> Input File <==

--------------------------------------------------------------------------
#psi4
#
memory 32 gb

molecule  {
0 1
  O       -2.2266400     1.8867650    -0.0032170
  O       -3.7615920     0.4694410    -0.8736430
  N       -2.7859400    -1.6499310     0.5252010
  N        1.9794570     0.3457110    -0.2591130
  N        3.8978530     1.3104060     0.6447910
  N        4.0160410    -0.8946960    -0.1223760
  C       -0.6937690    -0.3717720     0.7299070
  C       -0.1993830    -0.6671070    -0.6806480
  C       -2.2227870    -0.3377670     0.8339710
  C        1.2880937    -0.8530547    -0.7186870
  C       -2.8261080     0.6730930    -0.1173080
  C        3.2319800     0.2459460     0.0175660
  H       -0.2748670     0.5765650     1.0765220
  H       -0.3365530    -1.1529370     1.4152070
  H       -0.7054620    -1.5600450    -1.0625750
  H       -0.4516800     0.1714660    -1.3406670
  H       -2.4873830     0.0287790     1.8430020
  H        1.5813230    -1.7317920    -0.0895090
  H        1.6134840    -1.1144100    -1.7484380
  H       -3.7640510    -1.5477110     0.2601170
  H       -2.7467370    -2.2384130     1.3547150
  H       -2.6964570     2.4686380    -0.6361950
  H        3.2621090     2.1005400     0.7117460
  H        4.7565350     1.5848730     0.1747350
  H        5.0073770    -0.7866830     0.0488590
  H        3.7976690    -1.4866510    -0.9131750
units angstrom
no_reorient  #important for SAPT in psi4, default
symmetry c1  #important for SAPT in psi4, default
}

set PROPERTIES_ORIGIN ["COM"]
properties('MP2/aug-cc-pvtz', properties = ['dipole'])
--------------------------------------------------------------------------

    Molecular point group: c1
  Charge       = 0
  Multiplicity = 1
  Basis Set: AUG-CC-PVTZ
    Blend: AUG-CC-PVTZ
  Basis Set: (AUG-CC-PVTZ AUX)
    Blend: AUG-CC-PVTZ-JKFIT

    Orbital Energies [Eh]
    ---------------------

    Doubly Occupied:

       1A    -20.610034     2A    -20.547262     3A    -15.583318
       4A    -15.571545     5A    -15.539783     6A    -15.515026
       7A    -11.382558     8A    -11.341783     9A    -11.271090
      10A    -11.240067    11A    -11.212861    12A    -11.201323
      13A     -1.455689    14A     -1.352438    15A     -1.294775
      16A     -1.189767    17A     -1.167382    18A     -1.157817
      19A     -1.049162    20A     -0.976303    21A     -0.892506
      22A     -0.822120    23A     -0.783985    24A     -0.764889
      25A     -0.718997    26A     -0.702932    27A     -0.700625
      28A     -0.689512    29A     -0.656334    30A     -0.638475
      31A     -0.631646    32A     -0.617946    33A     -0.607960
      34A     -0.592012    35A     -0.569983    36A     -0.551273
      37A     -0.541581    38A     -0.521437    39A     -0.494343
      40A     -0.477227    41A     -0.470871    42A     -0.467551
      43A     -0.440521    44A     -0.438593    45A     -0.396699
      46A     -0.390584    47A     -0.345848

  @DF-RHF Final Energy:  -603.12520084298626

   => Energetics <=

    Nuclear Repulsion Energy =            725.9698751722263523
    One-Electron Energy =               -2265.0172822023455410
    Two-Electron Energy =                 935.9222061871330425
    Total Energy =                       -603.1252008429862599
  Basis Set: (AUG-CC-PVTZ AUX)
    Blend: AUG-CC-PVTZ-RI
    Molecular point group: c1

    Geometry (in Angstrom), charge = 0, multiplicity = 1:

       Center              X                  Y                   Z               Mass
    ------------   -----------------  -----------------  -----------------  -----------------
         O           -2.188085810952     1.859236466629     0.003119827729    15.994914619570
         O           -3.723037810952     0.441912466629    -0.867306172271    15.994914619570
         N           -2.747385810952    -1.677459533371     0.531537827729    14.003074004430
         N            2.018011189048     0.318182466629    -0.252776172271    14.003074004430
         N            3.936407189048     1.282877466629     0.651127827729    14.003074004430
         N            4.054595189048    -0.922224533371    -0.116039172271    14.003074004430
         C           -0.655214810952    -0.399300533371     0.736243827729    12.000000000000
         C           -0.160828810952    -0.694635533371    -0.674311172271    12.000000000000
         C           -2.184232810952    -0.365295533371     0.840307827729    12.000000000000
         C            1.326647889048    -0.880583233371    -0.712350172271    12.000000000000
         C           -2.787553810952     0.645564466629    -0.110971172271    12.000000000000
         C            3.270534189048     0.218417466629     0.023902827729    12.000000000000
         H           -0.236312810952     0.549036466629     1.082858827729     1.007825032230
         H           -0.297998810952    -1.180465533371     1.421543827729     1.007825032230
         H           -0.666907810952    -1.587573533371    -1.056238172271     1.007825032230
         H           -0.413125810952     0.143937466629    -1.334330172271     1.007825032230
         H           -2.448828810952     0.001250466629     1.849338827729     1.007825032230
         H            1.619877189048    -1.759320533371    -0.083172172271     1.007825032230
         H            1.652038189048    -1.141938533371    -1.742101172271     1.007825032230
         H           -3.725496810952    -1.575239533371     0.266453827729     1.007825032230
         H           -2.708182810952    -2.265941533371     1.361051827729     1.007825032230
         H           -2.657902810952     2.441109466629    -0.629858172271     1.007825032230
         H            3.300663189048     2.073011466629     0.718082827729     1.007825032230
         H            4.795089189048     1.557344466629     0.181071827729     1.007825032230
         H            5.045931189048    -0.814211533371     0.055195827729     1.007825032230
         H            3.836223189048    -1.514179533371    -0.906838172271     1.007825032230

  Basis Set: AUG-CC-PVTZ
    Blend: AUG-CC-PVTZ
  Basis Set: (AUG-CC-PVTZ AUX)
    Blend: AUG-CC-PVTZ-JKFIT
	 Reference Energy          =    -603.1252008429862599 [Eh]
	 Singles Energy            =      -0.0000000000000000 [Eh]
	 Same-Spin Energy          =      -0.6204277101412660 [Eh]
	 Opposite-Spin Energy      =      -1.9539201673834570 [Eh]
	 Correlation Energy        =      -2.5743478775247230 [Eh]
	 Total Energy              =    -605.6995487205109612 [Eh]

	 ================> DF-SCS-MP2 Energies <==================
	-----------------------------------------------------------
	 SCS Same-Spin Scale       =       0.3333333333333333 [-]
	 SCS Opposite-Spin Scale   =       1.2000000000000000 [-]
	 SCS Same-Spin Energy      =      -0.2068092367137553 [Eh]
	 SCS Opposite-Spin Energy  =      -2.3447042008601482 [Eh]
	 SCS Correlation Energy    =      -2.5515134375739037 [Eh]
	 SCS Total Energy          =    -605.6767142805601907 [Eh]
	-----------------------------------------------------------

  Dipole Moment: [D]
     X:     3.3707      Y:     0.2947      Z:     0.3371     Total:     3.4003

*** Psi4 exiting successfully. Buy a developer a beer!
