                               Psi4 1.4a3.dev225

  ==> Input File <==

--------------------------------------------------------------------------
#psi4
#
memory 32 gb

molecule  {
0 1
  O       -2.2193770     1.8892330     0.0268230
  O       -3.7558620     0.4909310    -0.8718590
  N       -2.7972650    -1.6524490     0.5031070
  N        1.9782870     0.3250840    -0.2428510
  N        3.8986140     1.3191370     0.6232000
  N        4.0945810    -0.8301440    -0.2248910
  C       -0.6989470    -0.3870780     0.7275970
  C       -0.2062790    -0.6613260    -0.6876040
  C       -2.2281040    -0.3472380     0.8304820
  C        1.3249277    -0.8291817    -0.7135303
  C       -2.8235710     0.6804660    -0.1079880
  C        3.2335740     0.2410780     0.0212990
  H       -0.2749720     0.5529910     1.0902940
  H       -0.3479120    -1.1823300     1.4000480
  H       -0.7189380    -1.5432990    -1.0858630
  H       -0.4507980     0.1909300    -1.3325750
  H       -2.4926300     0.0060750     1.8439900
  H        1.5489680    -1.7592400    -0.1213590
  H        1.6102530    -1.0961940    -1.7629760
  H       -3.7667330    -1.5380950     0.2123320
  H       -2.7872020    -2.2442710     1.3309830
  H       -2.6822190     2.4830960    -0.6002000
  H        3.2771960     2.1225880     0.6500220
  H        4.7687340     1.5514780     0.1515250
  H        4.8021180    -0.9483820     0.4927870
  H        3.6261930    -1.7023420    -0.4398710
units angstrom
no_reorient  #important for SAPT in psi4, default
symmetry c1  #important for SAPT in psi4, default
}

set PROPERTIES_ORIGIN ["COM"]
properties('MP2/aug-cc-pvtz', properties = ['dipole'])
--------------------------------------------------------------------------

    Molecular point group: c1
  Charge       = 0
  Multiplicity = 1
  Basis Set: AUG-CC-PVTZ
    Blend: AUG-CC-PVTZ
  Basis Set: (AUG-CC-PVTZ AUX)
    Blend: AUG-CC-PVTZ-JKFIT

    Orbital Energies [Eh]
    ---------------------

    Doubly Occupied:

       1A    -20.611182     2A    -20.548420     3A    -15.584356
       4A    -15.571381     5A    -15.540915     6A    -15.518507
       7A    -11.383741     8A    -11.344775     9A    -11.272307
      10A    -11.244428    11A    -11.214254    12A    -11.204128
      13A     -1.456888    14A     -1.353703    15A     -1.299929
      16A     -1.190988    17A     -1.170821    18A     -1.167672
      19A     -1.047988    20A     -0.974263    21A     -0.894675
      22A     -0.825093    23A     -0.783852    24A     -0.765801
      25A     -0.720396    26A     -0.705581    27A     -0.702738
      28A     -0.691979    29A     -0.656743    30A     -0.637826
      31A     -0.622341    32A     -0.618595    33A     -0.610849
      34A     -0.598521    35A     -0.571769    36A     -0.557176
      37A     -0.547089    38A     -0.523895    39A     -0.491796
      40A     -0.477896    41A     -0.472363    42A     -0.470079
      43A     -0.441725    44A     -0.438106    45A     -0.400485
      46A     -0.391665    47A     -0.350033

  @DF-RHF Final Energy:  -603.12567897621204

   => Energetics <=

    Nuclear Repulsion Energy =            725.9304296112034081
    One-Electron Energy =               -2264.7727906603695374
    Two-Electron Energy =                 935.7166820729540859
    Total Energy =                       -603.1256789762120434
  Basis Set: (AUG-CC-PVTZ AUX)
    Blend: AUG-CC-PVTZ-RI
    Molecular point group: c1

    Geometry (in Angstrom), charge = 0, multiplicity = 1:

       Center              X                  Y                   Z               Mass
    ------------   -----------------  -----------------  -----------------  -----------------
         O           -2.186448406397     1.857388949460     0.036057451258    15.994914619570
         O           -3.722933406397     0.459086949460    -0.862624548742    15.994914619570
         N           -2.764336406397    -1.684293050540     0.512341451258    14.003074004430
         N            2.011215593603     0.293239949460    -0.233616548742    14.003074004430
         N            3.931542593603     1.287292949460     0.632434451258    14.003074004430
         N            4.127509593603    -0.861988050540    -0.215656548742    14.003074004430
         C           -0.666018406397    -0.418922050540     0.736831451258    12.000000000000
         C           -0.173350406397    -0.693170050540    -0.678369548742    12.000000000000
         C           -2.195175406397    -0.379082050540     0.839716451258    12.000000000000
         C            1.357856293603    -0.861025750540    -0.704295848742    12.000000000000
         C           -2.790642406397     0.648621949460    -0.098753548742    12.000000000000
         C            3.266502593603     0.209233949460     0.030533451258    12.000000000000
         H           -0.242043406397     0.521146949460     1.099528451258     1.007825032230
         H           -0.314983406397    -1.214174050540     1.409282451258     1.007825032230
         H           -0.686009406397    -1.575143050540    -1.076628548742     1.007825032230
         H           -0.417869406397     0.159085949460    -1.323340548742     1.007825032230
         H           -2.459701406397    -0.025769050540     1.853224451258     1.007825032230
         H            1.581896593603    -1.791084050540    -0.112124548742     1.007825032230
         H            1.643181593603    -1.128038050540    -1.753741548742     1.007825032230
         H           -3.733804406397    -1.569939050540     0.221566451258     1.007825032230
         H           -2.754273406397    -2.276115050540     1.340217451258     1.007825032230
         H           -2.649290406397     2.451251949460    -0.590965548742     1.007825032230
         H            3.310124593603     2.090743949460     0.659256451258     1.007825032230
         H            4.801662593603     1.519633949460     0.160759451258     1.007825032230
         H            4.835046593603    -0.980226050540     0.502021451258     1.007825032230
         H            3.659121593603    -1.734186050540    -0.430636548742     1.007825032230

  Basis Set: AUG-CC-PVTZ
    Blend: AUG-CC-PVTZ
  Basis Set: (AUG-CC-PVTZ AUX)
    Blend: AUG-CC-PVTZ-JKFIT
	 Reference Energy          =    -603.1256789762120434 [Eh]
	 Singles Energy            =      -0.0000000000000000 [Eh]
	 Same-Spin Energy          =      -0.6204893930880228 [Eh]
	 Opposite-Spin Energy      =      -1.9537599677896926 [Eh]
	 Correlation Energy        =      -2.5742493608777153 [Eh]
	 Total Energy              =    -605.6999283370897729 [Eh]

	 ================> DF-SCS-MP2 Energies <==================
	-----------------------------------------------------------
	 SCS Same-Spin Scale       =       0.3333333333333333 [-]
	 SCS Opposite-Spin Scale   =       1.2000000000000000 [-]
	 SCS Same-Spin Energy      =      -0.2068297976960076 [Eh]
	 SCS Opposite-Spin Energy  =      -2.3445119613476311 [Eh]
	 SCS Correlation Energy    =      -2.5513417590436385 [Eh]
	 SCS Total Energy          =    -605.6770207352557236 [Eh]
	-----------------------------------------------------------

  Dipole Moment: [D]
     X:     2.6374      Y:    -0.2035      Z:     1.7234     Total:     3.1571

*** Psi4 exiting successfully. Buy a developer a beer!
