                               Psi4 1.3.2 release

  ==> Input File <==

--------------------------------------------------------------------------
#psi4
#
memory 32 gb

molecule  {
0 1
  O       -2.2266400     1.8867650    -0.0032170
  O       -3.7615920     0.4694410    -0.8736430
  N       -2.7859400    -1.6499310     0.5252010
  N        1.9794570     0.3457110    -0.2591130
  N        3.8978530     1.3104060     0.6447910
  N        4.0160410    -0.8946960    -0.1223760
  C       -0.6937690    -0.3717720     0.7299070
  C       -0.1993830    -0.6671070    -0.6806480
  C       -2.2227870    -0.3377670     0.8339710
  C        1.3098450    -0.8661090    -0.7166530
  C       -2.8261080     0.6730930    -0.1173080
  C        3.1921076     0.2741731     0.0139043
  H       -0.2748670     0.5765650     1.0765220
  H       -0.3365530    -1.1529370     1.4152070
  H       -0.7054620    -1.5600450    -1.0625750
  H       -0.4516800     0.1714660    -1.3406670
  H       -2.4873830     0.0287790     1.8430020
  H        1.5813230    -1.7317920    -0.0895090
  H        1.6134840    -1.1144100    -1.7484380
  H       -3.7640510    -1.5477110     0.2601170
  H       -2.7467370    -2.2384130     1.3547150
  H       -2.6964570     2.4686380    -0.6361950
  H        3.2621090     2.1005400     0.7117460
  H        4.7565350     1.5848730     0.1747350
  H        5.0073770    -0.7866830     0.0488590
  H        3.7976690    -1.4866510    -0.9131750
units angstrom
no_reorient  #important for SAPT in psi4, default
symmetry c1  #important for SAPT in psi4, default
}

set PROPERTIES_ORIGIN ["COM"]
properties('MP2/aug-cc-pvtz', properties = ['dipole'])
--------------------------------------------------------------------------

    Molecular point group: c1
  Charge       = 0
  Multiplicity = 1
  Basis Set: AUG-CC-PVTZ
    Blend: AUG-CC-PVTZ
  Basis Set: (AUG-CC-PVTZ AUX)
    Blend: AUG-CC-PVTZ-JKFIT

    Orbital Energies [Eh]
    ---------------------

    Doubly Occupied:

       1A    -20.611178     2A    -20.548346     3A    -15.574715
       4A    -15.570317     5A    -15.540797     6A    -15.517890
       7A    -11.383669     8A    -11.337988     9A    -11.272390
      10A    -11.243281    11A    -11.214620    12A    -11.204279
      13A     -1.456814    14A     -1.353528    15A     -1.293647
      16A     -1.190878    17A     -1.168763    18A     -1.154840
      19A     -1.051501    20A     -0.978792    21A     -0.896438
      22A     -0.822068    23A     -0.779636    24A     -0.764727
      25A     -0.711626    26A     -0.702616    27A     -0.700709
      28A     -0.691558    29A     -0.656728    30A     -0.640312
      31A     -0.628977    32A     -0.618978    33A     -0.608519
      34A     -0.594923    35A     -0.570263    36A     -0.550702
      37A     -0.543837    38A     -0.521718    39A     -0.493604
      40A     -0.478813    41A     -0.472093    42A     -0.469956
      43A     -0.441791    44A     -0.435040    45A     -0.399343
      46A     -0.392859    47A     -0.358336

  @DF-RHF Final Energy:  -603.12465122849596

   => Energetics <=

    Nuclear Repulsion Energy =            726.0847848387782051
    One-Electron Energy =               -2265.1900660844025879
    Two-Electron Energy =                 935.9806300171284192
    Total Energy =                       -603.1246512284959636
  Basis Set: (AUG-CC-PVTZ AUX)
    Blend: AUG-CC-PVTZ-RI
    Molecular point group: c1

    Geometry (in Angstrom), charge = 0, multiplicity = 1:

       Center              X                  Y                   Z               Mass
    ------------   -----------------  -----------------  -----------------  -----------------
         O           -2.186836881498     1.858190737793     0.003232010900    15.994914619570
         O           -3.721788881498     0.440866737793    -0.867193989100    15.994914619570
         N           -2.746136881498    -1.678505262207     0.531650010900    14.003074004430
         N            2.019260118502     0.317136737793    -0.252663989100    14.003074004430
         N            3.937656118502     1.281831737793     0.651240010900    14.003074004430
         N            4.055844118502    -0.923270262207    -0.115926989100    14.003074004430
         C           -0.653965881498    -0.400346262207     0.736356010900    12.000000000000
         C           -0.159579881498    -0.695681262207    -0.674198989100    12.000000000000
         C           -2.182983881498    -0.366341262207     0.840420010900    12.000000000000
         C            1.349648118502    -0.894683262207    -0.710203989100    12.000000000000
         C           -2.786304881498     0.644518737793    -0.110858989100    12.000000000000
         C            3.231910718502     0.245598837793     0.020353310900    12.000000000000
         H           -0.235063881498     0.547990737793     1.082971010900     1.007825032230
         H           -0.296749881498    -1.181511262207     1.421656010900     1.007825032230
         H           -0.665658881498    -1.588619262207    -1.056125989100     1.007825032230
         H           -0.411876881498     0.142891737793    -1.334217989100     1.007825032230
         H           -2.447579881498     0.000204737793     1.849451010900     1.007825032230
         H            1.621126118502    -1.760366262207    -0.083059989100     1.007825032230
         H            1.653287118502    -1.142984262207    -1.741988989100     1.007825032230
         H           -3.724247881498    -1.576285262207     0.266566010900     1.007825032230
         H           -2.706933881498    -2.266987262207     1.361164010900     1.007825032230
         H           -2.656653881498     2.440063737793    -0.629745989100     1.007825032230
         H            3.301912118502     2.071965737793     0.718195010900     1.007825032230
         H            4.796338118502     1.556298737793     0.181184010900     1.007825032230
         H            5.047180118502    -0.815257262207     0.055308010900     1.007825032230
         H            3.837472118502    -1.515225262207    -0.906725989100     1.007825032230

  Basis Set: AUG-CC-PVTZ
    Blend: AUG-CC-PVTZ
  Basis Set: (AUG-CC-PVTZ AUX)
    Blend: AUG-CC-PVTZ-JKFIT
	 Reference Energy          =    -603.1246512284959636 [Eh]
	 Singles Energy            =      -0.0000000000000000 [Eh]
	 Same-Spin Energy          =      -0.6195869073291900 [Eh]
	 Opposite-Spin Energy      =      -1.9529487754599086 [Eh]
	 Correlation Energy        =      -2.5725356827890984 [Eh]
	 Total Energy              =    -605.6971869112850300 [Eh]

	 ================> DF-SCS-MP2 Energies <==================
	-----------------------------------------------------------
	 SCS Same-Spin Scale       =       0.3333333333333333 [-]
	 SCS Opposite-Spin Scale   =       1.2000000000000000 [-]
	 SCS Same-Spin Energy      =      -0.2065289691097300 [Eh]
	 SCS Opposite-Spin Energy  =      -2.3435385305518901 [Eh]
	 SCS Correlation Energy    =      -2.5500674996616199 [Eh]
	 SCS Total Energy          =    -605.6747187281575862 [Eh]
	-----------------------------------------------------------

  Dipole Moment: [D]
     X:     3.0431      Y:     0.4410      Z:     0.3120     Total:     3.0907

*** Psi4 exiting successfully. Buy a developer a beer!
