                               Psi4 1.4a3.dev225

  ==> Input File <==

--------------------------------------------------------------------------
#psi4
#
memory 32 gb

molecule  {
0 1
  O       -2.2193770     1.8892330     0.0268230
  O       -3.7558620     0.4909310    -0.8718590
  N       -2.7972650    -1.6524490     0.5031070
  N        1.9782870     0.3250840    -0.2428510
  N        3.8986140     1.3191370     0.6232000
  N        4.0945810    -0.8301440    -0.2248910
  C       -0.6989470    -0.3870780     0.7275970
  C       -0.2062790    -0.6613260    -0.6876040
  C       -2.2281040    -0.3472380     0.8304820
  C        1.2924313    -0.8865919    -0.7369407
  C       -2.8235710     0.6804660    -0.1079880
  C        3.2335740     0.2410780     0.0212990
  H       -0.2749720     0.5529910     1.0902940
  H       -0.3479120    -1.1823300     1.4000480
  H       -0.7189380    -1.5432990    -1.0858630
  H       -0.4507980     0.1909300    -1.3325750
  H       -2.4926300     0.0060750     1.8439900
  H        1.5489680    -1.7592400    -0.1213590
  H        1.6102530    -1.0961940    -1.7629760
  H       -3.7667330    -1.5380950     0.2123320
  H       -2.7872020    -2.2442710     1.3309830
  H       -2.6822190     2.4830960    -0.6002000
  H        3.2771960     2.1225880     0.6500220
  H        4.7687340     1.5514780     0.1515250
  H        4.8021180    -0.9483820     0.4927870
  H        3.6261930    -1.7023420    -0.4398710
units angstrom
no_reorient  #important for SAPT in psi4, default
symmetry c1  #important for SAPT in psi4, default
}

set PROPERTIES_ORIGIN ["COM"]
properties('MP2/aug-cc-pvtz', properties = ['dipole'])
--------------------------------------------------------------------------

    Molecular point group: c1
  Charge       = 0
  Multiplicity = 1
  Basis Set: AUG-CC-PVTZ
    Blend: AUG-CC-PVTZ
  Basis Set: (AUG-CC-PVTZ AUX)
    Blend: AUG-CC-PVTZ-JKFIT

    Orbital Energies [Eh]
    ---------------------

    Doubly Occupied:

       1A    -20.611694     2A    -20.549013     3A    -15.581898
       4A    -15.568899     5A    -15.541458     6A    -15.518166
       7A    -11.384346     8A    -11.340435     9A    -11.273172
      10A    -11.243116    11A    -11.215504    12A    -11.204695
      13A     -1.457438    14A     -1.354257    15A     -1.294035
      16A     -1.191509    17A     -1.165293    18A     -1.156258
      19A     -1.050283    20A     -0.977928    21A     -0.895593
      22A     -0.822687    23A     -0.784183    24A     -0.766416
      25A     -0.714346    26A     -0.704343    27A     -0.702150
      28A     -0.692318    29A     -0.657868    30A     -0.636659
      31A     -0.620310    32A     -0.618533    33A     -0.608252
      34A     -0.598496    35A     -0.573467    36A     -0.557485
      37A     -0.542315    38A     -0.527003    39A     -0.494517
      40A     -0.479480    41A     -0.473990    42A     -0.469847
      43A     -0.442470    44A     -0.435788    45A     -0.399619
      46A     -0.392978    47A     -0.351313

  @DF-RHF Final Energy:  -603.12779389140303

   => Energetics <=

    Nuclear Repulsion Energy =            725.1549436987293120
    One-Electron Energy =               -2263.2818296770656161
    Two-Electron Energy =                 934.9990920869332740
    Total Energy =                       -603.1277938914030301
  Basis Set: (AUG-CC-PVTZ AUX)
    Blend: AUG-CC-PVTZ-RI
    Molecular point group: c1

    Geometry (in Angstrom), charge = 0, multiplicity = 1:

       Center              X                  Y                   Z               Mass
    ------------   -----------------  -----------------  -----------------  -----------------
         O           -2.184208712831     1.861345734076     0.037670926051    15.994914619570
         O           -3.720693712831     0.463043734076    -0.861011073949    15.994914619570
         N           -2.762096712831    -1.680336265924     0.513954926051    14.003074004430
         N            2.013455287169     0.297196734076    -0.232003073949    14.003074004430
         N            3.933782287169     1.291249734076     0.634047926051    14.003074004430
         N            4.129749287169    -0.858031265924    -0.214043073949    14.003074004430
         C           -0.663778712831    -0.414965265924     0.738444926051    12.000000000000
         C           -0.171110712831    -0.689213265924    -0.676756073949    12.000000000000
         C           -2.192935712831    -0.375125265924     0.841329926051    12.000000000000
         C            1.327599587169    -0.914479165924    -0.726092773949    12.000000000000
         C           -2.788402712831     0.652578734076    -0.097140073949    12.000000000000
         C            3.268742287169     0.213190734076     0.032146926051    12.000000000000
         H           -0.239803712831     0.525103734076     1.101141926051     1.007825032230
         H           -0.312743712831    -1.210217265924     1.410895926051     1.007825032230
         H           -0.683769712831    -1.571186265924    -1.075015073949     1.007825032230
         H           -0.415629712831     0.163042734076    -1.321727073949     1.007825032230
         H           -2.457461712831    -0.021812265924     1.854837926051     1.007825032230
         H            1.584136287169    -1.787127265924    -0.110511073949     1.007825032230
         H            1.645421287169    -1.124081265924    -1.752128073949     1.007825032230
         H           -3.731564712831    -1.565982265924     0.223179926051     1.007825032230
         H           -2.752033712831    -2.272158265924     1.341830926051     1.007825032230
         H           -2.647050712831     2.455208734076    -0.589352073949     1.007825032230
         H            3.312364287169     2.094700734076     0.660869926051     1.007825032230
         H            4.803902287169     1.523590734076     0.162372926051     1.007825032230
         H            4.837286287169    -0.976269265924     0.503634926051     1.007825032230
         H            3.661361287169    -1.730229265924    -0.429023073949     1.007825032230

  Basis Set: AUG-CC-PVTZ
    Blend: AUG-CC-PVTZ
  Basis Set: (AUG-CC-PVTZ AUX)
    Blend: AUG-CC-PVTZ-JKFIT
	 Reference Energy          =    -603.1277938914030301 [Eh]
	 Singles Energy            =      -0.0000000000000000 [Eh]
	 Same-Spin Energy          =      -0.6200372063974939 [Eh]
	 Opposite-Spin Energy      =      -1.9538795425677504 [Eh]
	 Correlation Energy        =      -2.5739167489652441 [Eh]
	 Total Energy              =    -605.7017106403682192 [Eh]

	 ================> DF-SCS-MP2 Energies <==================
	-----------------------------------------------------------
	 SCS Same-Spin Scale       =       0.3333333333333333 [-]
	 SCS Opposite-Spin Scale   =       1.2000000000000000 [-]
	 SCS Same-Spin Energy      =      -0.2066790687991646 [Eh]
	 SCS Opposite-Spin Energy  =      -2.3446554510813002 [Eh]
	 SCS Correlation Energy    =      -2.5513345198804647 [Eh]
	 SCS Total Energy          =    -605.6791284112835001 [Eh]
	-----------------------------------------------------------

  Dipole Moment: [D]
     X:     2.4688      Y:    -0.3289      Z:     1.6721     Total:     2.9998

*** Psi4 exiting successfully. Buy a developer a beer!
