                               Psi4 1.3.2 release

  ==> Input File <==

--------------------------------------------------------------------------
#psi4
#
memory 32 gb

molecule  {
0 1
  O       -2.2266400     1.8867650    -0.0032170
  O       -3.7615920     0.4694410    -0.8736430
  N       -2.7859400    -1.6499310     0.5252010
  N        1.9813156     0.4280299    -0.2232704
  N        3.8978530     1.3104060     0.6447910
  N        4.0160410    -0.8946960    -0.1223760
  C       -0.6937690    -0.3717720     0.7299070
  C       -0.1993830    -0.6671070    -0.6806480
  C       -2.2227870    -0.3377670     0.8339710
  C        1.3098450    -0.8661090    -0.7166530
  C       -2.8261080     0.6730930    -0.1173080
  C        3.2319800     0.2459460     0.0175660
  H       -0.2748670     0.5765650     1.0765220
  H       -0.3365530    -1.1529370     1.4152070
  H       -0.7054620    -1.5600450    -1.0625750
  H       -0.4516800     0.1714660    -1.3406670
  H       -2.4873830     0.0287790     1.8430020
  H        1.5813230    -1.7317920    -0.0895090
  H        1.6134840    -1.1144100    -1.7484380
  H       -3.7640510    -1.5477110     0.2601170
  H       -2.7467370    -2.2384130     1.3547150
  H       -2.6964570     2.4686380    -0.6361950
  H        3.2621090     2.1005400     0.7117460
  H        4.7565350     1.5848730     0.1747350
  H        5.0073770    -0.7866830     0.0488590
  H        3.7976690    -1.4866510    -0.9131750
units angstrom
no_reorient  #important for SAPT in psi4, default
symmetry c1  #important for SAPT in psi4, default
}

set PROPERTIES_ORIGIN ["COM"]
properties('MP2/aug-cc-pvtz', properties = ['dipole'])
--------------------------------------------------------------------------

    Molecular point group: c1
  Charge       = 0
  Multiplicity = 1
  Basis Set: AUG-CC-PVTZ
    Blend: AUG-CC-PVTZ
  Basis Set: (AUG-CC-PVTZ AUX)
    Blend: AUG-CC-PVTZ-JKFIT

    Orbital Energies [Eh]
    ---------------------

    Doubly Occupied:

       1A    -20.609826     2A    -20.547150     3A    -15.586993
       4A    -15.566196     5A    -15.539747     6A    -15.522328
       7A    -11.382432     8A    -11.340376     9A    -11.270952
      10A    -11.243566    11A    -11.212694    12A    -11.203163
      13A     -1.455516    14A     -1.352296    15A     -1.293660
      16A     -1.189581    17A     -1.168928    18A     -1.144215
      19A     -1.047726    20A     -0.974228    21A     -0.890098
      22A     -0.817098    23A     -0.786950    24A     -0.765496
      25A     -0.717805    26A     -0.702549    27A     -0.698874
      28A     -0.688624    29A     -0.655973    30A     -0.634740
      31A     -0.629623    32A     -0.617734    33A     -0.600664
      34A     -0.590231    35A     -0.569072    36A     -0.550764
      37A     -0.536917    38A     -0.520034    39A     -0.489020
      40A     -0.477850    41A     -0.469291    42A     -0.465956
      43A     -0.440434    44A     -0.439303    45A     -0.403978
      46A     -0.391872    47A     -0.350725

  @DF-RHF Final Energy:  -603.11889215158203

   => Energetics <=

    Nuclear Repulsion Energy =            724.6892012341323834
    One-Electron Energy =               -2262.5096948180198524
    Two-Electron Energy =                 934.7016014323055515
    Total Energy =                       -603.1188921515820311
  Basis Set: (AUG-CC-PVTZ AUX)
    Blend: AUG-CC-PVTZ-RI
    Molecular point group: c1

    Geometry (in Angstrom), charge = 0, multiplicity = 1:

       Center              X                  Y                   Z               Mass
    ------------   -----------------  -----------------  -----------------  -----------------
         O           -2.189734417871     1.853515620829     0.000096971403    15.994914619570
         O           -3.724686417871     0.436191620829    -0.870329028597    15.994914619570
         N           -2.749034417871    -1.683180379171     0.528514971403    14.003074004430
         N            2.018221182129     0.394780520829    -0.219956428597    14.003074004430
         N            3.934758582129     1.277156620829     0.648104971403    14.003074004430
         N            4.052946582129    -0.927945379171    -0.119062028597    14.003074004430
         C           -0.656863417871    -0.405021379171     0.733220971403    12.000000000000
         C           -0.162477417871    -0.700356379171    -0.677334028597    12.000000000000
         C           -2.185881417871    -0.371016379171     0.837284971403    12.000000000000
         C            1.346750582129    -0.899358379171    -0.713339028597    12.000000000000
         C           -2.789202417871     0.639843620829    -0.113994028597    12.000000000000
         C            3.268885582129     0.212696620829     0.020879971403    12.000000000000
         H           -0.237961417871     0.543315620829     1.079835971403     1.007825032230
         H           -0.299647417871    -1.186186379171     1.418520971403     1.007825032230
         H           -0.668556417871    -1.593294379171    -1.059261028597     1.007825032230
         H           -0.414774417871     0.138216620829    -1.337353028597     1.007825032230
         H           -2.450477417871    -0.004470379171     1.846315971403     1.007825032230
         H            1.618228582129    -1.765041379171    -0.086195028597     1.007825032230
         H            1.650389582129    -1.147659379171    -1.745124028597     1.007825032230
         H           -3.727145417871    -1.580960379171     0.263430971403     1.007825032230
         H           -2.709831417871    -2.271662379171     1.358028971403     1.007825032230
         H           -2.659551417871     2.435388620829    -0.632881028597     1.007825032230
         H            3.299014582129     2.067290620829     0.715059971403     1.007825032230
         H            4.793440582129     1.551623620829     0.178048971403     1.007825032230
         H            5.044282582129    -0.819932379171     0.052172971403     1.007825032230
         H            3.834574582129    -1.519900379171    -0.909861028597     1.007825032230

  Basis Set: AUG-CC-PVTZ
    Blend: AUG-CC-PVTZ
  Basis Set: (AUG-CC-PVTZ AUX)
    Blend: AUG-CC-PVTZ-JKFIT
	 Reference Energy          =    -603.1188921515820311 [Eh]
	 Singles Energy            =      -0.0000000000000000 [Eh]
	 Same-Spin Energy          =      -0.6203564541933158 [Eh]
	 Opposite-Spin Energy      =      -1.9553021992831341 [Eh]
	 Correlation Energy        =      -2.5756586534764496 [Eh]
	 Total Energy              =    -605.6945508050584976 [Eh]

	 ================> DF-SCS-MP2 Energies <==================
	-----------------------------------------------------------
	 SCS Same-Spin Scale       =       0.3333333333333333 [-]
	 SCS Opposite-Spin Scale   =       1.2000000000000000 [-]
	 SCS Same-Spin Energy      =      -0.2067854847311053 [Eh]
	 SCS Opposite-Spin Energy  =      -2.3463626391397607 [Eh]
	 SCS Correlation Energy    =      -2.5531481238708658 [Eh]
	 SCS Total Energy          =    -605.6720402754529005 [Eh]
	-----------------------------------------------------------

  Dipole Moment: [D]
     X:     3.3629      Y:     0.0577      Z:     0.2470     Total:     3.3725

*** Psi4 exiting successfully. Buy a developer a beer!
