                               Psi4 1.3.2 release

  ==> Input File <==

--------------------------------------------------------------------------
#psi4
#
memory 32 gb

molecule  {
0 1
  O       -2.2266400     1.8867650    -0.0032170
  O       -3.7615920     0.4694410    -0.8736430
  N       -2.7859400    -1.6499310     0.5252010
  N        1.9794570     0.3457110    -0.2591130
  N        3.8978530     1.3104060     0.6447910
  N        4.0160410    -0.8946960    -0.1223760
  C       -0.6937690    -0.3717720     0.7299070
  C       -0.1993830    -0.6671070    -0.6806480
  C       -2.2227870    -0.3377670     0.8339710
  C        1.1826263    -0.7823895    -0.7267463
  C       -2.8261080     0.6730930    -0.1173080
  C        3.2319800     0.2459460     0.0175660
  H       -0.2748670     0.5765650     1.0765220
  H       -0.3365530    -1.1529370     1.4152070
  H       -0.7054620    -1.5600450    -1.0625750
  H       -0.4516800     0.1714660    -1.3406670
  H       -2.4873830     0.0287790     1.8430020
  H        1.5813230    -1.7317920    -0.0895090
  H        1.6134840    -1.1144100    -1.7484380
  H       -3.7640510    -1.5477110     0.2601170
  H       -2.7467370    -2.2384130     1.3547150
  H       -2.6964570     2.4686380    -0.6361950
  H        3.2621090     2.1005400     0.7117460
  H        4.7565350     1.5848730     0.1747350
  H        5.0073770    -0.7866830     0.0488590
  H        3.7976690    -1.4866510    -0.9131750
units angstrom
no_reorient  #important for SAPT in psi4, default
symmetry c1  #important for SAPT in psi4, default
}

set PROPERTIES_ORIGIN ["COM"]
properties('MP2/aug-cc-pvtz', properties = ['dipole'])
--------------------------------------------------------------------------

    Molecular point group: c1
  Charge       = 0
  Multiplicity = 1
  Basis Set: AUG-CC-PVTZ
    Blend: AUG-CC-PVTZ
  Basis Set: (AUG-CC-PVTZ AUX)
    Blend: AUG-CC-PVTZ-JKFIT

    Orbital Energies [Eh]
    ---------------------

    Doubly Occupied:

       1A    -20.611296     2A    -20.548609     3A    -15.582348
       4A    -15.571014     5A    -15.541521     6A    -15.514560
       7A    -11.383930     8A    -11.343048     9A    -11.272773
      10A    -11.250583    11A    -11.215458    12A    -11.199350
      13A     -1.456998    14A     -1.353758    15A     -1.292763
      16A     -1.191894    17A     -1.166257    18A     -1.159387
      19A     -1.063664    20A     -0.987093    21A     -0.892977
      22A     -0.825417    23A     -0.782642    24A     -0.764262
      25A     -0.718146    26A     -0.704155    27A     -0.702118
      28A     -0.688186    29A     -0.659352    30A     -0.642255
      31A     -0.630843    32A     -0.619408    33A     -0.610849
      34A     -0.590953    35A     -0.574589    36A     -0.555497
      37A     -0.545107    38A     -0.521821    39A     -0.506976
      40A     -0.480197    41A     -0.477474    42A     -0.454840
      43A     -0.441771    44A     -0.437432    45A     -0.395627
      46A     -0.381049    47A     -0.338532

  @DF-RHF Final Energy:  -603.09856501092770

   => Energetics <=

    Nuclear Repulsion Energy =            727.1925495849205845
    One-Electron Energy =               -2267.2846702374577035
    Two-Electron Energy =                 936.9935556416095324
    Total Energy =                       -603.0985650109277003
  Basis Set: (AUG-CC-PVTZ AUX)
    Blend: AUG-CC-PVTZ-RI
    Molecular point group: c1

    Geometry (in Angstrom), charge = 0, multiplicity = 1:

       Center              X                  Y                   Z               Mass
    ------------   -----------------  -----------------  -----------------  -----------------
         O           -2.180816862475     1.854366130412     0.003675285021    15.994914619570
         O           -3.715768862475     0.437042130412    -0.866750714979    15.994914619570
         N           -2.740116862475    -1.682329869588     0.532093285021    14.003074004430
         N            2.025280137525     0.313312130412    -0.252220714979    14.003074004430
         N            3.943676137525     1.278007130412     0.651683285021    14.003074004430
         N            4.061864137525    -0.927094869588    -0.115483714979    14.003074004430
         C           -0.647945862475    -0.404170869588     0.736799285021    12.000000000000
         C           -0.153559862475    -0.699505869588    -0.673755714979    12.000000000000
         C           -2.176963862475    -0.370165869588     0.840863285021    12.000000000000
         C            1.228449437525    -0.814788369588    -0.719854014979    12.000000000000
         C           -2.780284862475     0.640694130412    -0.110415714979    12.000000000000
         C            3.277803137525     0.213547130412     0.024458285021    12.000000000000
         H           -0.229043862475     0.544166130412     1.083414285021     1.007825032230
         H           -0.290729862475    -1.185335869588     1.422099285021     1.007825032230
         H           -0.659638862475    -1.592443869588    -1.055682714979     1.007825032230
         H           -0.405856862475     0.139067130412    -1.333774714979     1.007825032230
         H           -2.441559862475    -0.003619869588     1.849894285021     1.007825032230
         H            1.627146137525    -1.764190869588    -0.082616714979     1.007825032230
         H            1.659307137525    -1.146808869588    -1.741545714979     1.007825032230
         H           -3.718227862475    -1.580109869588     0.267009285021     1.007825032230
         H           -2.700913862475    -2.270811869588     1.361607285021     1.007825032230
         H           -2.650633862475     2.436239130412    -0.629302714979     1.007825032230
         H            3.307932137525     2.068141130412     0.718638285021     1.007825032230
         H            4.802358137525     1.552474130412     0.181627285021     1.007825032230
         H            5.053200137525    -0.819081869588     0.055751285021     1.007825032230
         H            3.843492137525    -1.519049869588    -0.906282714979     1.007825032230

  Basis Set: AUG-CC-PVTZ
    Blend: AUG-CC-PVTZ
  Basis Set: (AUG-CC-PVTZ AUX)
    Blend: AUG-CC-PVTZ-JKFIT
	 Reference Energy          =    -603.0985650109277003 [Eh]
	 Singles Energy            =      -0.0000000000000000 [Eh]
	 Same-Spin Energy          =      -0.6220533934678050 [Eh]
	 Opposite-Spin Energy      =      -1.9560800751017691 [Eh]
	 Correlation Energy        =      -2.5781334685695740 [Eh]
	 Total Energy              =    -605.6766984794973041 [Eh]

	 ================> DF-SCS-MP2 Energies <==================
	-----------------------------------------------------------
	 SCS Same-Spin Scale       =       0.3333333333333333 [-]
	 SCS Opposite-Spin Scale   =       1.2000000000000000 [-]
	 SCS Same-Spin Energy      =      -0.2073511311559350 [Eh]
	 SCS Opposite-Spin Energy  =      -2.3472960901221227 [Eh]
	 SCS Correlation Energy    =      -2.5546472212780578 [Eh]
	 SCS Total Energy          =    -605.6532122322057603 [Eh]
	-----------------------------------------------------------

  Dipole Moment: [D]
     X:     3.1023      Y:     0.3615      Z:     0.3128     Total:     3.1389

*** Psi4 exiting successfully. Buy a developer a beer!
