                               Psi4 1.3.2 release

  ==> Input File <==

--------------------------------------------------------------------------
#psi4
#
memory 32 gb

molecule  {
0 1
  O       -2.2266400     1.8867650    -0.0032170
  O       -3.7615920     0.4694410    -0.8736430
  N       -2.7859400    -1.6499310     0.5252010
  N        1.9794570     0.3457110    -0.2591130
  N        3.8978530     1.3104060     0.6447910
  N        4.0160410    -0.8946960    -0.1223760
  C       -0.6937690    -0.3717720     0.7299070
  C       -0.1993830    -0.6671070    -0.6806480
  C       -2.2227870    -0.3377670     0.8339710
  C        1.3098450    -0.8661090    -0.7166530
  C       -2.8261080     0.6730930    -0.1173080
  C        3.1149899     0.3343790     0.0088903
  H       -0.2748670     0.5765650     1.0765220
  H       -0.3365530    -1.1529370     1.4152070
  H       -0.7054620    -1.5600450    -1.0625750
  H       -0.4516800     0.1714660    -1.3406670
  H       -2.4873830     0.0287790     1.8430020
  H        1.5813230    -1.7317920    -0.0895090
  H        1.6134840    -1.1144100    -1.7484380
  H       -3.7640510    -1.5477110     0.2601170
  H       -2.7467370    -2.2384130     1.3547150
  H       -2.6964570     2.4686380    -0.6361950
  H        3.2621090     2.1005400     0.7117460
  H        4.7565350     1.5848730     0.1747350
  H        5.0073770    -0.7866830     0.0488590
  H        3.7976690    -1.4866510    -0.9131750
units angstrom
no_reorient  #important for SAPT in psi4, default
symmetry c1  #important for SAPT in psi4, default
}

set PROPERTIES_ORIGIN ["COM"]
properties('MP2/aug-cc-pvtz', properties = ['dipole'])
--------------------------------------------------------------------------

    Molecular point group: c1
  Charge       = 0
  Multiplicity = 1
  Basis Set: AUG-CC-PVTZ
    Blend: AUG-CC-PVTZ
  Basis Set: (AUG-CC-PVTZ AUX)
    Blend: AUG-CC-PVTZ-JKFIT

    Orbital Energies [Eh]
    ---------------------

    Doubly Occupied:

       1A    -20.613918     2A    -20.550989     3A    -15.569069
       4A    -15.555618     5A    -15.543431     6A    -15.521281
       7A    -11.386374     8A    -11.331239     9A    -11.275570
      10A    -11.253239    11A    -11.218974    12A    -11.209416
      13A     -1.459529    14A     -1.356177    15A     -1.304808
      16A     -1.193866    17A     -1.183808    18A     -1.128516
      19A     -1.060448    20A     -0.987540    21A     -0.904141
      22A     -0.826565    23A     -0.776849    24A     -0.757090
      25A     -0.708738    26A     -0.704579    27A     -0.695667
      28A     -0.692607    29A     -0.657634    30A     -0.647698
      31A     -0.631310    32A     -0.621563    33A     -0.608008
      34A     -0.592237    35A     -0.571216    36A     -0.554255
      37A     -0.546398    38A     -0.524225    39A     -0.496013
      40A     -0.482036    41A     -0.477150    42A     -0.473948
      43A     -0.444864    44A     -0.427325    45A     -0.398418
      46A     -0.396042    47A     -0.376288

  @DF-RHF Final Energy:  -603.10010280442941

   => Energetics <=

    Nuclear Repulsion Energy =            726.8362586977114006
    One-Electron Energy =               -2266.4793729008006267
    Two-Electron Energy =                 936.5430113986598144
    Total Energy =                       -603.1001028044294117
  Basis Set: (AUG-CC-PVTZ AUX)
    Blend: AUG-CC-PVTZ-RI
    Molecular point group: c1

    Geometry (in Angstrom), charge = 0, multiplicity = 1:

       Center              X                  Y                   Z               Mass
    ------------   -----------------  -----------------  -----------------  -----------------
         O           -2.181521830706     1.854041269947     0.003577582211    15.994914619570
         O           -3.716473830706     0.436717269947    -0.866848417789    15.994914619570
         N           -2.740821830706    -1.682654730053     0.531995582211    14.003074004430
         N            2.024575169294     0.312987269947    -0.252318417789    14.003074004430
         N            3.942971169294     1.277682269947     0.651585582211    14.003074004430
         N            4.061159169294    -0.927419730053    -0.115581417789    14.003074004430
         C           -0.648650830706    -0.404495730053     0.736701582211    12.000000000000
         C           -0.154264830706    -0.699830730053    -0.673853417789    12.000000000000
         C           -2.177668830706    -0.370490730053     0.840765582211    12.000000000000
         C            1.354963169294    -0.898832730053    -0.709858417789    12.000000000000
         C           -2.780989830706     0.640369269947    -0.110513417789    12.000000000000
         C            3.160108069294     0.301655269947     0.015684882211    12.000000000000
         H           -0.229748830706     0.543841269947     1.083316582211     1.007825032230
         H           -0.291434830706    -1.185660730053     1.422001582211     1.007825032230
         H           -0.660343830706    -1.592768730053    -1.055780417789     1.007825032230
         H           -0.406561830706     0.138742269947    -1.333872417789     1.007825032230
         H           -2.442264830706    -0.003944730053     1.849796582211     1.007825032230
         H            1.626441169294    -1.764515730053    -0.082714417789     1.007825032230
         H            1.658602169294    -1.147133730053    -1.741643417789     1.007825032230
         H           -3.718932830706    -1.580434730053     0.266911582211     1.007825032230
         H           -2.701618830706    -2.271136730053     1.361509582211     1.007825032230
         H           -2.651338830706     2.435914269947    -0.629400417789     1.007825032230
         H            3.307227169294     2.067816269947     0.718540582211     1.007825032230
         H            4.801653169294     1.552149269947     0.181529582211     1.007825032230
         H            5.052495169294    -0.819406730053     0.055653582211     1.007825032230
         H            3.842787169294    -1.519374730053    -0.906380417789     1.007825032230

  Basis Set: AUG-CC-PVTZ
    Blend: AUG-CC-PVTZ
  Basis Set: (AUG-CC-PVTZ AUX)
    Blend: AUG-CC-PVTZ-JKFIT
	 Reference Energy          =    -603.1001028044294117 [Eh]
	 Singles Energy            =      -0.0000000000000000 [Eh]
	 Same-Spin Energy          =      -0.6188332439217399 [Eh]
	 Opposite-Spin Energy      =      -1.9521009052591409 [Eh]
	 Correlation Energy        =      -2.5709341491808808 [Eh]
	 Total Energy              =    -605.6710369536102689 [Eh]

	 ================> DF-SCS-MP2 Energies <==================
	-----------------------------------------------------------
	 SCS Same-Spin Scale       =       0.3333333333333333 [-]
	 SCS Opposite-Spin Scale   =       1.2000000000000000 [-]
	 SCS Same-Spin Energy      =      -0.2062777479739133 [Eh]
	 SCS Opposite-Spin Energy  =      -2.3425210863109691 [Eh]
	 SCS Correlation Energy    =      -2.5487988342848826 [Eh]
	 SCS Total Energy          =    -605.6489016387142783 [Eh]
	-----------------------------------------------------------

  Dipole Moment: [D]
     X:     2.2322      Y:     0.7801      Z:     0.2580     Total:     2.3787

*** Psi4 exiting successfully. Buy a developer a beer!
