                               Psi4 1.4a3.dev225

  ==> Input File <==

--------------------------------------------------------------------------
#psi4
#
memory 32 gb

molecule  {
0 1
  O       -2.2193770     1.8892330     0.0268230
  O       -3.7558620     0.4909310    -0.8718590
  N       -2.7972650    -1.6524490     0.5031070
  N        1.9782870     0.3250840    -0.2428510
  N        3.8986140     1.3191370     0.6232000
  N        4.0945810    -0.8301440    -0.2248910
  C       -0.6989470    -0.3870780     0.7275970
  C       -0.2062790    -0.6613260    -0.6876040
  C       -2.2281040    -0.3472380     0.8304820
  C        1.2785043    -0.9111963    -0.7469737
  C       -2.8235710     0.6804660    -0.1079880
  C        3.2335740     0.2410780     0.0212990
  H       -0.2749720     0.5529910     1.0902940
  H       -0.3479120    -1.1823300     1.4000480
  H       -0.7189380    -1.5432990    -1.0858630
  H       -0.4507980     0.1909300    -1.3325750
  H       -2.4926300     0.0060750     1.8439900
  H        1.5489680    -1.7592400    -0.1213590
  H        1.6102530    -1.0961940    -1.7629760
  H       -3.7667330    -1.5380950     0.2123320
  H       -2.7872020    -2.2442710     1.3309830
  H       -2.6822190     2.4830960    -0.6002000
  H        3.2771960     2.1225880     0.6500220
  H        4.7687340     1.5514780     0.1515250
  H        4.8021180    -0.9483820     0.4927870
  H        3.6261930    -1.7023420    -0.4398710
units angstrom
no_reorient  #important for SAPT in psi4, default
symmetry c1  #important for SAPT in psi4, default
}

set PROPERTIES_ORIGIN ["COM"]
properties('MP2/aug-cc-pvtz', properties = ['dipole'])
--------------------------------------------------------------------------

    Molecular point group: c1
  Charge       = 0
  Multiplicity = 1
  Basis Set: AUG-CC-PVTZ
    Blend: AUG-CC-PVTZ
  Basis Set: (AUG-CC-PVTZ AUX)
    Blend: AUG-CC-PVTZ-JKFIT

    Orbital Energies [Eh]
    ---------------------

    Doubly Occupied:

       1A    -20.611914     2A    -20.549262     3A    -15.580932
       4A    -15.567913     5A    -15.541684     6A    -15.517833
       7A    -11.384602     8A    -11.338714     9A    -11.273536
      10A    -11.242969    11A    -11.216048    12A    -11.205001
      13A     -1.457672    14A     -1.354491    15A     -1.291918
      16A     -1.191762    17A     -1.164339    18A     -1.150783
      19A     -1.051257    20A     -0.979485    21A     -0.896182
      22A     -0.822038    23A     -0.784190    24A     -0.766797
      25A     -0.712050    26A     -0.704233    27A     -0.701500
      28A     -0.692303    29A     -0.658329    30A     -0.636972
      31A     -0.619992    32A     -0.617773    33A     -0.607491
      34A     -0.598528    35A     -0.574272    36A     -0.557490
      37A     -0.540757    38A     -0.527700    39A     -0.496268
      40A     -0.480361    41A     -0.474757    42A     -0.469562
      43A     -0.442819    44A     -0.434820    45A     -0.398519
      46A     -0.392716    47A     -0.351321

  @DF-RHF Final Energy:  -603.12596340942559

   => Energetics <=

    Nuclear Repulsion Energy =            724.8339069488639552
    One-Electron Energy =               -2262.6560281969000243
    Two-Electron Energy =                 934.6961578386105884
    Total Energy =                       -603.1259634094255944
  Basis Set: (AUG-CC-PVTZ AUX)
    Blend: AUG-CC-PVTZ-RI
    Molecular point group: c1

    Geometry (in Angstrom), charge = 0, multiplicity = 1:

       Center              X                  Y                   Z               Mass
    ------------   -----------------  -----------------  -----------------  -----------------
         O           -2.183248846128     1.863041500881     0.038362413279    15.994914619570
         O           -3.719733846128     0.464739500881    -0.860319586721    15.994914619570
         N           -2.761136846128    -1.678640499119     0.514646413279    14.003074004430
         N            2.014415153872     0.298892500881    -0.231311586721    14.003074004430
         N            3.934742153872     1.292945500881     0.634739413279    14.003074004430
         N            4.130709153872    -0.856335499119    -0.213351586721    14.003074004430
         C           -0.662818846128    -0.413269499119     0.739136413279    12.000000000000
         C           -0.170150846128    -0.687517499119    -0.676064586721    12.000000000000
         C           -2.191975846128    -0.373429499119     0.842021413279    12.000000000000
         C            1.314632453872    -0.937387799119    -0.735434286721    12.000000000000
         C           -2.787442846128     0.654274500881    -0.096448586721    12.000000000000
         C            3.269702153872     0.214886500881     0.032838413279    12.000000000000
         H           -0.238843846128     0.526799500881     1.101833413279     1.007825032230
         H           -0.311783846128    -1.208521499119     1.411587413279     1.007825032230
         H           -0.682809846128    -1.569490499119    -1.074323586721     1.007825032230
         H           -0.414669846128     0.164738500881    -1.321035586721     1.007825032230
         H           -2.456501846128    -0.020116499119     1.855529413279     1.007825032230
         H            1.585096153872    -1.785431499119    -0.109819586721     1.007825032230
         H            1.646381153872    -1.122385499119    -1.751436586721     1.007825032230
         H           -3.730604846128    -1.564286499119     0.223871413279     1.007825032230
         H           -2.751073846128    -2.270462499119     1.342522413279     1.007825032230
         H           -2.646090846128     2.456904500881    -0.588660586721     1.007825032230
         H            3.313324153872     2.096396500881     0.661561413279     1.007825032230
         H            4.804862153872     1.525286500881     0.163064413279     1.007825032230
         H            4.838246153872    -0.974573499119     0.504326413279     1.007825032230
         H            3.662321153872    -1.728533499119    -0.428331586721     1.007825032230

  Basis Set: AUG-CC-PVTZ
    Blend: AUG-CC-PVTZ
  Basis Set: (AUG-CC-PVTZ AUX)
    Blend: AUG-CC-PVTZ-JKFIT
	 Reference Energy          =    -603.1259634094255944 [Eh]
	 Singles Energy            =      -0.0000000000000000 [Eh]
	 Same-Spin Energy          =      -0.6199832850561796 [Eh]
	 Opposite-Spin Energy      =      -1.9541317797287376 [Eh]
	 Correlation Energy        =      -2.5741150647849174 [Eh]
	 Total Energy              =    -605.7000784742104997 [Eh]

	 ================> DF-SCS-MP2 Energies <==================
	-----------------------------------------------------------
	 SCS Same-Spin Scale       =       0.3333333333333333 [-]
	 SCS Opposite-Spin Scale   =       1.2000000000000000 [-]
	 SCS Same-Spin Energy      =      -0.2066610950187265 [Eh]
	 SCS Opposite-Spin Energy  =      -2.3449581356744851 [Eh]
	 SCS Correlation Energy    =      -2.5516192306932117 [Eh]
	 SCS Total Energy          =    -605.6775826401187715 [Eh]
	-----------------------------------------------------------

  Dipole Moment: [D]
     X:     2.4023      Y:    -0.3747      Z:     1.6536     Total:     2.9404

*** Psi4 exiting successfully. Buy a developer a beer!
