                               Psi4 1.3.2 release

  ==> Input File <==

--------------------------------------------------------------------------
#psi4
#
memory 32 gb

molecule  {
0 1
  O       -2.2266400     1.8867650    -0.0032170
  O       -3.7615920     0.4694410    -0.8736430
  N       -2.7859400    -1.6499310     0.5252010
  N        1.8404353     0.4059086    -0.2405481
  N        3.8978530     1.3104060     0.6447910
  N        4.0160410    -0.8946960    -0.1223760
  C       -0.6937690    -0.3717720     0.7299070
  C       -0.1993830    -0.6671070    -0.6806480
  C       -2.2227870    -0.3377670     0.8339710
  C        1.3098450    -0.8661090    -0.7166530
  C       -2.8261080     0.6730930    -0.1173080
  C        3.2319800     0.2459460     0.0175660
  H       -0.2748670     0.5765650     1.0765220
  H       -0.3365530    -1.1529370     1.4152070
  H       -0.7054620    -1.5600450    -1.0625750
  H       -0.4516800     0.1714660    -1.3406670
  H       -2.4873830     0.0287790     1.8430020
  H        1.5813230    -1.7317920    -0.0895090
  H        1.6134840    -1.1144100    -1.7484380
  H       -3.7640510    -1.5477110     0.2601170
  H       -2.7467370    -2.2384130     1.3547150
  H       -2.6964570     2.4686380    -0.6361950
  H        3.2621090     2.1005400     0.7117460
  H        4.7565350     1.5848730     0.1747350
  H        5.0073770    -0.7866830     0.0488590
  H        3.7976690    -1.4866510    -0.9131750
units angstrom
no_reorient  #important for SAPT in psi4, default
symmetry c1  #important for SAPT in psi4, default
}

set PROPERTIES_ORIGIN ["COM"]
properties('MP2/aug-cc-pvtz', properties = ['dipole'])
--------------------------------------------------------------------------

    Molecular point group: c1
  Charge       = 0
  Multiplicity = 1
  Basis Set: AUG-CC-PVTZ
    Blend: AUG-CC-PVTZ
  Basis Set: (AUG-CC-PVTZ AUX)
    Blend: AUG-CC-PVTZ-JKFIT

    Orbital Energies [Eh]
    ---------------------

    Doubly Occupied:

       1A    -20.606296     2A    -20.543530     3A    -15.601799
       4A    -15.583389     5A    -15.535661     6A    -15.527225
       7A    -11.378742     8A    -11.367619     9A    -11.266467
      10A    -11.229583    11A    -11.206347    12A    -11.193851
      13A     -1.451934    14A     -1.348733    15A     -1.290641
      16A     -1.185418    17A     -1.178550    18A     -1.140357
      19A     -1.034131    20A     -0.961297    21A     -0.882001
      22A     -0.821958    23A     -0.787381    24A     -0.759611
      25A     -0.731580    26A     -0.704571    27A     -0.698004
      28A     -0.686979    29A     -0.652690    30A     -0.639880
      31A     -0.626031    32A     -0.614054    33A     -0.601082
      34A     -0.586607    35A     -0.564926    36A     -0.547915
      37A     -0.532624    38A     -0.515551    39A     -0.485368
      40A     -0.473383    41A     -0.464508    42A     -0.458608
      43A     -0.438964    44A     -0.435702    45A     -0.408848
      46A     -0.388327    47A     -0.328329

  @DF-RHF Final Energy:  -603.09280044711056

   => Energetics <=

    Nuclear Repulsion Energy =            724.4849260787393632
    One-Electron Energy =               -2262.2213521622661574
    Two-Electron Energy =                 934.6436256364162318
    Total Energy =                       -603.0928004471105623
  Basis Set: (AUG-CC-PVTZ AUX)
    Blend: AUG-CC-PVTZ-RI
    Molecular point group: c1

    Geometry (in Angstrom), charge = 0, multiplicity = 1:

       Center              X                  Y                   Z               Mass
    ------------   -----------------  -----------------  -----------------  -----------------
         O           -2.178404004454     1.855294744485     0.001486544565    15.994914619570
         O           -3.713356004454     0.437970744485    -0.868939455435    15.994914619570
         N           -2.737704004454    -1.681401255515     0.529904544565    14.003074004430
         N            1.888671295546     0.374438344485    -0.235844555435    14.003074004430
         N            3.946088995546     1.278935744485     0.649494544565    14.003074004430
         N            4.064276995546    -0.926166255515    -0.117672455435    14.003074004430
         C           -0.645533004454    -0.403242255515     0.734610544565    12.000000000000
         C           -0.151147004454    -0.698577255515    -0.675944455435    12.000000000000
         C           -2.174551004454    -0.369237255515     0.838674544565    12.000000000000
         C            1.358080995546    -0.897579255515    -0.711949455435    12.000000000000
         C           -2.777872004454     0.641622744485    -0.112604455435    12.000000000000
         C            3.280215995546     0.214475744485     0.022269544565    12.000000000000
         H           -0.226631004454     0.545094744485     1.081225544565     1.007825032230
         H           -0.288317004454    -1.184407255515     1.419910544565     1.007825032230
         H           -0.657226004454    -1.591515255515    -1.057871455435     1.007825032230
         H           -0.403444004454     0.139995744485    -1.335963455435     1.007825032230
         H           -2.439147004454    -0.002691255515     1.847705544565     1.007825032230
         H            1.629558995546    -1.763262255515    -0.084805455435     1.007825032230
         H            1.661719995546    -1.145880255515    -1.743734455435     1.007825032230
         H           -3.715815004454    -1.579181255515     0.264820544565     1.007825032230
         H           -2.698501004454    -2.269883255515     1.359418544565     1.007825032230
         H           -2.648221004454     2.437167744485    -0.631491455435     1.007825032230
         H            3.310344995546     2.069069744485     0.716449544565     1.007825032230
         H            4.804770995546     1.553402744485     0.179438544565     1.007825032230
         H            5.055612995546    -0.818153255515     0.053562544565     1.007825032230
         H            3.845904995546    -1.518121255515    -0.908471455435     1.007825032230

  Basis Set: AUG-CC-PVTZ
    Blend: AUG-CC-PVTZ
  Basis Set: (AUG-CC-PVTZ AUX)
    Blend: AUG-CC-PVTZ-JKFIT
	 Reference Energy          =    -603.0928004471105623 [Eh]
	 Singles Energy            =      -0.0000000000000000 [Eh]
	 Same-Spin Energy          =      -0.6236712886255726 [Eh]
	 Opposite-Spin Energy      =      -1.9608515845595949 [Eh]
	 Correlation Energy        =      -2.5845228731851675 [Eh]
	 Total Energy              =    -605.6773233202957272 [Eh]

	 ================> DF-SCS-MP2 Energies <==================
	-----------------------------------------------------------
	 SCS Same-Spin Scale       =       0.3333333333333333 [-]
	 SCS Opposite-Spin Scale   =       1.2000000000000000 [-]
	 SCS Same-Spin Energy      =      -0.2078904295418575 [Eh]
	 SCS Opposite-Spin Energy  =      -2.3530219014715139 [Eh]
	 SCS Correlation Energy    =      -2.5609123310133715 [Eh]
	 SCS Total Energy          =    -605.6537127781239178 [Eh]
	-----------------------------------------------------------

  Dipole Moment: [D]
     X:     4.1428      Y:     0.2326      Z:     0.4284     Total:     4.1714

*** Psi4 exiting successfully. Buy a developer a beer!
