                               Psi4 1.3.2 release

  ==> Input File <==

--------------------------------------------------------------------------
#psi4
#
memory 32 gb

molecule  {
0 1
  O       -2.2266400     1.8867650    -0.0032170
  O       -3.7615920     0.4694410    -0.8736430
  N       -2.7859400    -1.6499310     0.5252010
  N        1.9794570     0.3457110    -0.2591130
  N        3.8978530     1.3104060     0.6447910
  N        4.0160410    -0.8946960    -0.1223760
  C       -0.6937690    -0.3717720     0.7299070
  C       -0.1993830    -0.6671070    -0.6806480
  C       -2.2227870    -0.3377670     0.8339710
  C        1.3539528    -0.8911063    -0.7121675
  C       -2.8261080     0.6730930    -0.1173080
  C        3.2319800     0.2459460     0.0175660
  H       -0.2748670     0.5765650     1.0765220
  H       -0.3365530    -1.1529370     1.4152070
  H       -0.7054620    -1.5600450    -1.0625750
  H       -0.4516800     0.1714660    -1.3406670
  H       -2.4873830     0.0287790     1.8430020
  H        1.5813230    -1.7317920    -0.0895090
  H        1.6134840    -1.1144100    -1.7484380
  H       -3.7640510    -1.5477110     0.2601170
  H       -2.7467370    -2.2384130     1.3547150
  H       -2.6964570     2.4686380    -0.6361950
  H        3.2621090     2.1005400     0.7117460
  H        4.7565350     1.5848730     0.1747350
  H        5.0073770    -0.7866830     0.0488590
  H        3.7976690    -1.4866510    -0.9131750
units angstrom
no_reorient  #important for SAPT in psi4, default
symmetry c1  #important for SAPT in psi4, default
}

set PROPERTIES_ORIGIN ["COM"]
properties('MP2/aug-cc-pvtz', properties = ['dipole'])
--------------------------------------------------------------------------

    Molecular point group: c1
  Charge       = 0
  Multiplicity = 1
  Basis Set: AUG-CC-PVTZ
    Blend: AUG-CC-PVTZ
  Basis Set: (AUG-CC-PVTZ AUX)
    Blend: AUG-CC-PVTZ-JKFIT

    Orbital Energies [Eh]
    ---------------------

    Doubly Occupied:

       1A    -20.609422     2A    -20.546581     3A    -15.583901
       4A    -15.571923     5A    -15.538887     6A    -15.516165
       7A    -11.381867     8A    -11.341420     9A    -11.270232
      10A    -11.235826    11A    -11.211669    12A    -11.202442
      13A     -1.455044    14A     -1.351779    15A     -1.296328
      16A     -1.188737    17A     -1.168183    18A     -1.158124
      19A     -1.043080    20A     -0.970185    21A     -0.892926
      22A     -0.820575    23A     -0.785658    24A     -0.764836
      25A     -0.719589    26A     -0.702750    27A     -0.700386
      28A     -0.690063    29A     -0.654758    30A     -0.637815
      31A     -0.632192    32A     -0.617218    33A     -0.606029
      34A     -0.596497    35A     -0.568055    36A     -0.550180
      37A     -0.540710    38A     -0.522039    39A     -0.486938
      40A     -0.477264    41A     -0.471839    42A     -0.462237
      43A     -0.439915    44A     -0.436928    45A     -0.400643
      46A     -0.390956    47A     -0.348638

  @DF-RHF Final Energy:  -603.12376958475511

   => Energetics <=

    Nuclear Repulsion Energy =            725.3237750637267709
    One-Electron Energy =               -2263.7762334627145719
    Two-Electron Energy =                 935.3286888142326916
    Total Energy =                       -603.1237695847551095
  Basis Set: (AUG-CC-PVTZ AUX)
    Blend: AUG-CC-PVTZ-RI
    Molecular point group: c1

    Geometry (in Angstrom), charge = 0, multiplicity = 1:

       Center              X                  Y                   Z               Mass
    ------------   -----------------  -----------------  -----------------  -----------------
         O           -2.192624904593     1.861859031705     0.002670495427    15.994914619570
         O           -3.727576904593     0.444535031705    -0.867755504573    15.994914619570
         N           -2.751924904593    -1.674836968295     0.531088495427    14.003074004430
         N            2.013472095407     0.320805031705    -0.253225504573    14.003074004430
         N            3.931868095407     1.285500031705     0.650678495427    14.003074004430
         N            4.050056095407    -0.919601968295    -0.116488504573    14.003074004430
         C           -0.659753904593    -0.396677968295     0.735794495427    12.000000000000
         C           -0.165367904593    -0.692012968295    -0.674760504573    12.000000000000
         C           -2.188771904593    -0.362672968295     0.839858495427    12.000000000000
         C            1.387967895407    -0.916012268295    -0.706280004573    12.000000000000
         C           -2.792092904593     0.648187031705    -0.111420504573    12.000000000000
         C            3.265995095407     0.221040031705     0.023453495427    12.000000000000
         H           -0.240851904593     0.551659031705     1.082409495427     1.007825032230
         H           -0.302537904593    -1.177842968295     1.421094495427     1.007825032230
         H           -0.671446904593    -1.584950968295    -1.056687504573     1.007825032230
         H           -0.417664904593     0.146560031705    -1.334779504573     1.007825032230
         H           -2.453367904593     0.003873031705     1.848889495427     1.007825032230
         H            1.615338095407    -1.756697968295    -0.083621504573     1.007825032230
         H            1.647499095407    -1.139315968295    -1.742550504573     1.007825032230
         H           -3.730035904593    -1.572616968295     0.266004495427     1.007825032230
         H           -2.712721904593    -2.263318968295     1.360602495427     1.007825032230
         H           -2.662441904593     2.443732031705    -0.630307504573     1.007825032230
         H            3.296124095407     2.075634031705     0.717633495427     1.007825032230
         H            4.790550095407     1.559967031705     0.180622495427     1.007825032230
         H            5.041392095407    -0.811588968295     0.054746495427     1.007825032230
         H            3.831684095407    -1.511556968295    -0.907287504573     1.007825032230

  Basis Set: AUG-CC-PVTZ
    Blend: AUG-CC-PVTZ
  Basis Set: (AUG-CC-PVTZ AUX)
    Blend: AUG-CC-PVTZ-JKFIT
	 Reference Energy          =    -603.1237695847551095 [Eh]
	 Singles Energy            =      -0.0000000000000000 [Eh]
	 Same-Spin Energy          =      -0.6201384870749360 [Eh]
	 Opposite-Spin Energy      =      -1.9538657424488819 [Eh]
	 Correlation Energy        =      -2.5740042295238181 [Eh]
	 Total Energy              =    -605.6977738142788894 [Eh]

	 ================> DF-SCS-MP2 Energies <==================
	-----------------------------------------------------------
	 SCS Same-Spin Scale       =       0.3333333333333333 [-]
	 SCS Opposite-Spin Scale   =       1.2000000000000000 [-]
	 SCS Same-Spin Energy      =      -0.2067128290249787 [Eh]
	 SCS Opposite-Spin Energy  =      -2.3446388909386582 [Eh]
	 SCS Correlation Energy    =      -2.5513517199636366 [Eh]
	 SCS Total Energy          =    -605.6751213047188003 [Eh]
	-----------------------------------------------------------

  Dipole Moment: [D]
     X:     3.5005      Y:     0.2815      Z:     0.3566     Total:     3.5298

*** Psi4 exiting successfully. Buy a developer a beer!
