                               Psi4 1.3.2 release

  ==> Input File <==

--------------------------------------------------------------------------
#psi4
#
memory 32 gb

molecule  {
0 1
  O       -2.2266400     1.8867650    -0.0032170
  O       -3.7615920     0.4694410    -0.8736430
  N       -2.7859400    -1.6499310     0.5252010
  N        1.9794570     0.3457110    -0.2591130
  N        3.8978530     1.3104060     0.6447910
  N        4.0160410    -0.8946960    -0.1223760
  C       -0.6937690    -0.3717720     0.7299070
  C       -0.1993830    -0.6671070    -0.6806480
  C       -2.2227870    -0.3377670     0.8339710
  C        1.3098450    -0.8661090    -0.7166530
  C       -2.8261080     0.6730930    -0.1173080
  C        3.0372760     0.2614544    -0.0254436
  H       -0.2748670     0.5765650     1.0765220
  H       -0.3365530    -1.1529370     1.4152070
  H       -0.7054620    -1.5600450    -1.0625750
  H       -0.4516800     0.1714660    -1.3406670
  H       -2.4873830     0.0287790     1.8430020
  H        1.5813230    -1.7317920    -0.0895090
  H        1.6134840    -1.1144100    -1.7484380
  H       -3.7640510    -1.5477110     0.2601170
  H       -2.7467370    -2.2384130     1.3547150
  H       -2.6964570     2.4686380    -0.6361950
  H        3.2621090     2.1005400     0.7117460
  H        4.7565350     1.5848730     0.1747350
  H        5.0073770    -0.7866830     0.0488590
  H        3.7976690    -1.4866510    -0.9131750
units angstrom
no_reorient  #important for SAPT in psi4, default
symmetry c1  #important for SAPT in psi4, default
}

set PROPERTIES_ORIGIN ["COM"]
properties('MP2/aug-cc-pvtz', properties = ['dipole'])
--------------------------------------------------------------------------

    Molecular point group: c1
  Charge       = 0
  Multiplicity = 1
  Basis Set: AUG-CC-PVTZ
    Blend: AUG-CC-PVTZ
  Basis Set: (AUG-CC-PVTZ AUX)
    Blend: AUG-CC-PVTZ-JKFIT

    Orbital Energies [Eh]
    ---------------------

    Doubly Occupied:

       1A    -20.616576     2A    -20.553704     3A    -15.556608
       4A    -15.549773     5A    -15.546359     6A    -15.523299
       7A    -11.389157     8A    -11.321554     9A    -11.279018
      10A    -11.262573    11A    -11.223837    12A    -11.215159
      13A     -1.462223    14A     -1.358846    15A     -1.336418
      16A     -1.196698    17A     -1.167270    18A     -1.120795
      19A     -1.068333    20A     -0.994469    21A     -0.910282
      22A     -0.831070    23A     -0.778855    24A     -0.745977
      25A     -0.709770    26A     -0.704580    27A     -0.695766
      28A     -0.686221    29A     -0.660888    30A     -0.651188
      31A     -0.642997    32A     -0.624406    33A     -0.613365
      34A     -0.589372    35A     -0.571972    36A     -0.560897
      37A     -0.544291    38A     -0.526593    39A     -0.496547
      40A     -0.486093    41A     -0.479850    42A     -0.475882
      43A     -0.447944    44A     -0.433930    45A     -0.400678
      46A     -0.397959    47A     -0.386653

  @DF-RHF Final Energy:  -603.05084089608056

   => Energetics <=

    Nuclear Repulsion Energy =            728.1741738151582695
    One-Electron Energy =               -2268.8566398800803654
    Two-Electron Energy =                 937.6316251688416514
    Total Energy =                       -603.0508408960805582
  Basis Set: (AUG-CC-PVTZ AUX)
    Blend: AUG-CC-PVTZ-RI
    Molecular point group: c1

    Geometry (in Angstrom), charge = 0, multiplicity = 1:

       Center              X                  Y                   Z               Mass
    ------------   -----------------  -----------------  -----------------  -----------------
         O           -2.176165689044     1.859067326909     0.005943918635    15.994914619570
         O           -3.711117689044     0.441743326909    -0.864482081365    15.994914619570
         N           -2.735465689044    -1.677628673091     0.534361918635    14.003074004430
         N            2.029931310956     0.318013326909    -0.249952081365    14.003074004430
         N            3.948327310956     1.282708326909     0.653951918635    14.003074004430
         N            4.066515310956    -0.922393673091    -0.113215081365    14.003074004430
         C           -0.643294689044    -0.399469673091     0.739067918635    12.000000000000
         C           -0.148908689044    -0.694804673091    -0.671487081365    12.000000000000
         C           -2.172312689044    -0.365464673091     0.843131918635    12.000000000000
         C            1.360319310956    -0.893806673091    -0.707492081365    12.000000000000
         C           -2.775633689044     0.645395326909    -0.108147081365    12.000000000000
         C            3.087750310956     0.233756726909    -0.016282681365    12.000000000000
         H           -0.224392689044     0.548867326909     1.085682918635     1.007825032230
         H           -0.286078689044    -1.180634673091     1.424367918635     1.007825032230
         H           -0.654987689044    -1.587742673091    -1.053414081365     1.007825032230
         H           -0.401205689044     0.143768326909    -1.331506081365     1.007825032230
         H           -2.436908689044     0.001081326909     1.852162918635     1.007825032230
         H            1.631797310956    -1.759489673091    -0.080348081365     1.007825032230
         H            1.663958310956    -1.142107673091    -1.739277081365     1.007825032230
         H           -3.713576689044    -1.575408673091     0.269277918635     1.007825032230
         H           -2.696262689044    -2.266110673091     1.363875918635     1.007825032230
         H           -2.645982689044     2.440940326909    -0.627034081365     1.007825032230
         H            3.312583310956     2.072842326909     0.720906918635     1.007825032230
         H            4.807009310956     1.557175326909     0.183895918635     1.007825032230
         H            5.057851310956    -0.814380673091     0.058019918635     1.007825032230
         H            3.848143310956    -1.514348673091    -0.904014081365     1.007825032230

  Basis Set: AUG-CC-PVTZ
    Blend: AUG-CC-PVTZ
  Basis Set: (AUG-CC-PVTZ AUX)
    Blend: AUG-CC-PVTZ-JKFIT
	 Reference Energy          =    -603.0508408960805582 [Eh]
	 Singles Energy            =      -0.0000000000000000 [Eh]
	 Same-Spin Energy          =      -0.6181741692044822 [Eh]
	 Opposite-Spin Energy      =      -1.9512878955850732 [Eh]
	 Correlation Energy        =      -2.5694620647895556 [Eh]
	 Total Energy              =    -605.6203029608701627 [Eh]

	 ================> DF-SCS-MP2 Energies <==================
	-----------------------------------------------------------
	 SCS Same-Spin Scale       =       0.3333333333333333 [-]
	 SCS Opposite-Spin Scale   =       1.2000000000000000 [-]
	 SCS Same-Spin Energy      =      -0.2060580564014940 [Eh]
	 SCS Opposite-Spin Energy  =      -2.3415454747020878 [Eh]
	 SCS Correlation Energy    =      -2.5476035311035821 [Eh]
	 SCS Total Energy          =    -605.5984444271841767 [Eh]
	-----------------------------------------------------------

  Dipole Moment: [D]
     X:     1.4307      Y:     0.2368      Z:    -0.0788     Total:     1.4523

*** Psi4 exiting successfully. Buy a developer a beer!
