                               Psi4 1.4a3.dev225

  ==> Input File <==

--------------------------------------------------------------------------
#psi4
#
memory 32 gb

molecule  {
0 1
  O       -2.2193770     1.8892330     0.0268230
  O       -3.7558620     0.4909310    -0.8718590
  N       -2.7972650    -1.6524490     0.5031070
  N        1.9782870     0.3250840    -0.2428510
  N        3.8986140     1.3191370     0.6232000
  N        4.0945810    -0.8301440    -0.2248910
  C       -0.6989470    -0.3870780     0.7275970
  C       -0.2062790    -0.6613260    -0.6876040
  C       -2.2281040    -0.3472380     0.8304820
  C        1.3017160    -0.8701890    -0.7302520
  C       -2.8235710     0.6804660    -0.1079880
  C        3.2098635     0.2026423    -0.0001604
  H       -0.2749720     0.5529910     1.0902940
  H       -0.3479120    -1.1823300     1.4000480
  H       -0.7189380    -1.5432990    -1.0858630
  H       -0.4507980     0.1909300    -1.3325750
  H       -2.4926300     0.0060750     1.8439900
  H        1.5489680    -1.7592400    -0.1213590
  H        1.6102530    -1.0961940    -1.7629760
  H       -3.7667330    -1.5380950     0.2123320
  H       -2.7872020    -2.2442710     1.3309830
  H       -2.6822190     2.4830960    -0.6002000
  H        3.2771960     2.1225880     0.6500220
  H        4.7687340     1.5514780     0.1515250
  H        4.8021180    -0.9483820     0.4927870
  H        3.6261930    -1.7023420    -0.4398710
units angstrom
no_reorient  #important for SAPT in psi4, default
symmetry c1  #important for SAPT in psi4, default
}

set PROPERTIES_ORIGIN ["COM"]
properties('MP2/aug-cc-pvtz', properties = ['dipole'])
--------------------------------------------------------------------------

    Molecular point group: c1
  Charge       = 0
  Multiplicity = 1
  Basis Set: AUG-CC-PVTZ
    Blend: AUG-CC-PVTZ
  Basis Set: (AUG-CC-PVTZ AUX)
    Blend: AUG-CC-PVTZ-JKFIT

    Orbital Energies [Eh]
    ---------------------

    Doubly Occupied:

       1A    -20.612342     2A    -20.549670     3A    -15.584910
       4A    -15.561958     5A    -15.542216     6A    -15.521030
       7A    -11.385022     8A    -11.339251     9A    -11.273997
      10A    -11.245586    11A    -11.216672    12A    -11.206201
      13A     -1.458092    14A     -1.354907    15A     -1.296436
      16A     -1.192384    17A     -1.172913    18A     -1.151937
      19A     -1.052325    20A     -0.979240    21A     -0.896976
      22A     -0.823259    23A     -0.783565    24A     -0.767238
      25A     -0.719873    26A     -0.704937    27A     -0.700450
      28A     -0.688764    29A     -0.659146    30A     -0.637602
      31A     -0.622568    32A     -0.619656    33A     -0.603346
      34A     -0.596318    35A     -0.573815    36A     -0.558185
      37A     -0.543297    38A     -0.526384    39A     -0.494744
      40A     -0.480091    41A     -0.474639    42A     -0.470996
      43A     -0.443228    44A     -0.432725    45A     -0.405788
      46A     -0.394581    47A     -0.358308

  @DF-RHF Final Energy:  -603.12569826640970

   => Energetics <=

    Nuclear Repulsion Energy =            725.6976379644881945
    One-Electron Energy =               -2264.2915360832689657
    Two-Electron Energy =                 935.4681998523710718
    Total Energy =                       -603.1256982664096995
  Basis Set: (AUG-CC-PVTZ AUX)
    Blend: AUG-CC-PVTZ-RI
    Molecular point group: c1

    Geometry (in Angstrom), charge = 0, multiplicity = 1:

       Center              X                  Y                   Z               Mass
    ------------   -----------------  -----------------  -----------------  -----------------
         O           -2.183214468193     1.862864262911     0.038688941640    15.994914619570
         O           -3.719699468193     0.464562262911    -0.859993058360    15.994914619570
         N           -2.761102468193    -1.678817737089     0.514972941640    14.003074004430
         N            2.014449531807     0.298715262911    -0.230985058360    14.003074004430
         N            3.934776531807     1.292768262911     0.635065941640    14.003074004430
         N            4.130743531807    -0.856512737089    -0.213025058360    14.003074004430
         C           -0.662784468193    -0.413446737089     0.739462941640    12.000000000000
         C           -0.170116468193    -0.687694737089    -0.675738058360    12.000000000000
         C           -2.191941468193    -0.373606737089     0.842347941640    12.000000000000
         C            1.337878531807    -0.896557737089    -0.718386058360    12.000000000000
         C           -2.787408468193     0.654097262911    -0.096122058360    12.000000000000
         C            3.246026031807     0.176273562911     0.011705541640    12.000000000000
         H           -0.238809468193     0.526622262911     1.102159941640     1.007825032230
         H           -0.311749468193    -1.208698737089     1.411913941640     1.007825032230
         H           -0.682775468193    -1.569667737089    -1.073997058360     1.007825032230
         H           -0.414635468193     0.164561262911    -1.320709058360     1.007825032230
         H           -2.456467468193    -0.020293737089     1.855855941640     1.007825032230
         H            1.585130531807    -1.785608737089    -0.109493058360     1.007825032230
         H            1.646415531807    -1.122562737089    -1.751110058360     1.007825032230
         H           -3.730570468193    -1.564463737089     0.224197941640     1.007825032230
         H           -2.751039468193    -2.270639737089     1.342848941640     1.007825032230
         H           -2.646056468193     2.456727262911    -0.588334058360     1.007825032230
         H            3.313358531807     2.096219262911     0.661887941640     1.007825032230
         H            4.804896531807     1.525109262911     0.163390941640     1.007825032230
         H            4.838280531807    -0.974750737089     0.504652941640     1.007825032230
         H            3.662355531807    -1.728710737089    -0.428005058360     1.007825032230

  Basis Set: AUG-CC-PVTZ
    Blend: AUG-CC-PVTZ
  Basis Set: (AUG-CC-PVTZ AUX)
    Blend: AUG-CC-PVTZ-JKFIT
	 Reference Energy          =    -603.1256982664096995 [Eh]
	 Singles Energy            =      -0.0000000000000000 [Eh]
	 Same-Spin Energy          =      -0.6198314658253350 [Eh]
	 Opposite-Spin Energy      =      -1.9536233800146243 [Eh]
	 Correlation Energy        =      -2.5734548458399593 [Eh]
	 Total Energy              =    -605.6991531122496326 [Eh]

	 ================> DF-SCS-MP2 Energies <==================
	-----------------------------------------------------------
	 SCS Same-Spin Scale       =       0.3333333333333333 [-]
	 SCS Opposite-Spin Scale   =       1.2000000000000000 [-]
	 SCS Same-Spin Energy      =      -0.2066104886084450 [Eh]
	 SCS Opposite-Spin Energy  =      -2.3443480560175489 [Eh]
	 SCS Correlation Energy    =      -2.5509585446259937 [Eh]
	 SCS Total Energy          =    -605.6766568110357412 [Eh]
	-----------------------------------------------------------

  Dipole Moment: [D]
     X:     2.3008      Y:    -0.5672      Z:     1.5479     Total:     2.8304

*** Psi4 exiting successfully. Buy a developer a beer!
