                               Psi4 1.3.2 release

  ==> Input File <==

--------------------------------------------------------------------------
#psi4
#
memory 32 gb

molecule  {
0 1
  O       -2.2266400     1.8867650    -0.0032170
  O       -3.7615920     0.4694410    -0.8736430
  N       -2.7859400    -1.6499310     0.5252010
  N        1.9881054     0.2214474    -0.3102968
  N        3.8978530     1.3104060     0.6447910
  N        4.0160410    -0.8946960    -0.1223760
  C       -0.6937690    -0.3717720     0.7299070
  C       -0.1993830    -0.6671070    -0.6806480
  C       -2.2227870    -0.3377670     0.8339710
  C        1.3098450    -0.8661090    -0.7166530
  C       -2.8261080     0.6730930    -0.1173080
  C        3.2319800     0.2459460     0.0175660
  H       -0.2748670     0.5765650     1.0765220
  H       -0.3365530    -1.1529370     1.4152070
  H       -0.7054620    -1.5600450    -1.0625750
  H       -0.4516800     0.1714660    -1.3406670
  H       -2.4873830     0.0287790     1.8430020
  H        1.5813230    -1.7317920    -0.0895090
  H        1.6134840    -1.1144100    -1.7484380
  H       -3.7640510    -1.5477110     0.2601170
  H       -2.7467370    -2.2384130     1.3547150
  H       -2.6964570     2.4686380    -0.6361950
  H        3.2621090     2.1005400     0.7117460
  H        4.7565350     1.5848730     0.1747350
  H        5.0073770    -0.7866830     0.0488590
  H        3.7976690    -1.4866510    -0.9131750
units angstrom
no_reorient  #important for SAPT in psi4, default
symmetry c1  #important for SAPT in psi4, default
}

set PROPERTIES_ORIGIN ["COM"]
properties('MP2/aug-cc-pvtz', properties = ['dipole'])
--------------------------------------------------------------------------

    Molecular point group: c1
  Charge       = 0
  Multiplicity = 1
  Basis Set: AUG-CC-PVTZ
    Blend: AUG-CC-PVTZ
  Basis Set: (AUG-CC-PVTZ AUX)
    Blend: AUG-CC-PVTZ-JKFIT

    Orbital Energies [Eh]
    ---------------------

    Doubly Occupied:

       1A    -20.609978     2A    -20.546949     3A    -15.579833
       4A    -15.578143     5A    -15.539117     6A    -15.505510
       7A    -11.382266     8A    -11.345164     9A    -11.270698
      10A    -11.230955    11A    -11.212265    12A    -11.199244
      13A     -1.455532    14A     -1.352205    15A     -1.300034
      16A     -1.190013    17A     -1.182805    18A     -1.163925
      19A     -1.045813    20A     -0.974839    21A     -0.899262
      22A     -0.829548    23A     -0.781500    24A     -0.764586
      25A     -0.722318    26A     -0.704357    27A     -0.701521
      28A     -0.690856    29A     -0.655661    30A     -0.644663
      31A     -0.636616    32A     -0.617982    33A     -0.614885
      34A     -0.599218    35A     -0.570544    36A     -0.551192
      37A     -0.548268    38A     -0.523400    39A     -0.497041
      40A     -0.477363    41A     -0.471683    42A     -0.469648
      43A     -0.440383    44A     -0.439054    45A     -0.392913
      46A     -0.375119    47A     -0.338676

  @DF-RHF Final Energy:  -603.11482152152496

   => Energetics <=

    Nuclear Repulsion Energy =            727.3430188126302482
    One-Electron Energy =               -2267.6685943969646360
    Two-Electron Energy =                 937.2107540628093147
    Total Energy =                       -603.1148215215249593
  Basis Set: (AUG-CC-PVTZ AUX)
    Blend: AUG-CC-PVTZ-RI
    Molecular point group: c1

    Geometry (in Angstrom), charge = 0, multiplicity = 1:

       Center              X                  Y                   Z               Mass
    ------------   -----------------  -----------------  -----------------  -----------------
         O           -2.190280493093     1.870130187450     0.007096140842    15.994914619570
         O           -3.725232493093     0.452806187450    -0.863329859158    15.994914619570
         N           -2.749580493093    -1.666565812550     0.535514140842    14.003074004430
         N            2.024464906907     0.204812587450    -0.299983659158    14.003074004430
         N            3.934212506907     1.293771187450     0.655104140842    14.003074004430
         N            4.052400506907    -0.911330812550    -0.112062859158    14.003074004430
         C           -0.657409493093    -0.388406812550     0.740220140842    12.000000000000
         C           -0.163023493093    -0.683741812550    -0.670334859158    12.000000000000
         C           -2.186427493093    -0.354401812550     0.844284140842    12.000000000000
         C            1.346204506907    -0.882743812550    -0.706339859158    12.000000000000
         C           -2.789748493093     0.656458187450    -0.106994859158    12.000000000000
         C            3.268339506907     0.229311187450     0.027879140842    12.000000000000
         H           -0.238507493093     0.559930187450     1.086835140842     1.007825032230
         H           -0.300193493093    -1.169571812550     1.425520140842     1.007825032230
         H           -0.669102493093    -1.576679812550    -1.052261859158     1.007825032230
         H           -0.415320493093     0.154831187450    -1.330353859158     1.007825032230
         H           -2.451023493093     0.012144187450     1.853315140842     1.007825032230
         H            1.617682506907    -1.748426812550    -0.079195859158     1.007825032230
         H            1.649843506907    -1.131044812550    -1.738124859158     1.007825032230
         H           -3.727691493093    -1.564345812550     0.270430140842     1.007825032230
         H           -2.710377493093    -2.255047812550     1.365028140842     1.007825032230
         H           -2.660097493093     2.452003187450    -0.625881859158     1.007825032230
         H            3.298468506907     2.083905187450     0.722059140842     1.007825032230
         H            4.792894506907     1.568238187450     0.185048140842     1.007825032230
         H            5.043736506907    -0.803317812550     0.059172140842     1.007825032230
         H            3.834028506907    -1.503285812550    -0.902861859158     1.007825032230

  Basis Set: AUG-CC-PVTZ
    Blend: AUG-CC-PVTZ
  Basis Set: (AUG-CC-PVTZ AUX)
    Blend: AUG-CC-PVTZ-JKFIT
	 Reference Energy          =    -603.1148215215249593 [Eh]
	 Singles Energy            =      -0.0000000000000000 [Eh]
	 Same-Spin Energy          =      -0.6212395825161728 [Eh]
	 Opposite-Spin Energy      =      -1.9535237240995200 [Eh]
	 Correlation Energy        =      -2.5747633066156927 [Eh]
	 Total Energy              =    -605.6895848281405961 [Eh]

	 ================> DF-SCS-MP2 Energies <==================
	-----------------------------------------------------------
	 SCS Same-Spin Scale       =       0.3333333333333333 [-]
	 SCS Opposite-Spin Scale   =       1.2000000000000000 [-]
	 SCS Same-Spin Energy      =      -0.2070798608387243 [Eh]
	 SCS Opposite-Spin Energy  =      -2.3442284689194239 [Eh]
	 SCS Correlation Energy    =      -2.5513083297581480 [Eh]
	 SCS Total Energy          =    -605.6661298512831308 [Eh]
	-----------------------------------------------------------

  Dipole Moment: [D]
     X:     3.4670      Y:     0.6903      Z:     0.4933     Total:     3.5693

*** Psi4 exiting successfully. Buy a developer a beer!
