                               Psi4 1.3.2 release

  ==> Input File <==

--------------------------------------------------------------------------
#psi4
#
memory 32 gb

molecule  {
0 1
  O       -2.2266400     1.8867650    -0.0032170
  O       -3.7615920     0.4694410    -0.8736430
  N       -2.7859400    -1.6499310     0.5252010
  N        1.9794570     0.3457110    -0.2591130
  N        3.8978530     1.3104060     0.6447910
  N        4.0160410    -0.8946960    -0.1223760
  C       -0.6937690    -0.3717720     0.7299070
  C       -0.1993830    -0.6671070    -0.6806480
  C       -2.2227870    -0.3377670     0.8339710
  C        1.3098450    -0.8661090    -0.7166530
  C       -2.8261080     0.6730930    -0.1173080
  C        3.2319800     0.2459460     0.0175660
  H       -0.2748670     0.5765650     1.0765220
  H       -0.3365530    -1.1529370     1.4152070
  H       -0.7054620    -1.5600450    -1.0625750
  H       -0.4516800     0.1714660    -1.3406670
  H       -2.4873830     0.0287790     1.8430020
  H        1.5813230    -1.7317920    -0.0895090
  H        1.6134840    -1.1144100    -1.7484380
  H       -3.7640510    -1.5477110     0.2601170
  H       -2.7467370    -2.2384130     1.3547150
  H       -2.6964570     2.4686380    -0.6361950
  H        3.2162729     2.0576728     0.7448211
  H        4.7565350     1.5848730     0.1747350
  H        5.0073770    -0.7866830     0.0488590
  H        3.7976690    -1.4866510    -0.9131750
units angstrom
no_reorient  #important for SAPT in psi4, default
symmetry c1  #important for SAPT in psi4, default
}

set PROPERTIES_ORIGIN ["COM"]
properties('MP2/aug-cc-pvtz', properties = ['dipole'])
--------------------------------------------------------------------------

    Molecular point group: c1
  Charge       = 0
  Multiplicity = 1
  Basis Set: AUG-CC-PVTZ
    Blend: AUG-CC-PVTZ
  Basis Set: (AUG-CC-PVTZ AUX)
    Blend: AUG-CC-PVTZ-JKFIT

    Orbital Energies [Eh]
    ---------------------

    Doubly Occupied:

       1A    -20.609937     2A    -20.547136     3A    -15.583205
       4A    -15.571074     5A    -15.539594     6A    -15.515416
       7A    -11.382434     8A    -11.341055     9A    -11.270941
      10A    -11.238598    11A    -11.212648    12A    -11.201848
      13A     -1.455579    14A     -1.352319    15A     -1.295346
      16A     -1.189534    17A     -1.167291    18A     -1.157640
      19A     -1.047034    20A     -0.974236    21A     -0.892513
      22A     -0.820763    23A     -0.783663    24A     -0.765062
      25A     -0.718862    26A     -0.704599    27A     -0.701481
      28A     -0.691003    29A     -0.655908    30A     -0.640139
      31A     -0.630972    32A     -0.617784    33A     -0.606005
      34A     -0.593401    35A     -0.569248    36A     -0.550423
      37A     -0.540935    38A     -0.521391    39A     -0.491664
      40A     -0.477285    41A     -0.469953    42A     -0.467827
      43A     -0.440388    44A     -0.437674    45A     -0.398171
      46A     -0.391176    47A     -0.346867

  @DF-RHF Final Energy:  -603.12541006753997

   => Energetics <=

    Nuclear Repulsion Energy =            725.8587726030864360
    One-Electron Energy =               -2264.8123162051201689
    Two-Electron Energy =                 935.8281335344937588
    Total Energy =                       -603.1254100675399741
  Basis Set: (AUG-CC-PVTZ AUX)
    Blend: AUG-CC-PVTZ-RI
    Molecular point group: c1

    Geometry (in Angstrom), charge = 0, multiplicity = 1:

       Center              X                  Y                   Z               Mass
    ------------   -----------------  -----------------  -----------------  -----------------
         O           -2.189319621552     1.860384317492     0.002788190499    15.994914619570
         O           -3.724271621552     0.443060317492    -0.867637809501    15.994914619570
         N           -2.748619621552    -1.676311682508     0.531206190499    14.003074004430
         N            2.016777378448     0.319330317492    -0.253107809501    14.003074004430
         N            3.935173378448     1.284025317492     0.650796190499    14.003074004430
         N            4.053361378448    -0.921076682508    -0.116370809501    14.003074004430
         C           -0.656448621552    -0.398152682508     0.735912190499    12.000000000000
         C           -0.162062621552    -0.693487682508    -0.674642809501    12.000000000000
         C           -2.185466621552    -0.364147682508     0.839976190499    12.000000000000
         C            1.347165378448    -0.892489682508    -0.710647809501    12.000000000000
         C           -2.788787621552     0.646712317492    -0.111302809501    12.000000000000
         C            3.269300378448     0.219565317492     0.023571190499    12.000000000000
         H           -0.237546621552     0.550184317492     1.082527190499     1.007825032230
         H           -0.299232621552    -1.179317682508     1.421212190499     1.007825032230
         H           -0.668141621552    -1.586425682508    -1.056569809501     1.007825032230
         H           -0.414359621552     0.145085317492    -1.334661809501     1.007825032230
         H           -2.450062621552     0.002398317492     1.849007190499     1.007825032230
         H            1.618643378448    -1.758172682508    -0.083503809501     1.007825032230
         H            1.650804378448    -1.140790682508    -1.742432809501     1.007825032230
         H           -3.726730621552    -1.574091682508     0.266122190499     1.007825032230
         H           -2.709416621552    -2.264793682508     1.360720190499     1.007825032230
         H           -2.659136621552     2.442257317492    -0.630189809501     1.007825032230
         H            3.253593278448     2.031292117492     0.750826290499     1.007825032230
         H            4.793855378448     1.558492317492     0.180740190499     1.007825032230
         H            5.044697378448    -0.813063682508     0.054864190499     1.007825032230
         H            3.834989378448    -1.513031682508    -0.907169809501     1.007825032230

  Basis Set: AUG-CC-PVTZ
    Blend: AUG-CC-PVTZ
  Basis Set: (AUG-CC-PVTZ AUX)
    Blend: AUG-CC-PVTZ-JKFIT
	 Reference Energy          =    -603.1254100675399741 [Eh]
	 Singles Energy            =      -0.0000000000000000 [Eh]
	 Same-Spin Energy          =      -0.6203800203529231 [Eh]
	 Opposite-Spin Energy      =      -1.9538826546348935 [Eh]
	 Correlation Energy        =      -2.5742626749878168 [Eh]
	 Total Energy              =    -605.6996727425278095 [Eh]

	 ================> DF-SCS-MP2 Energies <==================
	-----------------------------------------------------------
	 SCS Same-Spin Scale       =       0.3333333333333333 [-]
	 SCS Opposite-Spin Scale   =       1.2000000000000000 [-]
	 SCS Same-Spin Energy      =      -0.2067933401176410 [Eh]
	 SCS Opposite-Spin Energy  =      -2.3446591855618721 [Eh]
	 SCS Correlation Energy    =      -2.5514525256795131 [Eh]
	 SCS Total Energy          =    -605.6768625932195391 [Eh]
	-----------------------------------------------------------

  Dipole Moment: [D]
     X:     3.3857      Y:     0.2558      Z:     0.3821     Total:     3.4168

*** Psi4 exiting successfully. Buy a developer a beer!
