                               Psi4 1.3.2 release

  ==> Input File <==

--------------------------------------------------------------------------
#psi4
#
memory 32 gb

molecule  {
0 1
  O       -2.2266400     1.8867650    -0.0032170
  O       -3.7615920     0.4694410    -0.8736430
  N       -2.7859400    -1.6499310     0.5252010
  N        1.9794570     0.3457110    -0.2591130
  N        3.8978530     1.3104060     0.6447910
  N        4.0160410    -0.8946960    -0.1223760
  C       -0.6937690    -0.3717720     0.7299070
  C       -0.1993830    -0.6671070    -0.6806480
  C       -2.2227870    -0.3377670     0.8339710
  C        1.3988228    -0.9145967    -0.7071301
  C       -2.8261080     0.6730930    -0.1173080
  C        3.2319800     0.2459460     0.0175660
  H       -0.2748670     0.5765650     1.0765220
  H       -0.3365530    -1.1529370     1.4152070
  H       -0.7054620    -1.5600450    -1.0625750
  H       -0.4516800     0.1714660    -1.3406670
  H       -2.4873830     0.0287790     1.8430020
  H        1.5813230    -1.7317920    -0.0895090
  H        1.6134840    -1.1144100    -1.7484380
  H       -3.7640510    -1.5477110     0.2601170
  H       -2.7467370    -2.2384130     1.3547150
  H       -2.6964570     2.4686380    -0.6361950
  H        3.2621090     2.1005400     0.7117460
  H        4.7565350     1.5848730     0.1747350
  H        5.0073770    -0.7866830     0.0488590
  H        3.7976690    -1.4866510    -0.9131750
units angstrom
no_reorient  #important for SAPT in psi4, default
symmetry c1  #important for SAPT in psi4, default
}

set PROPERTIES_ORIGIN ["COM"]
properties('MP2/aug-cc-pvtz', properties = ['dipole'])
--------------------------------------------------------------------------

    Molecular point group: c1
  Charge       = 0
  Multiplicity = 1
  Basis Set: AUG-CC-PVTZ
    Blend: AUG-CC-PVTZ
  Basis Set: (AUG-CC-PVTZ AUX)
    Blend: AUG-CC-PVTZ-JKFIT

    Orbital Energies [Eh]
    ---------------------

    Doubly Occupied:

       1A    -20.609061     2A    -20.546168     3A    -15.584299
       4A    -15.572198     5A    -15.538344     6A    -15.517269
       7A    -11.381451     8A    -11.341353     9A    -11.269716
      10A    -11.233959    11A    -11.211001    12A    -11.203092
      13A     -1.454659    14A     -1.351383    15A     -1.297531
      16A     -1.188128    17A     -1.168787    18A     -1.158712
      19A     -1.039889    20A     -0.966459    21A     -0.893458
      22A     -0.819708    23A     -0.786999    24A     -0.764666
      25A     -0.720033    26A     -0.703089    27A     -0.700303
      28A     -0.690193    29A     -0.653832    30A     -0.637949
      31A     -0.632918    32A     -0.616790    33A     -0.604656
      34A     -0.600029    35A     -0.566992    36A     -0.549673
      37A     -0.540799    38A     -0.522385    39A     -0.484180
      40A     -0.477267    41A     -0.472666    42A     -0.457027
      43A     -0.439653    44A     -0.434236    45A     -0.402143
      46A     -0.390287    47A     -0.349909

  @DF-RHF Final Energy:  -603.11650352504444

   => Energetics <=

    Nuclear Repulsion Energy =            724.9292622683108220
    One-Electron Energy =               -2263.0009293021271333
    Two-Electron Energy =                 934.9551635087718751
    Total Energy =                       -603.1165035250444362
  Basis Set: (AUG-CC-PVTZ AUX)
    Blend: AUG-CC-PVTZ-RI
    Molecular point group: c1

    Geometry (in Angstrom), charge = 0, multiplicity = 1:

       Center              X                  Y                   Z               Mass
    ------------   -----------------  -----------------  -----------------  -----------------
         O           -2.195717402542     1.863478020201     0.002323311358    15.994914619570
         O           -3.730669402542     0.446154020201    -0.868102688642    15.994914619570
         N           -2.755017402542    -1.673217979799     0.530741311358    14.003074004430
         N            2.010379597458     0.322424020201    -0.253572688642    14.003074004430
         N            3.928775597458     1.287119020201     0.650331311358    14.003074004430
         N            4.046963597458    -0.917982979799    -0.116835688642    14.003074004430
         C           -0.662846402542    -0.395058979799     0.735447311358    12.000000000000
         C           -0.168460402542    -0.690393979799    -0.675107688642    12.000000000000
         C           -2.191864402542    -0.361053979799     0.839511311358    12.000000000000
         C            1.429745397458    -0.937883679799    -0.701589788642    12.000000000000
         C           -2.795185402542     0.649806020201    -0.111767688642    12.000000000000
         C            3.262902597458     0.222659020201     0.023106311358    12.000000000000
         H           -0.243944402542     0.553278020201     1.082062311358     1.007825032230
         H           -0.305630402542    -1.176223979799     1.420747311358     1.007825032230
         H           -0.674539402542    -1.583331979799    -1.057034688642     1.007825032230
         H           -0.420757402542     0.148179020201    -1.335126688642     1.007825032230
         H           -2.456460402542     0.005492020201     1.848542311358     1.007825032230
         H            1.612245597458    -1.755078979799    -0.083968688642     1.007825032230
         H            1.644406597458    -1.137696979799    -1.742897688642     1.007825032230
         H           -3.733128402542    -1.570997979799     0.265657311358     1.007825032230
         H           -2.715814402542    -2.261699979799     1.360255311358     1.007825032230
         H           -2.665534402542     2.445351020201    -0.630654688642     1.007825032230
         H            3.293031597458     2.077253020201     0.717286311358     1.007825032230
         H            4.787457597458     1.561586020201     0.180275311358     1.007825032230
         H            5.038299597458    -0.809969979799     0.054399311358     1.007825032230
         H            3.828591597458    -1.509937979799    -0.907634688642     1.007825032230

  Basis Set: AUG-CC-PVTZ
    Blend: AUG-CC-PVTZ
  Basis Set: (AUG-CC-PVTZ AUX)
    Blend: AUG-CC-PVTZ-JKFIT
	 Reference Energy          =    -603.1165035250444362 [Eh]
	 Singles Energy            =      -0.0000000000000000 [Eh]
	 Same-Spin Energy          =      -0.6202286444113740 [Eh]
	 Opposite-Spin Energy      =      -1.9543456325986268 [Eh]
	 Correlation Energy        =      -2.5745742770100009 [Eh]
	 Total Energy              =    -605.6910778020544512 [Eh]

	 ================> DF-SCS-MP2 Energies <==================
	-----------------------------------------------------------
	 SCS Same-Spin Scale       =       0.3333333333333333 [-]
	 SCS Opposite-Spin Scale   =       1.2000000000000000 [-]
	 SCS Same-Spin Energy      =      -0.2067428814704580 [Eh]
	 SCS Opposite-Spin Energy  =      -2.3452147591183521 [Eh]
	 SCS Correlation Energy    =      -2.5519576405888102 [Eh]
	 SCS Total Energy          =    -605.6684611656332891 [Eh]
	-----------------------------------------------------------

  Dipole Moment: [D]
     X:     3.5743      Y:     0.2824      Z:     0.3715     Total:     3.6047

*** Psi4 exiting successfully. Buy a developer a beer!
