                               Psi4 1.3.2 release

  ==> Input File <==

--------------------------------------------------------------------------
#psi4
#
memory 32 gb

molecule  {
0 1
  O       -2.2266400     1.8867650    -0.0032170
  O       -3.7615920     0.4694410    -0.8736430
  N       -2.7859400    -1.6499310     0.5252010
  N        1.9794570     0.3457110    -0.2591130
  N        3.8978530     1.3104060     0.6447910
  N        4.0160410    -0.8946960    -0.1223760
  C       -0.6937690    -0.3717720     0.7299070
  C       -0.1993830    -0.6671070    -0.6806480
  C       -2.2227870    -0.3377670     0.8339710
  C        1.3098450    -0.8661090    -0.7166530
  C       -2.8261080     0.6730930    -0.1173080
  C        3.2319800     0.2459460     0.0175660
  H       -0.2748670     0.5765650     1.0765220
  H       -0.3365530    -1.1529370     1.4152070
  H       -0.7054620    -1.5600450    -1.0625750
  H       -0.4516800     0.1714660    -1.3406670
  H       -2.4873830     0.0287790     1.8430020
  H        1.5813230    -1.7317920    -0.0895090
  H        1.6134840    -1.1144100    -1.7484380
  H       -3.7640510    -1.5477110     0.2601170
  H       -2.7467370    -2.2384130     1.3547150
  H       -2.6964570     2.4686380    -0.6361950
  H        3.1945867     2.0348602     0.7611858
  H        4.7565350     1.5848730     0.1747350
  H        5.0073770    -0.7866830     0.0488590
  H        3.7976690    -1.4866510    -0.9131750
units angstrom
no_reorient  #important for SAPT in psi4, default
symmetry c1  #important for SAPT in psi4, default
}

set PROPERTIES_ORIGIN ["COM"]
properties('MP2/aug-cc-pvtz', properties = ['dipole'])
--------------------------------------------------------------------------

    Molecular point group: c1
  Charge       = 0
  Multiplicity = 1
  Basis Set: AUG-CC-PVTZ
    Blend: AUG-CC-PVTZ
  Basis Set: (AUG-CC-PVTZ AUX)
    Blend: AUG-CC-PVTZ-JKFIT

    Orbital Energies [Eh]
    ---------------------

    Doubly Occupied:

       1A    -20.609995     2A    -20.547191     3A    -15.583048
       4A    -15.570741     5A    -15.539657     6A    -15.515482
       7A    -11.382493     8A    -11.340788     9A    -11.271019
      10A    -11.238676    11A    -11.212760    12A    -11.201923
      13A     -1.455636    14A     -1.352375    15A     -1.295420
      16A     -1.189601    17A     -1.167158    18A     -1.157557
      19A     -1.047090    20A     -0.974261    21A     -0.892492
      22A     -0.820406    23A     -0.783242    24A     -0.765147
      25A     -0.718804    26A     -0.705970    27A     -0.701700
      28A     -0.691509    29A     -0.655971    30A     -0.640929
      31A     -0.630578    32A     -0.617832    33A     -0.605298
      34A     -0.593399    35A     -0.569226    36A     -0.550202
      37A     -0.540808    38A     -0.521247    39A     -0.491736
      40A     -0.477346    41A     -0.469985    42A     -0.467888
      43A     -0.440455    44A     -0.437332    45A     -0.398294
      46A     -0.391257    47A     -0.346879

  @DF-RHF Final Energy:  -603.12468257223122

   => Energetics <=

    Nuclear Repulsion Energy =            725.9163022338248084
    One-Electron Energy =               -2264.9243586901229719
    Two-Electron Energy =                 935.8833738840669412
    Total Energy =                       -603.1246825722312224
  Basis Set: (AUG-CC-PVTZ AUX)
    Blend: AUG-CC-PVTZ-RI
    Molecular point group: c1

    Geometry (in Angstrom), charge = 0, multiplicity = 1:

       Center              X                  Y                   Z               Mass
    ------------   -----------------  -----------------  -----------------  -----------------
         O           -2.189194093524     1.860516365554     0.002693465351    15.994914619570
         O           -3.724146093524     0.443192365554    -0.867732534649    15.994914619570
         N           -2.748494093524    -1.676179634446     0.531111465351    14.003074004430
         N            2.016902906476     0.319462365554    -0.253202534649    14.003074004430
         N            3.935298906476     1.284157365554     0.650701465351    14.003074004430
         N            4.053486906476    -0.920944634446    -0.116465534649    14.003074004430
         C           -0.656323093524    -0.398020634446     0.735817465351    12.000000000000
         C           -0.161937093524    -0.693355634446    -0.674737534649    12.000000000000
         C           -2.185341093524    -0.364015634446     0.839881465351    12.000000000000
         C            1.347290906476    -0.892357634446    -0.710742534649    12.000000000000
         C           -2.788662093524     0.646844365554    -0.111397534649    12.000000000000
         C            3.269425906476     0.219697365554     0.023476465351    12.000000000000
         H           -0.237421093524     0.550316365554     1.082432465351     1.007825032230
         H           -0.299107093524    -1.179185634446     1.421117465351     1.007825032230
         H           -0.668016093524    -1.586293634446    -1.056664534649     1.007825032230
         H           -0.414234093524     0.145217365554    -1.334756534649     1.007825032230
         H           -2.449937093524     0.002530365554     1.848912465351     1.007825032230
         H            1.618768906476    -1.758040634446    -0.083598534649     1.007825032230
         H            1.650929906476    -1.140658634446    -1.742527534649     1.007825032230
         H           -3.726605093524    -1.573959634446     0.266027465351     1.007825032230
         H           -2.709291093524    -2.264661634446     1.360625465351     1.007825032230
         H           -2.659011093524     2.442389365554    -0.630284534649     1.007825032230
         H            3.232032606476     2.008611565554     0.767096265351     1.007825032230
         H            4.793980906476     1.558624365554     0.180645465351     1.007825032230
         H            5.044822906476    -0.812931634446     0.054769465351     1.007825032230
         H            3.835114906476    -1.512899634446    -0.907264534649     1.007825032230

  Basis Set: AUG-CC-PVTZ
    Blend: AUG-CC-PVTZ
  Basis Set: (AUG-CC-PVTZ AUX)
    Blend: AUG-CC-PVTZ-JKFIT
	 Reference Energy          =    -603.1246825722312224 [Eh]
	 Singles Energy            =      -0.0000000000000000 [Eh]
	 Same-Spin Energy          =      -0.6204524188426065 [Eh]
	 Opposite-Spin Energy      =      -1.9539526323305152 [Eh]
	 Correlation Energy        =      -2.5744050511731218 [Eh]
	 Total Energy              =    -605.6990876234043526 [Eh]

	 ================> DF-SCS-MP2 Energies <==================
	-----------------------------------------------------------
	 SCS Same-Spin Scale       =       0.3333333333333333 [-]
	 SCS Opposite-Spin Scale   =       1.2000000000000000 [-]
	 SCS Same-Spin Energy      =      -0.2068174729475355 [Eh]
	 SCS Opposite-Spin Energy  =      -2.3447431587966183 [Eh]
	 SCS Correlation Energy    =      -2.5515606317441537 [Eh]
	 SCS Total Energy          =    -605.6762432039753321 [Eh]
	-----------------------------------------------------------

  Dipole Moment: [D]
     X:     3.3708      Y:     0.2377      Z:     0.4008     Total:     3.4029

*** Psi4 exiting successfully. Buy a developer a beer!
