                               Psi4 1.3.2 release

  ==> Input File <==

--------------------------------------------------------------------------
#psi4
#
memory 32 gb

molecule  {
0 1
  O       -2.2266400     1.8867650    -0.0032170
  O       -3.7615920     0.4694410    -0.8736430
  N       -2.7859400    -1.6499310     0.5252010
  N        1.9794570     0.3457110    -0.2591130
  N        3.8978530     1.3104060     0.6447910
  N        4.0160410    -0.8946960    -0.1223760
  C       -0.6937690    -0.3717720     0.7299070
  C       -0.1993830    -0.6671070    -0.6806480
  C       -2.2227870    -0.3377670     0.8339710
  C        1.3098450    -0.8661090    -0.7166530
  C       -2.8261080     0.6730930    -0.1173080
  C        3.4266840     0.2304376     0.0605756
  H       -0.2748670     0.5765650     1.0765220
  H       -0.3365530    -1.1529370     1.4152070
  H       -0.7054620    -1.5600450    -1.0625750
  H       -0.4516800     0.1714660    -1.3406670
  H       -2.4873830     0.0287790     1.8430020
  H        1.5813230    -1.7317920    -0.0895090
  H        1.6134840    -1.1144100    -1.7484380
  H       -3.7640510    -1.5477110     0.2601170
  H       -2.7467370    -2.2384130     1.3547150
  H       -2.6964570     2.4686380    -0.6361950
  H        3.2621090     2.1005400     0.7117460
  H        4.7565350     1.5848730     0.1747350
  H        5.0073770    -0.7866830     0.0488590
  H        3.7976690    -1.4866510    -0.9131750
units angstrom
no_reorient  #important for SAPT in psi4, default
symmetry c1  #important for SAPT in psi4, default
}

set PROPERTIES_ORIGIN ["COM"]
properties('MP2/aug-cc-pvtz', properties = ['dipole'])
--------------------------------------------------------------------------

    Molecular point group: c1
  Charge       = 0
  Multiplicity = 1
  Basis Set: AUG-CC-PVTZ
    Blend: AUG-CC-PVTZ
  Basis Set: (AUG-CC-PVTZ AUX)
    Blend: AUG-CC-PVTZ-JKFIT

    Orbital Energies [Eh]
    ---------------------

    Doubly Occupied:

       1A    -20.603661     2A    -20.540944     3A    -15.611308
       4A    -15.592706     5A    -15.533219     6A    -15.493147
       7A    -11.376082     8A    -11.356269     9A    -11.263289
      10A    -11.218804    11A    -11.202074    12A    -11.190174
      13A     -1.449304    14A     -1.346160    15A     -1.335712
      16A     -1.221505    17A     -1.182552    18A     -1.106670
      19A     -1.025450    20A     -0.952735    21A     -0.879468
      22A     -0.839935    23A     -0.786793    24A     -0.758082
      25A     -0.747442    26A     -0.719751    27A     -0.695511
      28A     -0.690350    29A     -0.683985    30A     -0.648253
      31A     -0.618013    32A     -0.611358    33A     -0.599360
      34A     -0.577045    35A     -0.565267    36A     -0.555604
      37A     -0.528680    38A     -0.512812    39A     -0.480426
      40A     -0.468962    41A     -0.465643    42A     -0.459795
      43A     -0.442425    44A     -0.432792    45A     -0.385979
      46A     -0.364183    47A     -0.295885

  @DF-RHF Final Energy:  -603.06392821563850

   => Energetics <=

    Nuclear Repulsion Energy =            724.2538779546006253
    One-Electron Energy =               -2261.8044856173714834
    Two-Electron Energy =                 934.4866794471322464
    Total Energy =                       -603.0639282156384979
  Basis Set: (AUG-CC-PVTZ AUX)
    Blend: AUG-CC-PVTZ-RI
    Molecular point group: c1

    Geometry (in Angstrom), charge = 0, multiplicity = 1:

       Center              X                  Y                   Z               Mass
    ------------   -----------------  -----------------  -----------------  -----------------
         O           -2.203004187847     1.861205044547     0.000015365045    15.994914619570
         O           -3.737956187847     0.443881044547    -0.870410634955    15.994914619570
         N           -2.762304187847    -1.675490955453     0.528433365045    14.003074004430
         N            2.003092812153     0.320151044547    -0.255880634955    14.003074004430
         N            3.921488812153     1.284846044547     0.648023365045    14.003074004430
         N            4.039676812153    -0.920255955453    -0.119143634955    14.003074004430
         C           -0.670133187847    -0.397331955453     0.733139365045    12.000000000000
         C           -0.175747187847    -0.692666955453    -0.677415634955    12.000000000000
         C           -2.199151187847    -0.363326955453     0.837203365045    12.000000000000
         C            1.333480812153    -0.891668955453    -0.713420634955    12.000000000000
         C           -2.802472187847     0.647533044547    -0.114075634955    12.000000000000
         C            3.450319812153     0.204877644547     0.063807965045    12.000000000000
         H           -0.251231187847     0.551005044547     1.079754365045     1.007825032230
         H           -0.312917187847    -1.178496955453     1.418439365045     1.007825032230
         H           -0.681826187847    -1.585604955453    -1.059342634955     1.007825032230
         H           -0.428044187847     0.145906044547    -1.337434634955     1.007825032230
         H           -2.463747187847     0.003219044547     1.846234365045     1.007825032230
         H            1.604958812153    -1.757351955453    -0.086276634955     1.007825032230
         H            1.637119812153    -1.139969955453    -1.745205634955     1.007825032230
         H           -3.740415187847    -1.573270955453     0.263349365045     1.007825032230
         H           -2.723101187847    -2.263972955453     1.357947365045     1.007825032230
         H           -2.672821187847     2.443078044547    -0.632962634955     1.007825032230
         H            3.285744812153     2.074980044547     0.714978365045     1.007825032230
         H            4.780170812153     1.559313044547     0.177967365045     1.007825032230
         H            5.031012812153    -0.812242955453     0.052091365045     1.007825032230
         H            3.821304812153    -1.512210955453    -0.909942634955     1.007825032230

  Basis Set: AUG-CC-PVTZ
    Blend: AUG-CC-PVTZ
  Basis Set: (AUG-CC-PVTZ AUX)
    Blend: AUG-CC-PVTZ-JKFIT
	 Reference Energy          =    -603.0639282156384979 [Eh]
	 Singles Energy            =      -0.0000000000000000 [Eh]
	 Same-Spin Energy          =      -0.6244041855535307 [Eh]
	 Opposite-Spin Energy      =      -1.9587348781376510 [Eh]
	 Correlation Energy        =      -2.5831390636911817 [Eh]
	 Total Energy              =    -605.6470672793296899 [Eh]

	 ================> DF-SCS-MP2 Energies <==================
	-----------------------------------------------------------
	 SCS Same-Spin Scale       =       0.3333333333333333 [-]
	 SCS Opposite-Spin Scale   =       1.2000000000000000 [-]
	 SCS Same-Spin Energy      =      -0.2081347285178436 [Eh]
	 SCS Opposite-Spin Energy  =      -2.3504818537651810 [Eh]
	 SCS Correlation Energy    =      -2.5586165822830247 [Eh]
	 SCS Total Energy          =    -605.6225447979214778 [Eh]
	-----------------------------------------------------------

  Dipole Moment: [D]
     X:     4.9534      Y:     0.2957      Z:     0.7303     Total:     5.0157

*** Psi4 exiting successfully. Buy a developer a beer!
