                               Psi4 1.3.2 release

  ==> Input File <==

--------------------------------------------------------------------------
#psi4
#
memory 32 gb

molecule  {
0 1
  O       -2.2266400     1.8867650    -0.0032170
  O       -3.7615920     0.4694410    -0.8736430
  N       -2.7859400    -1.6499310     0.5252010
  N        1.9794570     0.3457110    -0.2591130
  N        3.8978530     1.3104060     0.6447910
  N        4.0160410    -0.8946960    -0.1223760
  C       -0.6937690    -0.3717720     0.7299070
  C       -0.1993830    -0.6671070    -0.6806480
  C       -2.2227870    -0.3377670     0.8339710
  C        1.3098450    -0.8661090    -0.7166530
  C       -2.8261080     0.6730930    -0.1173080
  C        3.2522235     0.2323167     0.0196837
  H       -0.2748670     0.5765650     1.0765220
  H       -0.3365530    -1.1529370     1.4152070
  H       -0.7054620    -1.5600450    -1.0625750
  H       -0.4516800     0.1714660    -1.3406670
  H       -2.4873830     0.0287790     1.8430020
  H        1.5813230    -1.7317920    -0.0895090
  H        1.6134840    -1.1144100    -1.7484380
  H       -3.7640510    -1.5477110     0.2601170
  H       -2.7467370    -2.2384130     1.3547150
  H       -2.6964570     2.4686380    -0.6361950
  H        3.2621090     2.1005400     0.7117460
  H        4.7565350     1.5848730     0.1747350
  H        5.0073770    -0.7866830     0.0488590
  H        3.7976690    -1.4866510    -0.9131750
units angstrom
no_reorient  #important for SAPT in psi4, default
symmetry c1  #important for SAPT in psi4, default
}

set PROPERTIES_ORIGIN ["COM"]
properties('MP2/aug-cc-pvtz', properties = ['dipole'])
--------------------------------------------------------------------------

    Molecular point group: c1
  Charge       = 0
  Multiplicity = 1
  Basis Set: AUG-CC-PVTZ
    Blend: AUG-CC-PVTZ
  Basis Set: (AUG-CC-PVTZ AUX)
    Blend: AUG-CC-PVTZ-JKFIT

    Orbital Energies [Eh]
    ---------------------

    Doubly Occupied:

       1A    -20.609134     2A    -20.546359     3A    -15.587842
       4A    -15.572490     5A    -15.538803     6A    -15.513732
       7A    -11.381635     8A    -11.343419     9A    -11.269984
      10A    -11.236088    11A    -11.211331    12A    -11.200419
      13A     -1.454782    14A     -1.351542    15A     -1.298083
      16A     -1.188667    17A     -1.172659    18A     -1.152738
      19A     -1.044630    20A     -0.971858    21A     -0.890694
      22A     -0.822199    23A     -0.786865    24A     -0.764422
      25A     -0.724213    26A     -0.702657    27A     -0.699927
      28A     -0.688858    29A     -0.655204    30A     -0.641025
      31A     -0.630876    32A     -0.617006    33A     -0.605548
      34A     -0.592254    35A     -0.568773    36A     -0.551428
      37A     -0.539614    38A     -0.521590    39A     -0.490367
      40A     -0.476319    41A     -0.468871    42A     -0.466594
      43A     -0.439875    44A     -0.439159    45A     -0.396775
      46A     -0.389974    47A     -0.341003

  @DF-RHF Final Energy:  -603.12410028957015

   => Energetics <=

    Nuclear Repulsion Energy =            725.5898505646442800
    One-Electron Energy =               -2264.3113308031975066
    Two-Electron Energy =                 935.5973799489831890
    Total Energy =                       -603.1241002895701513
  Basis Set: (AUG-CC-PVTZ AUX)
    Blend: AUG-CC-PVTZ-RI
    Molecular point group: c1

    Geometry (in Angstrom), charge = 0, multiplicity = 1:

       Center              X                  Y                   Z               Mass
    ------------   -----------------  -----------------  -----------------  -----------------
         O           -2.190980146429     1.861075534564     0.002833687240    15.994914619570
         O           -3.725932146429     0.443751534564    -0.867592312760    15.994914619570
         N           -2.750280146429    -1.675620465436     0.531251687240    14.003074004430
         N            2.015116853571     0.320021534564    -0.253062312760    14.003074004430
         N            3.933512853571     1.284716534564     0.650841687240    14.003074004430
         N            4.051700853571    -0.920385465436    -0.116325312760    14.003074004430
         C           -0.658109146429    -0.397461465436     0.735957687240    12.000000000000
         C           -0.163723146429    -0.692796465436    -0.674597312760    12.000000000000
         C           -2.187127146429    -0.363456465436     0.840021687240    12.000000000000
         C            1.345504853571    -0.891798465436    -0.710602312760    12.000000000000
         C           -2.790448146429     0.647403534564    -0.111257312760    12.000000000000
         C            3.287883353571     0.206627234564     0.025734387240    12.000000000000
         H           -0.239207146429     0.550875534564     1.082572687240     1.007825032230
         H           -0.300893146429    -1.178626465436     1.421257687240     1.007825032230
         H           -0.669802146429    -1.585734465436    -1.056524312760     1.007825032230
         H           -0.416020146429     0.145776534564    -1.334616312760     1.007825032230
         H           -2.451723146429     0.003089534564     1.849052687240     1.007825032230
         H            1.616982853571    -1.757481465436    -0.083458312760     1.007825032230
         H            1.649143853571    -1.140099465436    -1.742387312760     1.007825032230
         H           -3.728391146429    -1.573400465436     0.266167687240     1.007825032230
         H           -2.711077146429    -2.264102465436     1.360765687240     1.007825032230
         H           -2.660797146429     2.442948534564    -0.630144312760     1.007825032230
         H            3.297768853571     2.074850534564     0.717796687240     1.007825032230
         H            4.792194853571     1.559183534564     0.180785687240     1.007825032230
         H            5.043036853571    -0.812372465436     0.054909687240     1.007825032230
         H            3.833328853571    -1.512340465436    -0.907124312760     1.007825032230

  Basis Set: AUG-CC-PVTZ
    Blend: AUG-CC-PVTZ
  Basis Set: (AUG-CC-PVTZ AUX)
    Blend: AUG-CC-PVTZ-JKFIT
	 Reference Energy          =    -603.1241002895701513 [Eh]
	 Singles Energy            =      -0.0000000000000000 [Eh]
	 Same-Spin Energy          =      -0.6206762749497363 [Eh]
	 Opposite-Spin Energy      =      -1.9542960418504460 [Eh]
	 Correlation Energy        =      -2.5749723168001823 [Eh]
	 Total Energy              =    -605.6990726063703505 [Eh]

	 ================> DF-SCS-MP2 Energies <==================
	-----------------------------------------------------------
	 SCS Same-Spin Scale       =       0.3333333333333333 [-]
	 SCS Opposite-Spin Scale   =       1.2000000000000000 [-]
	 SCS Same-Spin Energy      =      -0.2068920916499121 [Eh]
	 SCS Opposite-Spin Energy  =      -2.3451552502205351 [Eh]
	 SCS Correlation Energy    =      -2.5520473418704470 [Eh]
	 SCS Total Energy          =    -605.6761476314405854 [Eh]
	-----------------------------------------------------------

  Dipole Moment: [D]
     X:     3.5969      Y:     0.2149      Z:     0.3597     Total:     3.6212

*** Psi4 exiting successfully. Buy a developer a beer!
