                               Psi4 1.3.2 release

  ==> Input File <==

--------------------------------------------------------------------------
#psi4
#
memory 32 gb

molecule  {
0 1
  O       -2.2266400     1.8867650    -0.0032170
  O       -3.7615920     0.4694410    -0.8736430
  N       -2.7859400    -1.6499310     0.5252010
  N        1.9794570     0.3457110    -0.2591130
  N        3.8978530     1.3104060     0.6447910
  N        4.0160410    -0.8946960    -0.1223760
  C       -0.6937690    -0.3717720     0.7299070
  C       -0.1993830    -0.6671070    -0.6806480
  C       -2.2227870    -0.3377670     0.8339710
  C        1.3098450    -0.8661090    -0.7166530
  C       -2.8261080     0.6730930    -0.1173080
  C        3.2319800     0.2459460     0.0175660
  H       -0.2748670     0.5765650     1.0765220
  H       -0.3365530    -1.1529370     1.4152070
  H       -0.7054620    -1.5600450    -1.0625750
  H       -0.4516800     0.1714660    -1.3406670
  H       -2.4873830     0.0287790     1.8430020
  H        1.5813230    -1.7317920    -0.0895090
  H        1.6134840    -1.1144100    -1.7484380
  H       -3.7640510    -1.5477110     0.2601170
  H       -2.7467370    -2.2384130     1.3547150
  H       -2.6964570     2.4686380    -0.6361950
  H        3.1370055     2.2560248     0.7249216
  H        4.7565350     1.5848730     0.1747350
  H        5.0073770    -0.7866830     0.0488590
  H        3.7976690    -1.4866510    -0.9131750
units angstrom
no_reorient  #important for SAPT in psi4, default
symmetry c1  #important for SAPT in psi4, default
}

set PROPERTIES_ORIGIN ["COM"]
properties('MP2/aug-cc-pvtz', properties = ['dipole'])
--------------------------------------------------------------------------

    Molecular point group: c1
  Charge       = 0
  Multiplicity = 1
  Basis Set: AUG-CC-PVTZ
    Blend: AUG-CC-PVTZ
  Basis Set: (AUG-CC-PVTZ AUX)
    Blend: AUG-CC-PVTZ-JKFIT

    Orbital Energies [Eh]
    ---------------------

    Doubly Occupied:

       1A    -20.609999     2A    -20.547115     3A    -15.587012
       4A    -15.583977     5A    -15.539468     6A    -15.514341
       7A    -11.382410     8A    -11.341212     9A    -11.270807
      10A    -11.237759    11A    -11.212392    12A    -11.201513
      13A     -1.455608    14A     -1.352327    15A     -1.290702
      16A     -1.189385    17A     -1.159810    18A     -1.147098
      19A     -1.046359    20A     -0.973555    21A     -0.891691
      22A     -0.818679    23A     -0.778794    24A     -0.762632
      25A     -0.715607    26A     -0.702286    27A     -0.697737
      28A     -0.686326    29A     -0.655719    30A     -0.633000
      31A     -0.618626    32A     -0.617277    33A     -0.600585
      34A     -0.583764    35A     -0.568145    36A     -0.546749
      37A     -0.540009    38A     -0.518453    39A     -0.491343
      40A     -0.477075    41A     -0.469340    42A     -0.467480
      43A     -0.440288    44A     -0.436443    45A     -0.397107
      46A     -0.390626    47A     -0.345805

  @DF-RHF Final Energy:  -603.09704408736843

   => Energetics <=

    Nuclear Repulsion Energy =            724.9129964910811168
    One-Electron Energy =               -2263.0312083329235975
    Two-Electron Energy =                 935.0211677544739359
    Total Energy =                       -603.0970440873684311
  Basis Set: (AUG-CC-PVTZ AUX)
    Blend: AUG-CC-PVTZ-RI
    Molecular point group: c1

    Geometry (in Angstrom), charge = 0, multiplicity = 1:

       Center              X                  Y                   Z               Mass
    ------------   -----------------  -----------------  -----------------  -----------------
         O           -2.188860791495     1.859236180183     0.002903376423    15.994914619570
         O           -3.723812791495     0.441912180183    -0.867522623577    15.994914619570
         N           -2.748160791495    -1.677459819817     0.531321376423    14.003074004430
         N            2.017236208505     0.318182180183    -0.252992623577    14.003074004430
         N            3.935632208505     1.282877180183     0.650911376423    14.003074004430
         N            4.053820208505    -0.922224819817    -0.116255623577    14.003074004430
         C           -0.655989791495    -0.399300819817     0.736027376423    12.000000000000
         C           -0.161603791495    -0.694635819817    -0.674527623577    12.000000000000
         C           -2.185007791495    -0.365295819817     0.840091376423    12.000000000000
         C            1.347624208505    -0.893637819817    -0.710532623577    12.000000000000
         C           -2.788328791495     0.645564180183    -0.111187623577    12.000000000000
         C            3.269759208505     0.218417180183     0.023686376423    12.000000000000
         H           -0.237087791495     0.549036180183     1.082642376423     1.007825032230
         H           -0.298773791495    -1.180465819817     1.421327376423     1.007825032230
         H           -0.667682791495    -1.587573819817    -1.056454623577     1.007825032230
         H           -0.413900791495     0.143937180183    -1.334546623577     1.007825032230
         H           -2.449603791495     0.001250180183     1.849122376423     1.007825032230
         H            1.619102208505    -1.759320819817    -0.083388623577     1.007825032230
         H            1.651263208505    -1.141938819817    -1.742317623577     1.007825032230
         H           -3.726271791495    -1.575239819817     0.266237376423     1.007825032230
         H           -2.708957791495    -2.265941819817     1.360835376423     1.007825032230
         H           -2.658677791495     2.441109180183    -0.630074623577     1.007825032230
         H            3.174784708505     2.228495980183     0.731041976423     1.007825032230
         H            4.794314208505     1.557344180183     0.180855376423     1.007825032230
         H            5.045156208505    -0.814211819817     0.054979376423     1.007825032230
         H            3.835448208505    -1.514179819817    -0.907054623577     1.007825032230

  Basis Set: AUG-CC-PVTZ
    Blend: AUG-CC-PVTZ
  Basis Set: (AUG-CC-PVTZ AUX)
    Blend: AUG-CC-PVTZ-JKFIT
	 Reference Energy          =    -603.0970440873684311 [Eh]
	 Singles Energy            =      -0.0000000000000000 [Eh]
	 Same-Spin Energy          =      -0.6215310757532915 [Eh]
	 Opposite-Spin Energy      =      -1.9577672646846556 [Eh]
	 Correlation Energy        =      -2.5792983404379468 [Eh]
	 Total Energy              =    -605.6763424278063894 [Eh]

	 ================> DF-SCS-MP2 Energies <==================
	-----------------------------------------------------------
	 SCS Same-Spin Scale       =       0.3333333333333333 [-]
	 SCS Opposite-Spin Scale   =       1.2000000000000000 [-]
	 SCS Same-Spin Energy      =      -0.2071770252510972 [Eh]
	 SCS Opposite-Spin Energy  =      -2.3493207176215867 [Eh]
	 SCS Correlation Energy    =      -2.5564977428726836 [Eh]
	 SCS Total Energy          =    -605.6535418302411244 [Eh]
	-----------------------------------------------------------

  Dipole Moment: [D]
     X:     3.3200      Y:     0.3761      Z:     0.3621     Total:     3.3608

*** Psi4 exiting successfully. Buy a developer a beer!
