                               Psi4 1.4a3.dev225

  ==> Input File <==

--------------------------------------------------------------------------
#psi4
#
memory 32 gb

molecule  {
0 1
  O       -2.2193770     1.8892330     0.0268230
  O       -3.7558620     0.4909310    -0.8718590
  N       -2.7972650    -1.6524490     0.5031070
  N        1.9782870     0.3250840    -0.2428510
  N        3.8986140     1.3191370     0.6232000
  N        4.0945810    -0.8301440    -0.2248910
  C       -0.6989470    -0.3870780     0.7275970
  C       -0.2062790    -0.6613260    -0.6876040
  C       -2.2281040    -0.3472380     0.8304820
  C        1.3017160    -0.8701890    -0.7302520
  C       -2.8235710     0.6804660    -0.1079880
  C        3.2531035     0.2397710     0.0254086
  H       -0.2749720     0.5529910     1.0902940
  H       -0.3479120    -1.1823300     1.4000480
  H       -0.7189380    -1.5432990    -1.0858630
  H       -0.4507980     0.1909300    -1.3325750
  H       -2.4926300     0.0060750     1.8439900
  H        1.5489680    -1.7592400    -0.1213590
  H        1.6102530    -1.0961940    -1.7629760
  H       -3.7667330    -1.5380950     0.2123320
  H       -2.7872020    -2.2442710     1.3309830
  H       -2.6822190     2.4830960    -0.6002000
  H        3.2771960     2.1225880     0.6500220
  H        4.7687340     1.5514780     0.1515250
  H        4.8021180    -0.9483820     0.4927870
  H        3.6261930    -1.7023420    -0.4398710
units angstrom
no_reorient  #important for SAPT in psi4, default
symmetry c1  #important for SAPT in psi4, default
}

set PROPERTIES_ORIGIN ["COM"]
properties('MP2/aug-cc-pvtz', properties = ['dipole'])
--------------------------------------------------------------------------

    Molecular point group: c1
  Charge       = 0
  Multiplicity = 1
  Basis Set: AUG-CC-PVTZ
    Blend: AUG-CC-PVTZ
  Basis Set: (AUG-CC-PVTZ AUX)
    Blend: AUG-CC-PVTZ-JKFIT

    Orbital Energies [Eh]
    ---------------------

    Doubly Occupied:

       1A    -20.610908     2A    -20.548210     3A    -15.584992
       4A    -15.571707     5A    -15.540645     6A    -15.516732
       7A    -11.383523     8A    -11.343530     9A    -11.272138
      10A    -11.241244    11A    -11.214050    12A    -11.203281
      13A     -1.456640    14A     -1.353469    15A     -1.297783
      16A     -1.190618    17A     -1.171045    18A     -1.155262
      19A     -1.047400    20A     -0.974692    21A     -0.893512
      22A     -0.823407    23A     -0.786142    24A     -0.765923
      25A     -0.717885    26A     -0.705776    27A     -0.702296
      28A     -0.692000    29A     -0.656869    30A     -0.635095
      31A     -0.623473    32A     -0.618620    33A     -0.609223
      34A     -0.597090    35A     -0.572414    36A     -0.557615
      37A     -0.542311    38A     -0.526157    39A     -0.492425
      40A     -0.478140    41A     -0.472510    42A     -0.468958
      43A     -0.441497    44A     -0.438518    45A     -0.398160
      46A     -0.391504    47A     -0.345429

  @DF-RHF Final Energy:  -603.12656016806864

   => Energetics <=

    Nuclear Repulsion Energy =            725.1963092379398859
    One-Electron Energy =               -2263.3841010696037301
    Two-Electron Energy =                 935.0612316635952084
    Total Energy =                       -603.1265601680686359
  Basis Set: (AUG-CC-PVTZ AUX)
    Blend: AUG-CC-PVTZ-RI
    Molecular point group: c1

    Geometry (in Angstrom), charge = 0, multiplicity = 1:

       Center              X                  Y                   Z               Mass
    ------------   -----------------  -----------------  -----------------  -----------------
         O           -2.186194624451     1.860305305287     0.036926693366    15.994914619570
         O           -3.722679624451     0.462003305287    -0.861755306634    15.994914619570
         N           -2.764082624451    -1.681376694713     0.513210693366    14.003074004430
         N            2.011469375549     0.296156305287    -0.232747306634    14.003074004430
         N            3.931796375549     1.290209305287     0.633303693366    14.003074004430
         N            4.127763375549    -0.859071694713    -0.214787306634    14.003074004430
         C           -0.665764624451    -0.416005694713     0.737700693366    12.000000000000
         C           -0.173096624451    -0.690253694713    -0.677500306634    12.000000000000
         C           -2.194921624451    -0.376165694713     0.840585693366    12.000000000000
         C            1.334898375549    -0.899116694713    -0.720148306634    12.000000000000
         C           -2.790388624451     0.651538305287    -0.097884306634    12.000000000000
         C            3.286285875549     0.210843305287     0.035512293366    12.000000000000
         H           -0.241789624451     0.524063305287     1.100397693366     1.007825032230
         H           -0.314729624451    -1.211257694713     1.410151693366     1.007825032230
         H           -0.685755624451    -1.572226694713    -1.075759306634     1.007825032230
         H           -0.417615624451     0.162002305287    -1.322471306634     1.007825032230
         H           -2.459447624451    -0.022852694713     1.854093693366     1.007825032230
         H            1.582150375549    -1.788167694713    -0.111255306634     1.007825032230
         H            1.643435375549    -1.125121694713    -1.752872306634     1.007825032230
         H           -3.733550624451    -1.567022694713     0.222435693366     1.007825032230
         H           -2.754019624451    -2.273198694713     1.341086693366     1.007825032230
         H           -2.649036624451     2.454168305287    -0.590096306634     1.007825032230
         H            3.310378375549     2.093660305287     0.660125693366     1.007825032230
         H            4.801916375549     1.522550305287     0.161628693366     1.007825032230
         H            4.835300375549    -0.977309694713     0.502890693366     1.007825032230
         H            3.659375375549    -1.731269694713    -0.429767306634     1.007825032230

  Basis Set: AUG-CC-PVTZ
    Blend: AUG-CC-PVTZ
  Basis Set: (AUG-CC-PVTZ AUX)
    Blend: AUG-CC-PVTZ-JKFIT
	 Reference Energy          =    -603.1265601680686359 [Eh]
	 Singles Energy            =      -0.0000000000000000 [Eh]
	 Same-Spin Energy          =      -0.6204900065143496 [Eh]
	 Opposite-Spin Energy      =      -1.9542014990383869 [Eh]
	 Correlation Energy        =      -2.5746915055527366 [Eh]
	 Total Energy              =    -605.7012516736214138 [Eh]

	 ================> DF-SCS-MP2 Energies <==================
	-----------------------------------------------------------
	 SCS Same-Spin Scale       =       0.3333333333333333 [-]
	 SCS Opposite-Spin Scale   =       1.2000000000000000 [-]
	 SCS Same-Spin Energy      =      -0.2068300021714499 [Eh]
	 SCS Opposite-Spin Energy  =      -2.3450417988460641 [Eh]
	 SCS Correlation Energy    =      -2.5518718010175139 [Eh]
	 SCS Total Energy          =    -605.6784319690862048 [Eh]
	-----------------------------------------------------------

  Dipole Moment: [D]
     X:     2.6855      Y:    -0.2867      Z:     1.7190     Total:     3.2014

*** Psi4 exiting successfully. Buy a developer a beer!
