                               Psi4 1.3.2 release

  ==> Input File <==

--------------------------------------------------------------------------
#psi4
#
memory 32 gb

molecule  {
0 1
  O       -2.2266400     1.8867650    -0.0032170
  O       -3.7615920     0.4694410    -0.8736430
  N       -2.7859400    -1.6499310     0.5252010
  N        1.9905932     0.3322918    -0.2405771
  N        3.8978530     1.3104060     0.6447910
  N        4.0160410    -0.8946960    -0.1223760
  C       -0.6937690    -0.3717720     0.7299070
  C       -0.1993830    -0.6671070    -0.6806480
  C       -2.2227870    -0.3377670     0.8339710
  C        1.3098450    -0.8661090    -0.7166530
  C       -2.8261080     0.6730930    -0.1173080
  C        3.2319800     0.2459460     0.0175660
  H       -0.2748670     0.5765650     1.0765220
  H       -0.3365530    -1.1529370     1.4152070
  H       -0.7054620    -1.5600450    -1.0625750
  H       -0.4516800     0.1714660    -1.3406670
  H       -2.4873830     0.0287790     1.8430020
  H        1.5813230    -1.7317920    -0.0895090
  H        1.6134840    -1.1144100    -1.7484380
  H       -3.7640510    -1.5477110     0.2601170
  H       -2.7467370    -2.2384130     1.3547150
  H       -2.6964570     2.4686380    -0.6361950
  H        3.2621090     2.1005400     0.7117460
  H        4.7565350     1.5848730     0.1747350
  H        5.0073770    -0.7866830     0.0488590
  H        3.7976690    -1.4866510    -0.9131750
units angstrom
no_reorient  #important for SAPT in psi4, default
symmetry c1  #important for SAPT in psi4, default
}

set PROPERTIES_ORIGIN ["COM"]
properties('MP2/aug-cc-pvtz', properties = ['dipole'])
--------------------------------------------------------------------------

    Molecular point group: c1
  Charge       = 0
  Multiplicity = 1
  Basis Set: AUG-CC-PVTZ
    Blend: AUG-CC-PVTZ
  Basis Set: (AUG-CC-PVTZ AUX)
    Blend: AUG-CC-PVTZ-JKFIT

    Orbital Energies [Eh]
    ---------------------

    Doubly Occupied:

       1A    -20.610166     2A    -20.547354     3A    -15.581395
       4A    -15.570222     5A    -15.539786     6A    -15.513453
       7A    -11.382645     8A    -11.338112     9A    -11.271132
      10A    -11.239636    11A    -11.212875    12A    -11.202560
      13A     -1.455805    14A     -1.352541    15A     -1.296732
      16A     -1.189738    17A     -1.166387    18A     -1.159723
      19A     -1.048227    20A     -0.975563    21A     -0.893748
      22A     -0.822056    23A     -0.783673    24A     -0.765295
      25A     -0.717900    26A     -0.702962    27A     -0.700650
      28A     -0.689645    29A     -0.656055    30A     -0.638031
      31A     -0.632331    32A     -0.618020    33A     -0.608173
      34A     -0.593870    35A     -0.569672    36A     -0.551482
      37A     -0.541600    38A     -0.522748    39A     -0.492112
      40A     -0.477545    41A     -0.471050    42A     -0.468255
      43A     -0.440632    44A     -0.437608    45A     -0.396844
      46A     -0.390620    47A     -0.349128

  @DF-RHF Final Energy:  -603.12718943401660

   => Energetics <=

    Nuclear Repulsion Energy =            726.0226557932155629
    One-Electron Energy =               -2265.1281834029000493
    Two-Electron Energy =                 935.9783381756678864
    Total Energy =                       -603.1271894340166000
  Basis Set: (AUG-CC-PVTZ AUX)
    Blend: AUG-CC-PVTZ-RI
    Molecular point group: c1

    Geometry (in Angstrom), charge = 0, multiplicity = 1:

       Center              X                  Y                   Z               Mass
    ------------   -----------------  -----------------  -----------------  -----------------
         O           -2.190480576444     1.861215435870     0.001488876914    15.994914619570
         O           -3.725432576444     0.443891435870    -0.868937123086    15.994914619570
         N           -2.749780576444    -1.675480564130     0.529906876914    14.003074004430
         N            2.026752623556     0.306742235870    -0.235871223086    14.003074004430
         N            3.934012423556     1.284856435870     0.649496876914    14.003074004430
         N            4.052200423556    -0.920245564130    -0.117670123086    14.003074004430
         C           -0.657609576444    -0.397321564130     0.734612876914    12.000000000000
         C           -0.163223576444    -0.692656564130    -0.675942123086    12.000000000000
         C           -2.186627576444    -0.363316564130     0.838676876914    12.000000000000
         C            1.346004423556    -0.891658564130    -0.711947123086    12.000000000000
         C           -2.789948576444     0.647543435870    -0.112602123086    12.000000000000
         C            3.268139423556     0.220396435870     0.022271876914    12.000000000000
         H           -0.238707576444     0.551015435870     1.081227876914     1.007825032230
         H           -0.300393576444    -1.178486564130     1.419912876914     1.007825032230
         H           -0.669302576444    -1.585594564130    -1.057869123086     1.007825032230
         H           -0.415520576444     0.145916435870    -1.335961123086     1.007825032230
         H           -2.451223576444     0.003229435870     1.847707876914     1.007825032230
         H            1.617482423556    -1.757341564130    -0.084803123086     1.007825032230
         H            1.649643423556    -1.139959564130    -1.743732123086     1.007825032230
         H           -3.727891576444    -1.573260564130     0.264822876914     1.007825032230
         H           -2.710577576444    -2.263962564130     1.359420876914     1.007825032230
         H           -2.660297576444     2.443088435870    -0.631489123086     1.007825032230
         H            3.298268423556     2.074990435870     0.716451876914     1.007825032230
         H            4.792694423556     1.559323435870     0.179440876914     1.007825032230
         H            5.043536423556    -0.812232564130     0.053564876914     1.007825032230
         H            3.833828423556    -1.512200564130    -0.908469123086     1.007825032230

  Basis Set: AUG-CC-PVTZ
    Blend: AUG-CC-PVTZ
  Basis Set: (AUG-CC-PVTZ AUX)
    Blend: AUG-CC-PVTZ-JKFIT
	 Reference Energy          =    -603.1271894340166000 [Eh]
	 Singles Energy            =      -0.0000000000000000 [Eh]
	 Same-Spin Energy          =      -0.6199696520191733 [Eh]
	 Opposite-Spin Energy      =      -1.9531009831725084 [Eh]
	 Correlation Energy        =      -2.5730706351916819 [Eh]
	 Total Energy              =    -605.7002600692082979 [Eh]

	 ================> DF-SCS-MP2 Energies <==================
	-----------------------------------------------------------
	 SCS Same-Spin Scale       =       0.3333333333333333 [-]
	 SCS Opposite-Spin Scale   =       1.2000000000000000 [-]
	 SCS Same-Spin Energy      =      -0.2066565506730578 [Eh]
	 SCS Opposite-Spin Energy  =      -2.3437211798070101 [Eh]
	 SCS Correlation Energy    =      -2.5503777304800677 [Eh]
	 SCS Total Energy          =    -605.6775671644966224 [Eh]
	-----------------------------------------------------------

  Dipole Moment: [D]
     X:     3.3333      Y:     0.3080      Z:     0.2968     Total:     3.3606

*** Psi4 exiting successfully. Buy a developer a beer!
