                               Psi4 1.3.2 release

  ==> Input File <==

--------------------------------------------------------------------------
#psi4
#
memory 32 gb

molecule  {
0 1
  O       -2.2266400     1.8867650    -0.0032170
  O       -3.7615920     0.4694410    -0.8736430
  N       -2.7859400    -1.6499310     0.5252010
  N        1.9794570     0.3457110    -0.2591130
  N        3.8978530     1.3104060     0.6447910
  N        4.0160410    -0.8946960    -0.1223760
  C       -0.6937690    -0.3717720     0.7299070
  C       -0.1993830    -0.6671070    -0.6806480
  C       -2.2227870    -0.3377670     0.8339710
  C        1.3098450    -0.8661090    -0.7166530
  C       -2.8261080     0.6730930    -0.1173080
  C        3.3562655     0.1691755     0.0331137
  H       -0.2748670     0.5765650     1.0765220
  H       -0.3365530    -1.1529370     1.4152070
  H       -0.7054620    -1.5600450    -1.0625750
  H       -0.4516800     0.1714660    -1.3406670
  H       -2.4873830     0.0287790     1.8430020
  H        1.5813230    -1.7317920    -0.0895090
  H        1.6134840    -1.1144100    -1.7484380
  H       -3.7640510    -1.5477110     0.2601170
  H       -2.7467370    -2.2384130     1.3547150
  H       -2.6964570     2.4686380    -0.6361950
  H        3.2621090     2.1005400     0.7117460
  H        4.7565350     1.5848730     0.1747350
  H        5.0073770    -0.7866830     0.0488590
  H        3.7976690    -1.4866510    -0.9131750
units angstrom
no_reorient  #important for SAPT in psi4, default
symmetry c1  #important for SAPT in psi4, default
}

set PROPERTIES_ORIGIN ["COM"]
properties('MP2/aug-cc-pvtz', properties = ['dipole'])
--------------------------------------------------------------------------

    Molecular point group: c1
  Charge       = 0
  Multiplicity = 1
  Basis Set: AUG-CC-PVTZ
    Blend: AUG-CC-PVTZ
  Basis Set: (AUG-CC-PVTZ AUX)
    Blend: AUG-CC-PVTZ-JKFIT

    Orbital Energies [Eh]
    ---------------------

    Doubly Occupied:

       1A    -20.605627     2A    -20.542940     3A    -15.609630
       4A    -15.577799     5A    -15.535362     6A    -15.502061
       7A    -11.378133     8A    -11.350962     9A    -11.265824
      10A    -11.224425    11A    -11.205646    12A    -11.193907
      13A     -1.451293    14A     -1.348127    15A     -1.330963
      16A     -1.192469    17A     -1.184855    18A     -1.124339
      19A     -1.032843    20A     -0.959779    21A     -0.882667
      22A     -0.836865    23A     -0.790075    24A     -0.759986
      25A     -0.754416    26A     -0.701077    27A     -0.696809
      28A     -0.684638    29A     -0.666978    30A     -0.650928
      31A     -0.621823    32A     -0.613422    33A     -0.596611
      34A     -0.584660    35A     -0.567959    36A     -0.557169
      37A     -0.531802    38A     -0.518154    39A     -0.483996
      40A     -0.471685    41A     -0.464572    42A     -0.461986
      43A     -0.438921    44A     -0.434907    45A     -0.389601
      46A     -0.380866    47A     -0.311941

  @DF-RHF Final Energy:  -603.08797780072564

   => Energetics <=

    Nuclear Repulsion Energy =            724.9287332261361598
    One-Electron Energy =               -2263.0904245047859149
    Two-Electron Energy =                 935.0737134779242297
    Total Energy =                       -603.0879778007256391
  Basis Set: (AUG-CC-PVTZ AUX)
    Blend: AUG-CC-PVTZ-RI
    Molecular point group: c1

    Geometry (in Angstrom), charge = 0, multiplicity = 1:

       Center              X                  Y                   Z               Mass
    ------------   -----------------  -----------------  -----------------  -----------------
         O           -2.198150854510     1.865427307051     0.001908074415    15.994914619570
         O           -3.733102854510     0.448103307051    -0.868517925585    15.994914619570
         N           -2.757450854510    -1.671268692949     0.530326074415    14.003074004430
         N            2.007946145490     0.324373307051    -0.253987925585    14.003074004430
         N            3.926342145490     1.289068307051     0.649916074415    14.003074004430
         N            4.044530145490    -0.916033692949    -0.117250925585    14.003074004430
         C           -0.665279854510    -0.393109692949     0.735032074415    12.000000000000
         C           -0.170893854510    -0.688444692949    -0.675522925585    12.000000000000
         C           -2.194297854510    -0.359104692949     0.839096074415    12.000000000000
         C            1.338334145490    -0.887446692949    -0.711527925585    12.000000000000
         C           -2.797618854510     0.651755307051    -0.112182925585    12.000000000000
         C            3.384754645490     0.147837807051     0.038238774415    12.000000000000
         H           -0.246377854510     0.555227307051     1.081647074415     1.007825032230
         H           -0.308063854510    -1.174274692949     1.420332074415     1.007825032230
         H           -0.676972854510    -1.581382692949    -1.057449925585     1.007825032230
         H           -0.423190854510     0.150128307051    -1.335541925585     1.007825032230
         H           -2.458893854510     0.007441307051     1.848127074415     1.007825032230
         H            1.609812145490    -1.753129692949    -0.084383925585     1.007825032230
         H            1.641973145490    -1.135747692949    -1.743312925585     1.007825032230
         H           -3.735561854510    -1.569048692949     0.265242074415     1.007825032230
         H           -2.718247854510    -2.259750692949     1.359840074415     1.007825032230
         H           -2.667967854510     2.447300307051    -0.631069925585     1.007825032230
         H            3.290598145490     2.079202307051     0.716871074415     1.007825032230
         H            4.785024145490     1.563535307051     0.179860074415     1.007825032230
         H            5.035866145490    -0.808020692949     0.053984074415     1.007825032230
         H            3.826158145490    -1.507988692949    -0.908049925585     1.007825032230

  Basis Set: AUG-CC-PVTZ
    Blend: AUG-CC-PVTZ
  Basis Set: (AUG-CC-PVTZ AUX)
    Blend: AUG-CC-PVTZ-JKFIT
	 Reference Energy          =    -603.0879778007256391 [Eh]
	 Singles Energy            =      -0.0000000000000000 [Eh]
	 Same-Spin Energy          =      -0.6229080813655419 [Eh]
	 Opposite-Spin Energy      =      -1.9569343191216637 [Eh]
	 Correlation Energy        =      -2.5798424004872054 [Eh]
	 Total Energy              =    -605.6678202012128622 [Eh]

	 ================> DF-SCS-MP2 Energies <==================
	-----------------------------------------------------------
	 SCS Same-Spin Scale       =       0.3333333333333333 [-]
	 SCS Opposite-Spin Scale   =       1.2000000000000000 [-]
	 SCS Same-Spin Energy      =      -0.2076360271218473 [Eh]
	 SCS Opposite-Spin Energy  =      -2.3483211829459965 [Eh]
	 SCS Correlation Energy    =      -2.5559572100678438 [Eh]
	 SCS Total Energy          =    -605.6439350107934843 [Eh]
	-----------------------------------------------------------

  Dipole Moment: [D]
     X:     4.4687      Y:    -0.1230      Z:     0.4568     Total:     4.4937

*** Psi4 exiting successfully. Buy a developer a beer!
