                               Psi4 1.4a3.dev225

  ==> Input File <==

--------------------------------------------------------------------------
#psi4
#
memory 32 gb

molecule  {
0 1
  O       -2.2193770     1.8892330     0.0268230
  O       -3.7558620     0.4909310    -0.8718590
  N       -2.7972650    -1.6524490     0.5031070
  N        1.9782870     0.3250840    -0.2428510
  N        3.8986140     1.3191370     0.6232000
  N        4.0945810    -0.8301440    -0.2248910
  C       -0.6989470    -0.3870780     0.7275970
  C       -0.2062790    -0.6613260    -0.6876040
  C       -2.2281040    -0.3472380     0.8304820
  C        1.3017160    -0.8701890    -0.7302520
  C       -2.8235710     0.6804660    -0.1079880
  C        3.2823979     0.2378106     0.0315730
  H       -0.2749720     0.5529910     1.0902940
  H       -0.3479120    -1.1823300     1.4000480
  H       -0.7189380    -1.5432990    -1.0858630
  H       -0.4507980     0.1909300    -1.3325750
  H       -2.4926300     0.0060750     1.8439900
  H        1.5489680    -1.7592400    -0.1213590
  H        1.6102530    -1.0961940    -1.7629760
  H       -3.7667330    -1.5380950     0.2123320
  H       -2.7872020    -2.2442710     1.3309830
  H       -2.6822190     2.4830960    -0.6002000
  H        3.2771960     2.1225880     0.6500220
  H        4.7687340     1.5514780     0.1515250
  H        4.8021180    -0.9483820     0.4927870
  H        3.6261930    -1.7023420    -0.4398710
units angstrom
no_reorient  #important for SAPT in psi4, default
symmetry c1  #important for SAPT in psi4, default
}

set PROPERTIES_ORIGIN ["COM"]
properties('MP2/aug-cc-pvtz', properties = ['dipole'])
--------------------------------------------------------------------------

    Molecular point group: c1
  Charge       = 0
  Multiplicity = 1
  Basis Set: AUG-CC-PVTZ
    Blend: AUG-CC-PVTZ
  Basis Set: (AUG-CC-PVTZ AUX)
    Blend: AUG-CC-PVTZ-JKFIT

    Orbital Energies [Eh]
    ---------------------

    Doubly Occupied:

       1A    -20.609951     2A    -20.547259     3A    -15.588673
       4A    -15.574914     5A    -15.539658     6A    -15.514026
       7A    -11.382548     8A    -11.346275     9A    -11.270957
      10A    -11.238125    11A    -11.212412    12A    -11.201445
      13A     -1.455681    14A     -1.352526    15A     -1.302416
      16A     -1.189531    17A     -1.178885    18A     -1.147379
      19A     -1.044041    20A     -0.971363    21A     -0.890937
      22A     -0.824446    23A     -0.788653    24A     -0.765159
      25A     -0.721179    26A     -0.708232    27A     -0.701597
      28A     -0.691330    29A     -0.655821    30A     -0.634590
      31A     -0.629685    32A     -0.617732    33A     -0.606729
      34A     -0.595081    35A     -0.571705    36A     -0.558140
      37A     -0.540292    38A     -0.525728    39A     -0.490706
      40A     -0.476909    41A     -0.471040    42A     -0.467463
      43A     -0.441391    44A     -0.440358    45A     -0.395430
      46A     -0.388864    47A     -0.336952

  @DF-RHF Final Energy:  -603.12192988272182

   => Energetics <=

    Nuclear Repulsion Energy =            724.9488758577780345
    One-Electron Energy =               -2262.9331896500020775
    Two-Electron Energy =                 934.8623839095021140
    Total Energy =                       -603.1219298827218154
  Basis Set: (AUG-CC-PVTZ AUX)
    Blend: AUG-CC-PVTZ-RI
    Molecular point group: c1

    Geometry (in Angstrom), charge = 0, multiplicity = 1:

       Center              X                  Y                   Z               Mass
    ------------   -----------------  -----------------  -----------------  -----------------
         O           -2.188213632071     1.860440418569     0.036501835012    15.994914619570
         O           -3.724698632071     0.462138418569    -0.862180164988    15.994914619570
         N           -2.766101632071    -1.681241581431     0.512785835012    14.003074004430
         N            2.009450367929     0.296291418569    -0.233172164988    14.003074004430
         N            3.929777367929     1.290344418569     0.632878835012    14.003074004430
         N            4.125744367929    -0.858936581431    -0.215212164988    14.003074004430
         C           -0.667783632071    -0.415870581431     0.737275835012    12.000000000000
         C           -0.175115632071    -0.690118581431    -0.677925164988    12.000000000000
         C           -2.196940632071    -0.376030581431     0.840160835012    12.000000000000
         C            1.332879367929    -0.898981581431    -0.720573164988    12.000000000000
         C           -2.792407632071     0.651673418569    -0.098309164988    12.000000000000
         C            3.313561267929     0.209018018569     0.041251835012    12.000000000000
         H           -0.243808632071     0.524198418569     1.099972835012     1.007825032230
         H           -0.316748632071    -1.211122581431     1.409726835012     1.007825032230
         H           -0.687774632071    -1.572091581431    -1.076184164988     1.007825032230
         H           -0.419634632071     0.162137418569    -1.322896164988     1.007825032230
         H           -2.461466632071    -0.022717581431     1.853668835012     1.007825032230
         H            1.580131367929    -1.788032581431    -0.111680164988     1.007825032230
         H            1.641416367929    -1.124986581431    -1.753297164988     1.007825032230
         H           -3.735569632071    -1.566887581431     0.222010835012     1.007825032230
         H           -2.756038632071    -2.273063581431     1.340661835012     1.007825032230
         H           -2.651055632071     2.454303418569    -0.590521164988     1.007825032230
         H            3.308359367929     2.093795418569     0.659700835012     1.007825032230
         H            4.799897367929     1.522685418569     0.161203835012     1.007825032230
         H            4.833281367929    -0.977174581431     0.502465835012     1.007825032230
         H            3.657356367929    -1.731134581431    -0.430192164988     1.007825032230

  Basis Set: AUG-CC-PVTZ
    Blend: AUG-CC-PVTZ
  Basis Set: (AUG-CC-PVTZ AUX)
    Blend: AUG-CC-PVTZ-JKFIT
	 Reference Energy          =    -603.1219298827218154 [Eh]
	 Singles Energy            =      -0.0000000000000000 [Eh]
	 Same-Spin Energy          =      -0.6210810844550567 [Eh]
	 Opposite-Spin Energy      =      -1.9548723522927924 [Eh]
	 Correlation Energy        =      -2.5759534367478492 [Eh]
	 Total Energy              =    -605.6978833194696108 [Eh]

	 ================> DF-SCS-MP2 Energies <==================
	-----------------------------------------------------------
	 SCS Same-Spin Scale       =       0.3333333333333333 [-]
	 SCS Opposite-Spin Scale   =       1.2000000000000000 [-]
	 SCS Same-Spin Energy      =      -0.2070270281516856 [Eh]
	 SCS Opposite-Spin Energy  =      -2.3458468227513509 [Eh]
	 SCS Correlation Energy    =      -2.5528738509030364 [Eh]
	 SCS Total Energy          =    -605.6748037336247990 [Eh]
	-----------------------------------------------------------

  Dipole Moment: [D]
     X:     2.9339      Y:    -0.2736      Z:     1.7679     Total:     3.4363

*** Psi4 exiting successfully. Buy a developer a beer!
