                               Psi4 1.3.2 release

  ==> Input File <==

--------------------------------------------------------------------------
#psi4
#
memory 32 gb

molecule  {
0 1
  O       -2.2266400     1.8867650    -0.0032170
  O       -3.7615920     0.4694410    -0.8736430
  N       -2.7859400    -1.6499310     0.5252010
  N        1.9084794     0.4183395    -0.3730547
  N        3.8978530     1.3104060     0.6447910
  N        4.0160410    -0.8946960    -0.1223760
  C       -0.6937690    -0.3717720     0.7299070
  C       -0.1993830    -0.6671070    -0.6806480
  C       -2.2227870    -0.3377670     0.8339710
  C        1.3098450    -0.8661090    -0.7166530
  C       -2.8261080     0.6730930    -0.1173080
  C        3.2319800     0.2459460     0.0175660
  H       -0.2748670     0.5765650     1.0765220
  H       -0.3365530    -1.1529370     1.4152070
  H       -0.7054620    -1.5600450    -1.0625750
  H       -0.4516800     0.1714660    -1.3406670
  H       -2.4873830     0.0287790     1.8430020
  H        1.5813230    -1.7317920    -0.0895090
  H        1.6134840    -1.1144100    -1.7484380
  H       -3.7640510    -1.5477110     0.2601170
  H       -2.7467370    -2.2384130     1.3547150
  H       -2.6964570     2.4686380    -0.6361950
  H        3.2621090     2.1005400     0.7117460
  H        4.7565350     1.5848730     0.1747350
  H        5.0073770    -0.7866830     0.0488590
  H        3.7976690    -1.4866510    -0.9131750
units angstrom
no_reorient  #important for SAPT in psi4, default
symmetry c1  #important for SAPT in psi4, default
}

set PROPERTIES_ORIGIN ["COM"]
properties('MP2/aug-cc-pvtz', properties = ['dipole'])
--------------------------------------------------------------------------

    Molecular point group: c1
  Charge       = 0
  Multiplicity = 1
  Basis Set: AUG-CC-PVTZ
    Blend: AUG-CC-PVTZ
  Basis Set: (AUG-CC-PVTZ AUX)
    Blend: AUG-CC-PVTZ-JKFIT

    Orbital Energies [Eh]
    ---------------------

    Doubly Occupied:

       1A    -20.607704     2A    -20.544999     3A    -15.596154
       4A    -15.580996     5A    -15.537509     6A    -15.525339
       7A    -11.380298     8A    -11.362556     9A    -11.268670
      10A    -11.231641    11A    -11.209689    12A    -11.196497
      13A     -1.453372    14A     -1.350164    15A     -1.290414
      16A     -1.187327    17A     -1.175516    18A     -1.144206
      19A     -1.038694    20A     -0.965110    21A     -0.885298
      22A     -0.821413    23A     -0.787364    24A     -0.761751
      25A     -0.727649    26A     -0.703731    27A     -0.699420
      28A     -0.689226    29A     -0.653997    30A     -0.639585
      31A     -0.628961    32A     -0.615657    33A     -0.601181
      34A     -0.589506    35A     -0.566873    36A     -0.547478
      37A     -0.539297    38A     -0.513798    39A     -0.487774
      40A     -0.474675    41A     -0.466489    42A     -0.460414
      43A     -0.440577    44A     -0.437537    45A     -0.407941
      46A     -0.390064    47A     -0.331213

  @DF-RHF Final Energy:  -603.10274502738662

   => Energetics <=

    Nuclear Repulsion Energy =            724.0778251431983108
    One-Electron Energy =               -2261.3296900345194445
    Two-Electron Energy =                 934.1491198639344020
    Total Energy =                       -603.1027450273866179
  Basis Set: (AUG-CC-PVTZ AUX)
    Blend: AUG-CC-PVTZ-RI
    Molecular point group: c1

    Geometry (in Angstrom), charge = 0, multiplicity = 1:

       Center              X                  Y                   Z               Mass
    ------------   -----------------  -----------------  -----------------  -----------------
         O           -2.183876506880     1.854294979179     0.012143496308    15.994914619570
         O           -3.718828506880     0.436970979179    -0.858282503692    15.994914619570
         N           -2.743176506880    -1.682401020821     0.540561496308    14.003074004430
         N            1.951242893120     0.385869479179    -0.357694203692    14.003074004430
         N            3.940616493120     1.277935979179     0.660151496308    14.003074004430
         N            4.058804493120    -0.927166020821    -0.107015503692    14.003074004430
         C           -0.651005506880    -0.404242020821     0.745267496308    12.000000000000
         C           -0.156619506880    -0.699577020821    -0.665287503692    12.000000000000
         C           -2.180023506880    -0.370237020821     0.849331496308    12.000000000000
         C            1.352608493120    -0.898579020821    -0.701292503692    12.000000000000
         C           -2.783344506880     0.640622979179    -0.101947503692    12.000000000000
         C            3.274743493120     0.213475979179     0.032926496308    12.000000000000
         H           -0.232103506880     0.544094979179     1.091882496308     1.007825032230
         H           -0.293789506880    -1.185407020821     1.430567496308     1.007825032230
         H           -0.662698506880    -1.592515020821    -1.047214503692     1.007825032230
         H           -0.408916506880     0.138995979179    -1.325306503692     1.007825032230
         H           -2.444619506880    -0.003691020821     1.858362496308     1.007825032230
         H            1.624086493120    -1.764262020821    -0.074148503692     1.007825032230
         H            1.656247493120    -1.146880020821    -1.733077503692     1.007825032230
         H           -3.721287506880    -1.580181020821     0.275477496308     1.007825032230
         H           -2.703973506880    -2.270883020821     1.370075496308     1.007825032230
         H           -2.653693506880     2.436167979179    -0.620834503692     1.007825032230
         H            3.304872493120     2.068069979179     0.727106496308     1.007825032230
         H            4.799298493120     1.552402979179     0.190095496308     1.007825032230
         H            5.050140493120    -0.819153020821     0.064219496308     1.007825032230
         H            3.840432493120    -1.519121020821    -0.897814503692     1.007825032230

  Basis Set: AUG-CC-PVTZ
    Blend: AUG-CC-PVTZ
  Basis Set: (AUG-CC-PVTZ AUX)
    Blend: AUG-CC-PVTZ-JKFIT
	 Reference Energy          =    -603.1027450273866179 [Eh]
	 Singles Energy            =      -0.0000000000000000 [Eh]
	 Same-Spin Energy          =      -0.6226355964485748 [Eh]
	 Opposite-Spin Energy      =      -1.9588999062758918 [Eh]
	 Correlation Energy        =      -2.5815355027244666 [Eh]
	 Total Energy              =    -605.6842805301110957 [Eh]

	 ================> DF-SCS-MP2 Energies <==================
	-----------------------------------------------------------
	 SCS Same-Spin Scale       =       0.3333333333333333 [-]
	 SCS Opposite-Spin Scale   =       1.2000000000000000 [-]
	 SCS Same-Spin Energy      =      -0.2075451988161916 [Eh]
	 SCS Opposite-Spin Energy  =      -2.3506798875310699 [Eh]
	 SCS Correlation Energy    =      -2.5582250863472615 [Eh]
	 SCS Total Energy          =    -605.6609701137339243 [Eh]
	-----------------------------------------------------------

  Dipole Moment: [D]
     X:     3.8663      Y:     0.1921      Z:     0.6170     Total:     3.9199

*** Psi4 exiting successfully. Buy a developer a beer!
