                               Psi4 1.3.2 release

  ==> Input File <==

--------------------------------------------------------------------------
#psi4
#
memory 32 gb

molecule  {
0 1
  O       -2.2266400     1.8867650    -0.0032170
  O       -3.7615920     0.4694410    -0.8736430
  N       -2.7859400    -1.6499310     0.5252010
  N        1.9329073     0.3956574    -0.3345932
  N        3.8978530     1.3104060     0.6447910
  N        4.0160410    -0.8946960    -0.1223760
  C       -0.6937690    -0.3717720     0.7299070
  C       -0.1993830    -0.6671070    -0.6806480
  C       -2.2227870    -0.3377670     0.8339710
  C        1.3098450    -0.8661090    -0.7166530
  C       -2.8261080     0.6730930    -0.1173080
  C        3.2319800     0.2459460     0.0175660
  H       -0.2748670     0.5765650     1.0765220
  H       -0.3365530    -1.1529370     1.4152070
  H       -0.7054620    -1.5600450    -1.0625750
  H       -0.4516800     0.1714660    -1.3406670
  H       -2.4873830     0.0287790     1.8430020
  H        1.5813230    -1.7317920    -0.0895090
  H        1.6134840    -1.1144100    -1.7484380
  H       -3.7640510    -1.5477110     0.2601170
  H       -2.7467370    -2.2384130     1.3547150
  H       -2.6964570     2.4686380    -0.6361950
  H        3.2621090     2.1005400     0.7117460
  H        4.7565350     1.5848730     0.1747350
  H        5.0073770    -0.7866830     0.0488590
  H        3.7976690    -1.4866510    -0.9131750
units angstrom
no_reorient  #important for SAPT in psi4, default
symmetry c1  #important for SAPT in psi4, default
}

set PROPERTIES_ORIGIN ["COM"]
properties('MP2/aug-cc-pvtz', properties = ['dipole'])
--------------------------------------------------------------------------

    Molecular point group: c1
  Charge       = 0
  Multiplicity = 1
  Basis Set: AUG-CC-PVTZ
    Blend: AUG-CC-PVTZ
  Basis Set: (AUG-CC-PVTZ AUX)
    Blend: AUG-CC-PVTZ-JKFIT

    Orbital Energies [Eh]
    ---------------------

    Doubly Occupied:

       1A    -20.608413     2A    -20.545682     3A    -15.591969
       4A    -15.577789     5A    -15.538178     6A    -15.522318
       7A    -11.380979     8A    -11.355741     9A    -11.269390
      10A    -11.233869    11A    -11.210624    12A    -11.198251
      13A     -1.454075    14A     -1.350852    15A     -1.291292
      16A     -1.188035    17A     -1.172849    18A     -1.149030
      19A     -1.041517    20A     -0.968308    21A     -0.887780
      22A     -0.820888    23A     -0.786887    24A     -0.762900
      25A     -0.724736    26A     -0.702974    27A     -0.699897
      28A     -0.689597    29A     -0.654625    30A     -0.638849
      31A     -0.629932    32A     -0.616345    33A     -0.603436
      34A     -0.590815    35A     -0.567691    36A     -0.548495
      37A     -0.539764    38A     -0.516521    39A     -0.489074
      40A     -0.475550    41A     -0.467246    42A     -0.463173
      43A     -0.440473    44A     -0.438467    45A     -0.404481
      46A     -0.390668    47A     -0.336685

  @DF-RHF Final Energy:  -603.11345622217675

   => Energetics <=

    Nuclear Repulsion Energy =            724.6327668643365314
    One-Electron Energy =               -2262.4182234088980294
    Two-Electron Energy =                 934.6720003223846334
    Total Energy =                       -603.1134562221767510
  Basis Set: (AUG-CC-PVTZ AUX)
    Blend: AUG-CC-PVTZ-RI
    Molecular point group: c1

    Geometry (in Angstrom), charge = 0, multiplicity = 1:

       Center              X                  Y                   Z               Mass
    ------------   -----------------  -----------------  -----------------  -----------------
         O           -2.185841140729     1.856119205634     0.009050198695    15.994914619570
         O           -3.720793140729     0.438795205634    -0.861375801305    15.994914619570
         N           -2.745141140729    -1.680576794366     0.537468198695    14.003074004430
         N            1.973706159271     0.365011605634    -0.322326001305    14.003074004430
         N            3.938651859271     1.279760205634     0.657058198695    14.003074004430
         N            4.056839859271    -0.925341794366    -0.110108801305    14.003074004430
         C           -0.652970140729    -0.402417794366     0.742174198695    12.000000000000
         C           -0.158584140729    -0.697752794366    -0.668380801305    12.000000000000
         C           -2.181988140729    -0.368412794366     0.846238198695    12.000000000000
         C            1.350643859271    -0.896754794366    -0.704385801305    12.000000000000
         C           -2.785309140729     0.642447205634    -0.105040801305    12.000000000000
         C            3.272778859271     0.215300205634     0.029833198695    12.000000000000
         H           -0.234068140729     0.545919205634     1.088789198695     1.007825032230
         H           -0.295754140729    -1.183582794366     1.427474198695     1.007825032230
         H           -0.664663140729    -1.590690794366    -1.050307801305     1.007825032230
         H           -0.410881140729     0.140820205634    -1.328399801305     1.007825032230
         H           -2.446584140729    -0.001866794366     1.855269198695     1.007825032230
         H            1.622121859271    -1.762437794366    -0.077241801305     1.007825032230
         H            1.654282859271    -1.145055794366    -1.736170801305     1.007825032230
         H           -3.723252140729    -1.578356794366     0.272384198695     1.007825032230
         H           -2.705938140729    -2.269058794366     1.366982198695     1.007825032230
         H           -2.655658140729     2.437992205634    -0.623927801305     1.007825032230
         H            3.302907859271     2.069894205634     0.724013198695     1.007825032230
         H            4.797333859271     1.554227205634     0.187002198695     1.007825032230
         H            5.048175859271    -0.817328794366     0.061126198695     1.007825032230
         H            3.838467859271    -1.517296794366    -0.900907801305     1.007825032230

  Basis Set: AUG-CC-PVTZ
    Blend: AUG-CC-PVTZ
  Basis Set: (AUG-CC-PVTZ AUX)
    Blend: AUG-CC-PVTZ-JKFIT
	 Reference Energy          =    -603.1134562221767510 [Eh]
	 Singles Energy            =      -0.0000000000000000 [Eh]
	 Same-Spin Energy          =      -0.6217670995052049 [Eh]
	 Opposite-Spin Energy      =      -1.9570633605010623 [Eh]
	 Correlation Energy        =      -2.5788304600062673 [Eh]
	 Total Energy              =    -605.6922866821830667 [Eh]

	 ================> DF-SCS-MP2 Energies <==================
	-----------------------------------------------------------
	 SCS Same-Spin Scale       =       0.3333333333333333 [-]
	 SCS Opposite-Spin Scale   =       1.2000000000000000 [-]
	 SCS Same-Spin Energy      =      -0.2072556998350683 [Eh]
	 SCS Opposite-Spin Energy  =      -2.3484760326012748 [Eh]
	 SCS Correlation Energy    =      -2.5557317324363433 [Eh]
	 SCS Total Energy          =    -605.6691879546131076 [Eh]
	-----------------------------------------------------------

  Dipole Moment: [D]
     X:     3.7269      Y:     0.2200      Z:     0.5278     Total:     3.7706

*** Psi4 exiting successfully. Buy a developer a beer!
