                               Psi4 1.3.2 release

  ==> Input File <==

--------------------------------------------------------------------------
#psi4
#
memory 32 gb

molecule  {
0 1
  O       -2.2266400     1.8867650    -0.0032170
  O       -3.7615920     0.4694410    -0.8736430
  N       -2.7859400    -1.6499310     0.5252010
  N        2.0681532     0.2981564    -0.2742894
  N        3.8978530     1.3104060     0.6447910
  N        4.0160410    -0.8946960    -0.1223760
  C       -0.6937690    -0.3717720     0.7299070
  C       -0.1993830    -0.6671070    -0.6806480
  C       -2.2227870    -0.3377670     0.8339710
  C        1.3098450    -0.8661090    -0.7166530
  C       -2.8261080     0.6730930    -0.1173080
  C        3.2319800     0.2459460     0.0175660
  H       -0.2748670     0.5765650     1.0765220
  H       -0.3365530    -1.1529370     1.4152070
  H       -0.7054620    -1.5600450    -1.0625750
  H       -0.4516800     0.1714660    -1.3406670
  H       -2.4873830     0.0287790     1.8430020
  H        1.5813230    -1.7317920    -0.0895090
  H        1.6134840    -1.1144100    -1.7484380
  H       -3.7640510    -1.5477110     0.2601170
  H       -2.7467370    -2.2384130     1.3547150
  H       -2.6964570     2.4686380    -0.6361950
  H        3.2621090     2.1005400     0.7117460
  H        4.7565350     1.5848730     0.1747350
  H        5.0073770    -0.7866830     0.0488590
  H        3.7976690    -1.4866510    -0.9131750
units angstrom
no_reorient  #important for SAPT in psi4, default
symmetry c1  #important for SAPT in psi4, default
}

set PROPERTIES_ORIGIN ["COM"]
properties('MP2/aug-cc-pvtz', properties = ['dipole'])
--------------------------------------------------------------------------

    Molecular point group: c1
  Charge       = 0
  Multiplicity = 1
  Basis Set: AUG-CC-PVTZ
    Blend: AUG-CC-PVTZ
  Basis Set: (AUG-CC-PVTZ AUX)
    Blend: AUG-CC-PVTZ-JKFIT

    Orbital Energies [Eh]
    ---------------------

    Doubly Occupied:

       1A    -20.612251     2A    -20.549416     3A    -15.570061
       4A    -15.563986     5A    -15.542039     6A    -15.504435
       7A    -11.384760     8A    -11.322188     9A    -11.273701
      10A    -11.245460    11A    -11.216536    12A    -11.207295
      13A     -1.457891    14A     -1.354592    15A     -1.306140
      16A     -1.192090    17A     -1.167526    18A     -1.159318
      19A     -1.054904    20A     -0.982046    21A     -0.900144
      22A     -0.825838    23A     -0.779887    24A     -0.766734
      25A     -0.711914    26A     -0.704374    27A     -0.701530
      28A     -0.690477    29A     -0.657881    30A     -0.641443
      31A     -0.634022    32A     -0.620138    33A     -0.609555
      34A     -0.597580    35A     -0.572212    36A     -0.553931
      37A     -0.548811    38A     -0.524627    39A     -0.495714
      40A     -0.479798    41A     -0.475432    42A     -0.471786
      43A     -0.443043    44A     -0.434727    45A     -0.396419
      46A     -0.383749    47A     -0.359099

  @DF-RHF Final Energy:  -603.12294280364040

   => Energetics <=

    Nuclear Repulsion Energy =            726.8138816133119917
    One-Electron Energy =               -2266.5786516210614536
    Two-Electron Energy =                 936.6418272041091768
    Total Energy =                       -603.1229428036403988
  Basis Set: (AUG-CC-PVTZ AUX)
    Blend: AUG-CC-PVTZ-RI
    Molecular point group: c1

    Geometry (in Angstrom), charge = 0, multiplicity = 1:

       Center              X                  Y                   Z               Mass
    ------------   -----------------  -----------------  -----------------  -----------------
         O           -2.196718402916     1.863960803350     0.004200216230    15.994914619570
         O           -3.731670402916     0.446636803350    -0.866225783770    15.994914619570
         N           -2.756018402916    -1.672735196650     0.532618216230    14.003074004430
         N            2.098074797084     0.275352203350    -0.266872183770    14.003074004430
         N            3.927774597084     1.287601803350     0.652208216230    14.003074004430
         N            4.045962597084    -0.917500196650    -0.114958783770    14.003074004430
         C           -0.663847402916    -0.394576196650     0.737324216230    12.000000000000
         C           -0.169461402916    -0.689911196650    -0.673230783770    12.000000000000
         C           -2.192865402916    -0.360571196650     0.841388216230    12.000000000000
         C            1.339766597084    -0.888913196650    -0.709235783770    12.000000000000
         C           -2.796186402916     0.650288803350    -0.109890783770    12.000000000000
         C            3.261901597084     0.223141803350     0.024983216230    12.000000000000
         H           -0.244945402916     0.553760803350     1.083939216230     1.007825032230
         H           -0.306631402916    -1.175741196650     1.422624216230     1.007825032230
         H           -0.675540402916    -1.582849196650    -1.055157783770     1.007825032230
         H           -0.421758402916     0.148661803350    -1.333249783770     1.007825032230
         H           -2.457461402916     0.005974803350     1.850419216230     1.007825032230
         H            1.611244597084    -1.754596196650    -0.082091783770     1.007825032230
         H            1.643405597084    -1.137214196650    -1.741020783770     1.007825032230
         H           -3.734129402916    -1.570515196650     0.267534216230     1.007825032230
         H           -2.716815402916    -2.261217196650     1.362132216230     1.007825032230
         H           -2.666535402916     2.445833803350    -0.628777783770     1.007825032230
         H            3.292030597084     2.077735803350     0.719163216230     1.007825032230
         H            4.786456597084     1.562068803350     0.182152216230     1.007825032230
         H            5.037298597084    -0.809487196650     0.056276216230     1.007825032230
         H            3.827590597084    -1.509455196650    -0.905757783770     1.007825032230

  Basis Set: AUG-CC-PVTZ
    Blend: AUG-CC-PVTZ
  Basis Set: (AUG-CC-PVTZ AUX)
    Blend: AUG-CC-PVTZ-JKFIT
	 Reference Energy          =    -603.1229428036403988 [Eh]
	 Singles Energy            =      -0.0000000000000000 [Eh]
	 Same-Spin Energy          =      -0.6186783076025997 [Eh]
	 Opposite-Spin Energy      =      -1.9500347175722943 [Eh]
	 Correlation Energy        =      -2.5687130251748940 [Eh]
	 Total Energy              =    -605.6916558288153283 [Eh]

	 ================> DF-SCS-MP2 Energies <==================
	-----------------------------------------------------------
	 SCS Same-Spin Scale       =       0.3333333333333333 [-]
	 SCS Opposite-Spin Scale   =       1.2000000000000000 [-]
	 SCS Same-Spin Energy      =      -0.2062261025341999 [Eh]
	 SCS Opposite-Spin Energy  =      -2.3400416610867532 [Eh]
	 SCS Correlation Energy    =      -2.5462677636209530 [Eh]
	 SCS Total Energy          =    -605.6692105672613025 [Eh]
	-----------------------------------------------------------

  Dipole Moment: [D]
     X:     2.8115      Y:     0.3547      Z:     0.2775     Total:     2.8473

*** Psi4 exiting successfully. Buy a developer a beer!
