                               Psi4 1.3.2 release

  ==> Input File <==

--------------------------------------------------------------------------
#psi4
#
memory 32 gb

molecule  {
0 1
  O       -2.2266400     1.8867650    -0.0032170
  O       -3.7615920     0.4694410    -0.8736430
  N       -2.7859400    -1.6499310     0.5252010
  N        1.9794570     0.3457110    -0.2591130
  N        3.8978530     1.3104060     0.6447910
  N        4.0160410    -0.8946960    -0.1223760
  C       -0.6937690    -0.3717720     0.7299070
  C       -0.1743078    -0.6655144    -0.6719422
  C       -2.2227870    -0.3377670     0.8339710
  C        1.3098450    -0.8661090    -0.7166530
  C       -2.8261080     0.6730930    -0.1173080
  C        3.2319800     0.2459460     0.0175660
  H       -0.2748670     0.5765650     1.0765220
  H       -0.3365530    -1.1529370     1.4152070
  H       -0.7054620    -1.5600450    -1.0625750
  H       -0.4516800     0.1714660    -1.3406670
  H       -2.4873830     0.0287790     1.8430020
  H        1.5813230    -1.7317920    -0.0895090
  H        1.6134840    -1.1144100    -1.7484380
  H       -3.7640510    -1.5477110     0.2601170
  H       -2.7467370    -2.2384130     1.3547150
  H       -2.6964570     2.4686380    -0.6361950
  H        3.2621090     2.1005400     0.7117460
  H        4.7565350     1.5848730     0.1747350
  H        5.0073770    -0.7866830     0.0488590
  H        3.7976690    -1.4866510    -0.9131750
units angstrom
no_reorient  #important for SAPT in psi4, default
symmetry c1  #important for SAPT in psi4, default
}

set PROPERTIES_ORIGIN ["COM"]
properties('MP2/aug-cc-pvtz', properties = ['dipole'])
--------------------------------------------------------------------------

    Molecular point group: c1
  Charge       = 0
  Multiplicity = 1
  Basis Set: AUG-CC-PVTZ
    Blend: AUG-CC-PVTZ
  Basis Set: (AUG-CC-PVTZ AUX)
    Blend: AUG-CC-PVTZ-JKFIT

    Orbital Energies [Eh]
    ---------------------

    Doubly Occupied:

       1A    -20.609851     2A    -20.547122     3A    -15.583653
       4A    -15.571742     5A    -15.539592     6A    -15.515204
       7A    -11.382444     8A    -11.341696     9A    -11.271391
      10A    -11.237611    11A    -11.212445    12A    -11.202646
      13A     -1.455517    14A     -1.352277    15A     -1.295435
      16A     -1.189500    17A     -1.167750    18A     -1.158876
      19A     -1.047738    20A     -0.976383    21A     -0.893548
      22A     -0.820238    23A     -0.784861    24A     -0.763920
      25A     -0.719502    26A     -0.703054    27A     -0.700752
      28A     -0.689592    29A     -0.656177    30A     -0.638240
      31A     -0.631799    32A     -0.617752    33A     -0.608175
      34A     -0.594084    35A     -0.569826    36A     -0.551161
      37A     -0.539548    38A     -0.521734    39A     -0.495256
      40A     -0.476012    41A     -0.467762    42A     -0.465633
      43A     -0.439723    44A     -0.438763    45A     -0.398506
      46A     -0.391474    47A     -0.347179

  @DF-RHF Final Energy:  -603.12515995104184

   => Energetics <=

    Nuclear Repulsion Energy =            725.9051809254632417
    One-Electron Energy =               -2264.8943911869969270
    Two-Electron Energy =                 935.8640503104917343
    Total Energy =                       -603.1251599510418373
  Basis Set: (AUG-CC-PVTZ AUX)
    Blend: AUG-CC-PVTZ-RI
    Molecular point group: c1

    Geometry (in Angstrom), charge = 0, multiplicity = 1:

       Center              X                  Y                   Z               Mass
    ------------   -----------------  -----------------  -----------------  -----------------
         O           -2.191313153390     1.860026421693     0.002379626938    15.994914619570
         O           -3.726265153390     0.442702421693    -0.868046373062    15.994914619570
         N           -2.750613153390    -1.676669578307     0.530797626938    14.003074004430
         N            2.014783846610     0.318972421693    -0.253516373062    14.003074004430
         N            3.933179846610     1.283667421693     0.650387626938    14.003074004430
         N            4.051367846610    -0.921434578307    -0.116779373062    14.003074004430
         C           -0.658442153390    -0.398510578307     0.735503626938    12.000000000000
         C           -0.138980953390    -0.692252978307    -0.666345573062    12.000000000000
         C           -2.187460153390    -0.364505578307     0.839567626938    12.000000000000
         C            1.345171846610    -0.892847578307    -0.711056373062    12.000000000000
         C           -2.790781153390     0.646354421693    -0.111711373062    12.000000000000
         C            3.267306846610     0.219207421693     0.023162626938    12.000000000000
         H           -0.239540153390     0.549826421693     1.082118626938     1.007825032230
         H           -0.301226153390    -1.179675578307     1.420803626938     1.007825032230
         H           -0.670135153390    -1.586783578307    -1.056978373062     1.007825032230
         H           -0.416353153390     0.144727421693    -1.335070373062     1.007825032230
         H           -2.452056153390     0.002040421693     1.848598626938     1.007825032230
         H            1.616649846610    -1.758530578307    -0.083912373062     1.007825032230
         H            1.648810846610    -1.141148578307    -1.742841373062     1.007825032230
         H           -3.728724153390    -1.574449578307     0.265713626938     1.007825032230
         H           -2.711410153390    -2.265151578307     1.360311626938     1.007825032230
         H           -2.661130153390     2.441899421693    -0.630598373062     1.007825032230
         H            3.297435846610     2.073801421693     0.717342626938     1.007825032230
         H            4.791861846610     1.558134421693     0.180331626938     1.007825032230
         H            5.042703846610    -0.813421578307     0.054455626938     1.007825032230
         H            3.832995846610    -1.513389578307    -0.907578373062     1.007825032230

  Basis Set: AUG-CC-PVTZ
    Blend: AUG-CC-PVTZ
  Basis Set: (AUG-CC-PVTZ AUX)
    Blend: AUG-CC-PVTZ-JKFIT
	 Reference Energy          =    -603.1251599510418373 [Eh]
	 Singles Energy            =      -0.0000000000000000 [Eh]
	 Same-Spin Energy          =      -0.6204002168339285 [Eh]
	 Opposite-Spin Energy      =      -1.9539235120159510 [Eh]
	 Correlation Energy        =      -2.5743237288498797 [Eh]
	 Total Energy              =    -605.6994836798917277 [Eh]

	 ================> DF-SCS-MP2 Energies <==================
	-----------------------------------------------------------
	 SCS Same-Spin Scale       =       0.3333333333333333 [-]
	 SCS Opposite-Spin Scale   =       1.2000000000000000 [-]
	 SCS Same-Spin Energy      =      -0.2068000722779762 [Eh]
	 SCS Opposite-Spin Energy  =      -2.3447082144191413 [Eh]
	 SCS Correlation Energy    =      -2.5515082866971177 [Eh]
	 SCS Total Energy          =    -605.6766682377389088 [Eh]
	-----------------------------------------------------------

  Dipole Moment: [D]
     X:     3.4151      Y:     0.2897      Z:     0.3472     Total:     3.4449

*** Psi4 exiting successfully. Buy a developer a beer!
