                               Psi4 1.4a3.dev225

  ==> Input File <==

--------------------------------------------------------------------------
#psi4
#
memory 32 gb

molecule  {
0 1
  O       -2.2193770     1.8892330     0.0268230
  O       -3.7558620     0.4909310    -0.8718590
  N       -2.7972650    -1.6524490     0.5031070
  N        1.9782870     0.3250840    -0.2428510
  N        3.8986140     1.3191370     0.6232000
  N        4.0945810    -0.8301440    -0.2248910
  C       -0.6989470    -0.3870780     0.7275970
  C       -0.2062790    -0.6613260    -0.6876040
  C       -2.2281040    -0.3472380     0.8304820
  C        1.3017160    -0.8701890    -0.7302520
  C       -2.8235710     0.6804660    -0.1079880
  C        3.2140445     0.2423850     0.0171894
  H       -0.2749720     0.5529910     1.0902940
  H       -0.3479120    -1.1823300     1.4000480
  H       -0.7189380    -1.5432990    -1.0858630
  H       -0.4507980     0.1909300    -1.3325750
  H       -2.4926300     0.0060750     1.8439900
  H        1.5489680    -1.7592400    -0.1213590
  H        1.6102530    -1.0961940    -1.7629760
  H       -3.7667330    -1.5380950     0.2123320
  H       -2.7872020    -2.2442710     1.3309830
  H       -2.6822190     2.4830960    -0.6002000
  H        3.2771960     2.1225880     0.6500220
  H        4.7687340     1.5514780     0.1515250
  H        4.8021180    -0.9483820     0.4927870
  H        3.6261930    -1.7023420    -0.4398710
units angstrom
no_reorient  #important for SAPT in psi4, default
symmetry c1  #important for SAPT in psi4, default
}

set PROPERTIES_ORIGIN ["COM"]
properties('MP2/aug-cc-pvtz', properties = ['dipole'])
--------------------------------------------------------------------------

    Molecular point group: c1
  Charge       = 0
  Multiplicity = 1
  Basis Set: AUG-CC-PVTZ
    Blend: AUG-CC-PVTZ
  Basis Set: (AUG-CC-PVTZ AUX)
    Blend: AUG-CC-PVTZ-JKFIT

    Orbital Energies [Eh]
    ---------------------

    Doubly Occupied:

       1A    -20.612191     2A    -20.549483     3A    -15.580160
       4A    -15.567448     5A    -15.541968     6A    -15.519736
       7A    -11.384830     8A    -11.339658     9A    -11.273721
      10A    -11.245503    11A    -11.216244    12A    -11.205765
      13A     -1.457926    14A     -1.354733    15A     -1.294229
      16A     -1.192074    17A     -1.164753    18A     -1.160803
      19A     -1.051850    20A     -0.979047    21A     -0.897010
      22A     -0.823457    23A     -0.782072    24A     -0.766124
      25A     -0.714359    26A     -0.704142    27A     -0.701986
      28A     -0.692307    29A     -0.658215    30A     -0.638434
      31A     -0.621095    32A     -0.618864    33A     -0.605888
      34A     -0.599661    35A     -0.573526    36A     -0.557446
      37A     -0.544781    38A     -0.526272    39A     -0.494592
      40A     -0.479761    41A     -0.474351    42A     -0.471064
      43A     -0.442990    44A     -0.434266    45A     -0.402227
      46A     -0.393923    47A     -0.356857

  @DF-RHF Final Energy:  -603.12846004111452

   => Energetics <=

    Nuclear Repulsion Energy =            725.5578962798437033
    One-Electron Energy =               -2264.0371242947821884
    Two-Electron Energy =                 935.3507679738240768
    Total Energy =                       -603.1284600411145220
  Basis Set: (AUG-CC-PVTZ AUX)
    Blend: AUG-CC-PVTZ-RI
    Molecular point group: c1

    Geometry (in Angstrom), charge = 0, multiplicity = 1:

       Center              X                  Y                   Z               Mass
    ------------   -----------------  -----------------  -----------------  -----------------
         O           -2.183502628075     1.860125145054     0.037493171171    15.994914619570
         O           -3.719987628075     0.461823145054    -0.861188828829    15.994914619570
         N           -2.761390628075    -1.681556854946     0.513777171171    14.003074004430
         N            2.014161371925     0.295976145054    -0.232180828829    14.003074004430
         N            3.934488371925     1.290029145054     0.633870171171    14.003074004430
         N            4.130455371925    -0.859251854946    -0.214220828829    14.003074004430
         C           -0.663072628075    -0.416185854946     0.738267171171    12.000000000000
         C           -0.170404628075    -0.690433854946    -0.676933828829    12.000000000000
         C           -2.192229628075    -0.376345854946     0.841152171171    12.000000000000
         C            1.337590371925    -0.899296854946    -0.719581828829    12.000000000000
         C           -2.787696628075     0.651358145054    -0.097317828829    12.000000000000
         C            3.249918871925     0.213277145054     0.027859571171    12.000000000000
         H           -0.239097628075     0.523883145054     1.100964171171     1.007825032230
         H           -0.312037628075    -1.211437854946     1.410718171171     1.007825032230
         H           -0.683063628075    -1.572406854946    -1.075192828829     1.007825032230
         H           -0.414923628075     0.161822145054    -1.321904828829     1.007825032230
         H           -2.456755628075    -0.023032854946     1.854660171171     1.007825032230
         H            1.584842371925    -1.788347854946    -0.110688828829     1.007825032230
         H            1.646127371925    -1.125301854946    -1.752305828829     1.007825032230
         H           -3.730858628075    -1.567202854946     0.223002171171     1.007825032230
         H           -2.751327628075    -2.273378854946     1.341653171171     1.007825032230
         H           -2.646344628075     2.453988145054    -0.589529828829     1.007825032230
         H            3.313070371925     2.093480145054     0.660692171171     1.007825032230
         H            4.804608371925     1.522370145054     0.162195171171     1.007825032230
         H            4.837992371925    -0.977489854946     0.503457171171     1.007825032230
         H            3.662067371925    -1.731449854946    -0.429200828829     1.007825032230

  Basis Set: AUG-CC-PVTZ
    Blend: AUG-CC-PVTZ
  Basis Set: (AUG-CC-PVTZ AUX)
    Blend: AUG-CC-PVTZ-JKFIT
	 Reference Energy          =    -603.1284600411145220 [Eh]
	 Singles Energy            =      -0.0000000000000000 [Eh]
	 Same-Spin Energy          =      -0.6197701165691971 [Eh]
	 Opposite-Spin Energy      =      -1.9533778416917591 [Eh]
	 Correlation Energy        =      -2.5731479582609564 [Eh]
	 Total Energy              =    -605.7016079993754829 [Eh]

	 ================> DF-SCS-MP2 Energies <==================
	-----------------------------------------------------------
	 SCS Same-Spin Scale       =       0.3333333333333333 [-]
	 SCS Opposite-Spin Scale   =       1.2000000000000000 [-]
	 SCS Same-Spin Energy      =      -0.2065900388563990 [Eh]
	 SCS Opposite-Spin Energy  =      -2.3440534100301109 [Eh]
	 SCS Correlation Energy    =      -2.5506434488865097 [Eh]
	 SCS Total Energy          =    -605.6791034900010118 [Eh]
	-----------------------------------------------------------

  Dipole Moment: [D]
     X:     2.3397      Y:    -0.3056      Z:     1.6513     Total:     2.8800

*** Psi4 exiting successfully. Buy a developer a beer!
