                               Psi4 1.3.2 release

  ==> Input File <==

--------------------------------------------------------------------------
#psi4
#
memory 32 gb

molecule  {
0 1
  O       -2.2266400     1.8867650    -0.0032170
  O       -3.7615920     0.4694410    -0.8736430
  N       -2.7859400    -1.6499310     0.5252010
  N        2.0019541     0.3343673    -0.2627008
  N        3.8978530     1.3104060     0.6447910
  N        4.0160410    -0.8946960    -0.1223760
  C       -0.6937690    -0.3717720     0.7299070
  C       -0.1993830    -0.6671070    -0.6806480
  C       -2.2227870    -0.3377670     0.8339710
  C        1.3098450    -0.8661090    -0.7166530
  C       -2.8261080     0.6730930    -0.1173080
  C        3.2319800     0.2459460     0.0175660
  H       -0.2748670     0.5765650     1.0765220
  H       -0.3365530    -1.1529370     1.4152070
  H       -0.7054620    -1.5600450    -1.0625750
  H       -0.4516800     0.1714660    -1.3406670
  H       -2.4873830     0.0287790     1.8430020
  H        1.5813230    -1.7317920    -0.0895090
  H        1.6134840    -1.1144100    -1.7484380
  H       -3.7640510    -1.5477110     0.2601170
  H       -2.7467370    -2.2384130     1.3547150
  H       -2.6964570     2.4686380    -0.6361950
  H        3.2621090     2.1005400     0.7117460
  H        4.7565350     1.5848730     0.1747350
  H        5.0073770    -0.7866830     0.0488590
  H        3.7976690    -1.4866510    -0.9131750
units angstrom
no_reorient  #important for SAPT in psi4, default
symmetry c1  #important for SAPT in psi4, default
}

set PROPERTIES_ORIGIN ["COM"]
properties('MP2/aug-cc-pvtz', properties = ['dipole'])
--------------------------------------------------------------------------

    Molecular point group: c1
  Charge       = 0
  Multiplicity = 1
  Basis Set: AUG-CC-PVTZ
    Blend: AUG-CC-PVTZ
  Basis Set: (AUG-CC-PVTZ AUX)
    Blend: AUG-CC-PVTZ-JKFIT

    Orbital Energies [Eh]
    ---------------------

    Doubly Occupied:

       1A    -20.610421     2A    -20.547619     3A    -15.580239
       4A    -15.569738     5A    -15.540113     6A    -15.512781
       7A    -11.382924     8A    -11.336840     9A    -11.271518
      10A    -11.240132    11A    -11.213459    12A    -11.203086
      13A     -1.456065    14A     -1.352800    15A     -1.297317
      16A     -1.190077    17A     -1.165825    18A     -1.160374
      19A     -1.048987    20A     -0.976223    21A     -0.894455
      22A     -0.822369    23A     -0.783366    24A     -0.765603
      25A     -0.717198    26A     -0.703105    27A     -0.700716
      28A     -0.690025    29A     -0.656291    30A     -0.638783
      31A     -0.632305    32A     -0.618301    33A     -0.608024
      34A     -0.594408    35A     -0.570020    36A     -0.551540
      37A     -0.542977    38A     -0.522366    39A     -0.492586
      40A     -0.477813    41A     -0.471122    42A     -0.468997
      43A     -0.440945    44A     -0.437592    45A     -0.396550
      46A     -0.390414    47A     -0.350067

  @DF-RHF Final Energy:  -603.12759955544993

   => Energetics <=

    Nuclear Repulsion Energy =            725.9984082978380684
    One-Electron Energy =               -2265.0630656306193487
    Two-Electron Energy =                 935.9370577773313471
    Total Energy =                       -603.1275995554499332
  Basis Set: (AUG-CC-PVTZ AUX)
    Blend: AUG-CC-PVTZ-RI
    Molecular point group: c1

    Geometry (in Angstrom), charge = 0, multiplicity = 1:

       Center              X                  Y                   Z               Mass
    ------------   -----------------  -----------------  -----------------  -----------------
         O           -2.191394286124     1.861048512084     0.003268193591    15.994914619570
         O           -3.726346286124     0.443724512084    -0.867157806409    15.994914619570
         N           -2.750694286124    -1.675647487916     0.531686193591    14.003074004430
         N            2.037199813876     0.308650812084    -0.256215606409    14.003074004430
         N            3.933098713876     1.284689512084     0.651276193591    14.003074004430
         N            4.051286713876    -0.920412487916    -0.115890806409    14.003074004430
         C           -0.658523286124    -0.397488487916     0.736392193591    12.000000000000
         C           -0.164137286124    -0.692823487916    -0.674162806409    12.000000000000
         C           -2.187541286124    -0.363483487916     0.840456193591    12.000000000000
         C            1.345090713876    -0.891825487916    -0.710167806409    12.000000000000
         C           -2.790862286124     0.647376512084    -0.110822806409    12.000000000000
         C            3.267225713876     0.220229512084     0.024051193591    12.000000000000
         H           -0.239621286124     0.550848512084     1.083007193591     1.007825032230
         H           -0.301307286124    -1.178653487916     1.421692193591     1.007825032230
         H           -0.670216286124    -1.585761487916    -1.056089806409     1.007825032230
         H           -0.416434286124     0.145749512084    -1.334181806409     1.007825032230
         H           -2.452137286124     0.003062512084     1.849487193591     1.007825032230
         H            1.616568713876    -1.757508487916    -0.083023806409     1.007825032230
         H            1.648729713876    -1.140126487916    -1.741952806409     1.007825032230
         H           -3.728805286124    -1.573427487916     0.266602193591     1.007825032230
         H           -2.711491286124    -2.264129487916     1.361200193591     1.007825032230
         H           -2.661211286124     2.442921512084    -0.629709806409     1.007825032230
         H            3.297354713876     2.074823512084     0.718231193591     1.007825032230
         H            4.791780713876     1.559156512084     0.181220193591     1.007825032230
         H            5.042622713876    -0.812399487916     0.055344193591     1.007825032230
         H            3.832914713876    -1.512367487916    -0.906689806409     1.007825032230

  Basis Set: AUG-CC-PVTZ
    Blend: AUG-CC-PVTZ
  Basis Set: (AUG-CC-PVTZ AUX)
    Blend: AUG-CC-PVTZ-JKFIT
	 Reference Energy          =    -603.1275995554499332 [Eh]
	 Singles Energy            =      -0.0000000000000000 [Eh]
	 Same-Spin Energy          =      -0.6198086473198107 [Eh]
	 Opposite-Spin Energy      =      -1.9527545365004004 [Eh]
	 Correlation Energy        =      -2.5725631838202112 [Eh]
	 Total Energy              =    -605.7001627392701266 [Eh]

	 ================> DF-SCS-MP2 Energies <==================
	-----------------------------------------------------------
	 SCS Same-Spin Scale       =       0.3333333333333333 [-]
	 SCS Opposite-Spin Scale   =       1.2000000000000000 [-]
	 SCS Same-Spin Energy      =      -0.2066028824399369 [Eh]
	 SCS Opposite-Spin Energy  =      -2.3433054438004803 [Eh]
	 SCS Correlation Energy    =      -2.5499083262404172 [Eh]
	 SCS Total Energy          =    -605.6775078816903033 [Eh]
	-----------------------------------------------------------

  Dipole Moment: [D]
     X:     3.2742      Y:     0.3025      Z:     0.3277     Total:     3.3045

*** Psi4 exiting successfully. Buy a developer a beer!
