                               Psi4 1.3.2 release

  ==> Input File <==

--------------------------------------------------------------------------
#psi4
#
memory 32 gb

molecule  {
0 1
  O       -2.2266400     1.8867650    -0.0032170
  O       -3.7615920     0.4694410    -0.8736430
  N       -2.7859400    -1.6499310     0.5252010
  N        1.9808166     0.3043441    -0.2765395
  N        3.8978530     1.3104060     0.6447910
  N        4.0160410    -0.8946960    -0.1223760
  C       -0.6937690    -0.3717720     0.7299070
  C       -0.1993830    -0.6671070    -0.6806480
  C       -2.2227870    -0.3377670     0.8339710
  C        1.3098450    -0.8661090    -0.7166530
  C       -2.8261080     0.6730930    -0.1173080
  C        3.2319800     0.2459460     0.0175660
  H       -0.2748670     0.5765650     1.0765220
  H       -0.3365530    -1.1529370     1.4152070
  H       -0.7054620    -1.5600450    -1.0625750
  H       -0.4516800     0.1714660    -1.3406670
  H       -2.4873830     0.0287790     1.8430020
  H        1.5813230    -1.7317920    -0.0895090
  H        1.6134840    -1.1144100    -1.7484380
  H       -3.7640510    -1.5477110     0.2601170
  H       -2.7467370    -2.2384130     1.3547150
  H       -2.6964570     2.4686380    -0.6361950
  H        3.2621090     2.1005400     0.7117460
  H        4.7565350     1.5848730     0.1747350
  H        5.0073770    -0.7866830     0.0488590
  H        3.7976690    -1.4866510    -0.9131750
units angstrom
no_reorient  #important for SAPT in psi4, default
symmetry c1  #important for SAPT in psi4, default
}

set PROPERTIES_ORIGIN ["COM"]
properties('MP2/aug-cc-pvtz', properties = ['dipole'])
--------------------------------------------------------------------------

    Molecular point group: c1
  Charge       = 0
  Multiplicity = 1
  Basis Set: AUG-CC-PVTZ
    Blend: AUG-CC-PVTZ
  Basis Set: (AUG-CC-PVTZ AUX)
    Blend: AUG-CC-PVTZ-JKFIT

    Orbital Energies [Eh]
    ---------------------

    Doubly Occupied:

       1A    -20.609848     2A    -20.546984     3A    -15.581740
       4A    -15.574408     5A    -15.539346     6A    -15.511917
       7A    -11.382283     8A    -11.342591     9A    -11.270740
      10A    -11.235884    11A    -11.212347    12A    -11.200941
      13A     -1.455465    14A     -1.352189    15A     -1.296506
      16A     -1.189380    17A     -1.169543    18A     -1.162796
      19A     -1.046554    20A     -0.974316    21A     -0.894386
      22A     -0.824122    23A     -0.783381    24A     -0.764691
      25A     -0.720178    26A     -0.703135    27A     -0.701027
      28A     -0.690150    29A     -0.655699    30A     -0.640180
      31A     -0.633205    32A     -0.617716    33A     -0.610271
      34A     -0.595116    35A     -0.569542    36A     -0.550924
      37A     -0.543530    38A     -0.522229    39A     -0.493157
      40A     -0.477049    41A     -0.470495    42A     -0.468467
      43A     -0.440241    44A     -0.438448    45A     -0.394571
      46A     -0.388462    47A     -0.344479

  @DF-RHF Final Energy:  -603.12553748671610

   => Energetics <=

    Nuclear Repulsion Energy =            726.2802007673892604
    One-Electron Energy =               -2265.6302163619925523
    Two-Electron Energy =                 936.2244781078871938
    Total Energy =                       -603.1255374867160981
  Basis Set: (AUG-CC-PVTZ AUX)
    Blend: AUG-CC-PVTZ-RI
    Molecular point group: c1

    Geometry (in Angstrom), charge = 0, multiplicity = 1:

       Center              X                  Y                   Z               Mass
    ------------   -----------------  -----------------  -----------------  -----------------
         O           -2.189694285388     1.863463152513     0.004381182364    15.994914619570
         O           -3.724646285388     0.446139152513    -0.866044817636    15.994914619570
         N           -2.748994285388    -1.673232847487     0.532799182364    14.003074004430
         N            2.017762314612     0.281042252513    -0.268941317636    14.003074004430
         N            3.934798714612     1.287104152513     0.652389182364    14.003074004430
         N            4.052986714612    -0.917997847487    -0.114777817636    14.003074004430
         C           -0.656823285388    -0.395073847487     0.737505182364    12.000000000000
         C           -0.162437285388    -0.690408847487    -0.673049817636    12.000000000000
         C           -2.185841285388    -0.361068847487     0.841569182364    12.000000000000
         C            1.346790714612    -0.889410847487    -0.709054817636    12.000000000000
         C           -2.789162285388     0.649791152513    -0.109709817636    12.000000000000
         C            3.268925714612     0.222644152513     0.025164182364    12.000000000000
         H           -0.237921285388     0.553263152513     1.084120182364     1.007825032230
         H           -0.299607285388    -1.176238847487     1.422805182364     1.007825032230
         H           -0.668516285388    -1.583346847487    -1.054976817636     1.007825032230
         H           -0.414734285388     0.148164152513    -1.333068817636     1.007825032230
         H           -2.450437285388     0.005477152513     1.850600182364     1.007825032230
         H            1.618268714612    -1.755093847487    -0.081910817636     1.007825032230
         H            1.650429714612    -1.137711847487    -1.740839817636     1.007825032230
         H           -3.727105285388    -1.571012847487     0.267715182364     1.007825032230
         H           -2.709791285388    -2.261714847487     1.362313182364     1.007825032230
         H           -2.659511285388     2.445336152513    -0.628596817636     1.007825032230
         H            3.299054714612     2.077238152513     0.719344182364     1.007825032230
         H            4.793480714612     1.561571152513     0.182333182364     1.007825032230
         H            5.044322714612    -0.809984847487     0.056457182364     1.007825032230
         H            3.834614714612    -1.509952847487    -0.905576817636     1.007825032230

  Basis Set: AUG-CC-PVTZ
    Blend: AUG-CC-PVTZ
  Basis Set: (AUG-CC-PVTZ AUX)
    Blend: AUG-CC-PVTZ-JKFIT
	 Reference Energy          =    -603.1255374867160981 [Eh]
	 Singles Energy            =      -0.0000000000000000 [Eh]
	 Same-Spin Energy          =      -0.6204468446264702 [Eh]
	 Opposite-Spin Energy      =      -1.9534361168713916 [Eh]
	 Correlation Energy        =      -2.5738829614978620 [Eh]
	 Total Energy              =    -605.6994204482139139 [Eh]

	 ================> DF-SCS-MP2 Energies <==================
	-----------------------------------------------------------
	 SCS Same-Spin Scale       =       0.3333333333333333 [-]
	 SCS Opposite-Spin Scale   =       1.2000000000000000 [-]
	 SCS Same-Spin Energy      =      -0.2068156148754901 [Eh]
	 SCS Opposite-Spin Energy  =      -2.3441233402456700 [Eh]
	 SCS Correlation Energy    =      -2.5509389551211603 [Eh]
	 SCS Total Energy          =    -605.6764764418372806 [Eh]
	-----------------------------------------------------------

  Dipole Moment: [D]
     X:     3.4376      Y:     0.4146      Z:     0.3929     Total:     3.4848

*** Psi4 exiting successfully. Buy a developer a beer!
