                               Psi4 1.3.2 release

  ==> Input File <==

--------------------------------------------------------------------------
#psi4
#
memory 32 gb

molecule  {
0 1
  O       -2.2266400     1.8867650    -0.0032170
  O       -3.7615920     0.4694410    -0.8736430
  N       -2.7859400    -1.6499310     0.5252010
  N        1.9794570     0.3457110    -0.2591130
  N        3.8978530     1.3104060     0.6447910
  N        4.0160410    -0.8946960    -0.1223760
  C       -0.6937690    -0.3717720     0.7299070
  C       -0.1993830    -0.6671070    -0.6806480
  C       -2.2227870    -0.3377670     0.8339710
  C        1.3098450    -0.8661090    -0.7166530
  C       -2.8261080     0.6730930    -0.1173080
  C        3.2319800     0.2459460     0.0175660
  H       -0.2748670     0.5765650     1.0765220
  H       -0.3365530    -1.1529370     1.4152070
  H       -0.7054620    -1.5600450    -1.0625750
  H       -0.4516800     0.1714660    -1.3406670
  H       -2.4873830     0.0287790     1.8430020
  H        1.5813230    -1.7317920    -0.0895090
  H        1.6134840    -1.1144100    -1.7484380
  H       -3.7640510    -1.5477110     0.2601170
  H       -2.7467370    -2.2384130     1.3547150
  H       -2.6964570     2.4686380    -0.6361950
  H        3.3246607     2.0227976     0.7051582
  H        4.7565350     1.5848730     0.1747350
  H        5.0073770    -0.7866830     0.0488590
  H        3.7976690    -1.4866510    -0.9131750
units angstrom
no_reorient  #important for SAPT in psi4, default
symmetry c1  #important for SAPT in psi4, default
}

set PROPERTIES_ORIGIN ["COM"]
properties('MP2/aug-cc-pvtz', properties = ['dipole'])
--------------------------------------------------------------------------

    Molecular point group: c1
  Charge       = 0
  Multiplicity = 1
  Basis Set: AUG-CC-PVTZ
    Blend: AUG-CC-PVTZ
  Basis Set: (AUG-CC-PVTZ AUX)
    Blend: AUG-CC-PVTZ-JKFIT

    Orbital Energies [Eh]
    ---------------------

    Doubly Occupied:

       1A    -20.609745     2A    -20.546997     3A    -15.583475
       4A    -15.561863     5A    -15.539492     6A    -15.515987
       7A    -11.382287     8A    -11.342006     9A    -11.270802
      10A    -11.238895    11A    -11.212479    12A    -11.201854
      13A     -1.455407    14A     -1.352165    15A     -1.299783
      16A     -1.189489    17A     -1.180561    18A     -1.159049
      19A     -1.047335    20A     -0.974693    21A     -0.893369
      22A     -0.824802    23A     -0.789774    24A     -0.766083
      25A     -0.723047    26A     -0.704734    27A     -0.701473
      28A     -0.691246    29A     -0.656037    30A     -0.649377
      31A     -0.632892    32A     -0.617687    33A     -0.609179
      34A     -0.594565    35A     -0.569531    36A     -0.551949
      37A     -0.541459    38A     -0.522509    39A     -0.491669
      40A     -0.477241    41A     -0.470189    42A     -0.467863
      43A     -0.440271    44A     -0.439584    45A     -0.398427
      46A     -0.391216    47A     -0.347542

  @DF-RHF Final Energy:  -603.11938707972854

   => Energetics <=

    Nuclear Repulsion Energy =            726.2653002734150505
    One-Electron Energy =               -2265.5132241605310810
    Two-Electron Energy =                 936.1285368073874906
    Total Energy =                       -603.1193870797285399
  Basis Set: (AUG-CC-PVTZ AUX)
    Blend: AUG-CC-PVTZ-RI
    Molecular point group: c1

    Geometry (in Angstrom), charge = 0, multiplicity = 1:

       Center              X                  Y                   Z               Mass
    ------------   -----------------  -----------------  -----------------  -----------------
         O           -2.189947011631     1.860586188500     0.003017774548    15.994914619570
         O           -3.724899011631     0.443262188500    -0.867408225452    15.994914619570
         N           -2.749247011631    -1.676109811500     0.531435774548    14.003074004430
         N            2.016149988369     0.319532188500    -0.252878225452    14.003074004430
         N            3.934545988369     1.284227188500     0.651025774548    14.003074004430
         N            4.052733988369    -0.920874811500    -0.116141225452    14.003074004430
         C           -0.657076011631    -0.397950811500     0.736141774548    12.000000000000
         C           -0.162690011631    -0.693285811500    -0.674413225452    12.000000000000
         C           -2.186094011631    -0.363945811500     0.840205774548    12.000000000000
         C            1.346537988369    -0.892287811500    -0.710418225452    12.000000000000
         C           -2.789415011631     0.646914188500    -0.111073225452    12.000000000000
         C            3.268672988369     0.219767188500     0.023800774548    12.000000000000
         H           -0.238174011631     0.550386188500     1.082756774548     1.007825032230
         H           -0.299860011631    -1.179115811500     1.421441774548     1.007825032230
         H           -0.668769011631    -1.586223811500    -1.056340225452     1.007825032230
         H           -0.414987011631     0.145287188500    -1.334432225452     1.007825032230
         H           -2.450690011631     0.002600188500     1.849236774548     1.007825032230
         H            1.618015988369    -1.757970811500    -0.083274225452     1.007825032230
         H            1.650176988369    -1.140588811500    -1.742203225452     1.007825032230
         H           -3.727358011631    -1.573889811500     0.266351774548     1.007825032230
         H           -2.710044011631    -2.264591811500     1.360949774548     1.007825032230
         H           -2.659764011631     2.442459188500    -0.629960225452     1.007825032230
         H            3.361353688369     1.996618788500     0.711392974548     1.007825032230
         H            4.793227988369     1.558694188500     0.180969774548     1.007825032230
         H            5.044069988369    -0.812861811500     0.055093774548     1.007825032230
         H            3.834361988369    -1.512829811500    -0.906940225452     1.007825032230

  Basis Set: AUG-CC-PVTZ
    Blend: AUG-CC-PVTZ
  Basis Set: (AUG-CC-PVTZ AUX)
    Blend: AUG-CC-PVTZ-JKFIT
	 Reference Energy          =    -603.1193870797285399 [Eh]
	 Singles Energy            =      -0.0000000000000000 [Eh]
	 Same-Spin Energy          =      -0.6196934297880017 [Eh]
	 Opposite-Spin Energy      =      -1.9522649047909020 [Eh]
	 Correlation Energy        =      -2.5719583345789037 [Eh]
	 Total Energy              =    -605.6913454143074205 [Eh]

	 ================> DF-SCS-MP2 Energies <==================
	-----------------------------------------------------------
	 SCS Same-Spin Scale       =       0.3333333333333333 [-]
	 SCS Opposite-Spin Scale   =       1.2000000000000000 [-]
	 SCS Same-Spin Energy      =      -0.2065644765960006 [Eh]
	 SCS Opposite-Spin Energy  =      -2.3427178857490825 [Eh]
	 SCS Correlation Energy    =      -2.5492823623450831 [Eh]
	 SCS Total Energy          =    -605.6686694420736785 [Eh]
	-----------------------------------------------------------

  Dipole Moment: [D]
     X:     3.4598      Y:     0.2359      Z:     0.3275     Total:     3.4833

*** Psi4 exiting successfully. Buy a developer a beer!
