                               Psi4 1.3.2 release

  ==> Input File <==

--------------------------------------------------------------------------
#psi4
#
memory 32 gb

molecule  {
0 1
  O       -2.2266400     1.8867650    -0.0032170
  O       -3.7615920     0.4694410    -0.8736430
  N       -2.7859400    -1.6499310     0.5252010
  N        1.9794570     0.3457110    -0.2591130
  N        3.8978530     1.3104060     0.6447910
  N        4.0160410    -0.8946960    -0.1223760
  C       -0.6937690    -0.3717720     0.7299070
  C       -0.1993830    -0.6671070    -0.6806480
  C       -2.2227870    -0.3377670     0.8339710
  C        1.3098450    -0.8661090    -0.7166530
  C       -2.8261080     0.6730930    -0.1173080
  C        3.2794230     0.3217881     0.0622554
  H       -0.2748670     0.5765650     1.0765220
  H       -0.3365530    -1.1529370     1.4152070
  H       -0.7054620    -1.5600450    -1.0625750
  H       -0.4516800     0.1714660    -1.3406670
  H       -2.4873830     0.0287790     1.8430020
  H        1.5813230    -1.7317920    -0.0895090
  H        1.6134840    -1.1144100    -1.7484380
  H       -3.7640510    -1.5477110     0.2601170
  H       -2.7467370    -2.2384130     1.3547150
  H       -2.6964570     2.4686380    -0.6361950
  H        3.2621090     2.1005400     0.7117460
  H        4.7565350     1.5848730     0.1747350
  H        5.0073770    -0.7866830     0.0488590
  H        3.7976690    -1.4866510    -0.9131750
units angstrom
no_reorient  #important for SAPT in psi4, default
symmetry c1  #important for SAPT in psi4, default
}

set PROPERTIES_ORIGIN ["COM"]
properties('MP2/aug-cc-pvtz', properties = ['dipole'])
--------------------------------------------------------------------------

    Molecular point group: c1
  Charge       = 0
  Multiplicity = 1
  Basis Set: AUG-CC-PVTZ
    Blend: AUG-CC-PVTZ
  Basis Set: (AUG-CC-PVTZ AUX)
    Blend: AUG-CC-PVTZ-JKFIT

    Orbital Energies [Eh]
    ---------------------

    Doubly Occupied:

       1A    -20.608140     2A    -20.545291     3A    -15.586606
       4A    -15.579607     5A    -15.537566     6A    -15.509735
       7A    -11.380535     8A    -11.347767     9A    -11.268556
      10A    -11.233951    11A    -11.209240    12A    -11.198211
      13A     -1.453753    14A     -1.350508    15A     -1.309843
      16A     -1.187524    17A     -1.181888    18A     -1.137835
      19A     -1.040954    20A     -0.968927    21A     -0.889071
      22A     -0.824884    23A     -0.787799    24A     -0.763395
      25A     -0.723486    26A     -0.707054    27A     -0.699547
      28A     -0.690055    29A     -0.652832    30A     -0.647326
      31A     -0.629840    32A     -0.616098    33A     -0.609847
      34A     -0.587481    35A     -0.567001    36A     -0.552003
      37A     -0.539551    38A     -0.522020    39A     -0.488000
      40A     -0.474798    41A     -0.468341    42A     -0.464853
      43A     -0.441363    44A     -0.437844    45A     -0.391260
      46A     -0.381052    47A     -0.331326

  @DF-RHF Final Energy:  -603.10884713232372

   => Energetics <=

    Nuclear Repulsion Energy =            725.1650705374856898
    One-Electron Energy =               -2263.4987056543263861
    Two-Electron Energy =                 935.2247879845169791
    Total Energy =                       -603.1088471323237172
  Basis Set: (AUG-CC-PVTZ AUX)
    Blend: AUG-CC-PVTZ-RI
    Molecular point group: c1

    Geometry (in Angstrom), charge = 0, multiplicity = 1:

       Center              X                  Y                   Z               Mass
    ------------   -----------------  -----------------  -----------------  -----------------
         O           -2.192854770854     1.854909050923    -0.000100408925    15.994914619570
         O           -3.727806770854     0.437585050923    -0.870526408925    15.994914619570
         N           -2.752154770854    -1.681786949077     0.528317591075    14.003074004430
         N            2.013242229146     0.313855050923    -0.255996408925    14.003074004430
         N            3.931638229146     1.278550050923     0.647907591075    14.003074004430
         N            4.049826229146    -0.926551949077    -0.119259408925    14.003074004430
         C           -0.659983770854    -0.403627949077     0.733023591075    12.000000000000
         C           -0.165597770854    -0.698962949077    -0.677531408925    12.000000000000
         C           -2.189001770854    -0.369622949077     0.837087591075    12.000000000000
         C            1.343630229146    -0.897964949077    -0.713536408925    12.000000000000
         C           -2.792322770854     0.641237050923    -0.114191408925    12.000000000000
         C            3.313208229146     0.289932150923     0.065371991075    12.000000000000
         H           -0.241081770854     0.544709050923     1.079638591075     1.007825032230
         H           -0.302767770854    -1.184792949077     1.418323591075     1.007825032230
         H           -0.671676770854    -1.591900949077    -1.059458408925     1.007825032230
         H           -0.417894770854     0.139610050923    -1.337550408925     1.007825032230
         H           -2.453597770854    -0.003076949077     1.846118591075     1.007825032230
         H            1.615108229146    -1.763647949077    -0.086392408925     1.007825032230
         H            1.647269229146    -1.146265949077    -1.745321408925     1.007825032230
         H           -3.730265770854    -1.579566949077     0.263233591075     1.007825032230
         H           -2.712951770854    -2.270268949077     1.357831591075     1.007825032230
         H           -2.662671770854     2.436782050923    -0.633078408925     1.007825032230
         H            3.295894229146     2.068684050923     0.714862591075     1.007825032230
         H            4.790320229146     1.553017050923     0.177851591075     1.007825032230
         H            5.041162229146    -0.818538949077     0.051975591075     1.007825032230
         H            3.831454229146    -1.518506949077    -0.910058408925     1.007825032230

  Basis Set: AUG-CC-PVTZ
    Blend: AUG-CC-PVTZ
  Basis Set: (AUG-CC-PVTZ AUX)
    Blend: AUG-CC-PVTZ-JKFIT
	 Reference Energy          =    -603.1088471323237172 [Eh]
	 Singles Energy            =      -0.0000000000000000 [Eh]
	 Same-Spin Energy          =      -0.6215766163373528 [Eh]
	 Opposite-Spin Energy      =      -1.9554599560170822 [Eh]
	 Correlation Energy        =      -2.5770365723544351 [Eh]
	 Total Energy              =    -605.6858837046781900 [Eh]

	 ================> DF-SCS-MP2 Energies <==================
	-----------------------------------------------------------
	 SCS Same-Spin Scale       =       0.3333333333333333 [-]
	 SCS Opposite-Spin Scale   =       1.2000000000000000 [-]
	 SCS Same-Spin Energy      =      -0.2071922054457843 [Eh]
	 SCS Opposite-Spin Energy  =      -2.3465519472204988 [Eh]
	 SCS Correlation Energy    =      -2.5537441526662832 [Eh]
	 SCS Total Energy          =    -605.6625912849899578 [Eh]
	-----------------------------------------------------------

  Dipole Moment: [D]
     X:     3.8408      Y:     0.8344      Z:     0.6351     Total:     3.9814

*** Psi4 exiting successfully. Buy a developer a beer!
