                               Psi4 1.3.2 release

  ==> Input File <==

--------------------------------------------------------------------------
#psi4
#
memory 32 gb

molecule  {
0 1
  O       -2.2266400     1.8867650    -0.0032170
  O       -3.7615920     0.4694410    -0.8736430
  N       -2.7859400    -1.6499310     0.5252010
  N        2.0242403     0.3226579    -0.2664269
  N        3.8978530     1.3104060     0.6447910
  N        4.0160410    -0.8946960    -0.1223760
  C       -0.6937690    -0.3717720     0.7299070
  C       -0.1993830    -0.6671070    -0.6806480
  C       -2.2227870    -0.3377670     0.8339710
  C        1.3098450    -0.8661090    -0.7166530
  C       -2.8261080     0.6730930    -0.1173080
  C        3.2319800     0.2459460     0.0175660
  H       -0.2748670     0.5765650     1.0765220
  H       -0.3365530    -1.1529370     1.4152070
  H       -0.7054620    -1.5600450    -1.0625750
  H       -0.4516800     0.1714660    -1.3406670
  H       -2.4873830     0.0287790     1.8430020
  H        1.5813230    -1.7317920    -0.0895090
  H        1.6134840    -1.1144100    -1.7484380
  H       -3.7640510    -1.5477110     0.2601170
  H       -2.7467370    -2.2384130     1.3547150
  H       -2.6964570     2.4686380    -0.6361950
  H        3.2621090     2.1005400     0.7117460
  H        4.7565350     1.5848730     0.1747350
  H        5.0073770    -0.7866830     0.0488590
  H        3.7976690    -1.4866510    -0.9131750
units angstrom
no_reorient  #important for SAPT in psi4, default
symmetry c1  #important for SAPT in psi4, default
}

set PROPERTIES_ORIGIN ["COM"]
properties('MP2/aug-cc-pvtz', properties = ['dipole'])
--------------------------------------------------------------------------

    Molecular point group: c1
  Charge       = 0
  Multiplicity = 1
  Basis Set: AUG-CC-PVTZ
    Blend: AUG-CC-PVTZ
  Basis Set: (AUG-CC-PVTZ AUX)
    Blend: AUG-CC-PVTZ-JKFIT

    Orbital Energies [Eh]
    ---------------------

    Doubly Occupied:

       1A    -20.611027     2A    -20.548215     3A    -15.576907
       4A    -15.567817     5A    -15.540754     6A    -15.510100
       7A    -11.383533     8A    -11.331987     9A    -11.272243
      10A    -11.241852    11A    -11.214482    12A    -11.204475
      13A     -1.456670    14A     -1.353394    15A     -1.299812
      16A     -1.190748    17A     -1.164570    18A     -1.162128
      19A     -1.050997    20A     -0.978201    21A     -0.896337
      22A     -0.823366    23A     -0.782170    24A     -0.766180
      25A     -0.715295    26A     -0.703499    27A     -0.700939
      28A     -0.690247    29A     -0.656804    30A     -0.639609
      31A     -0.632801    32A     -0.618911    33A     -0.608610
      34A     -0.595502    35A     -0.570752    36A     -0.552291
      37A     -0.544885    38A     -0.523103    39A     -0.493636
      40A     -0.478464    41A     -0.472506    42A     -0.470055
      43A     -0.441641    44A     -0.436728    45A     -0.395985
      46A     -0.388822    47A     -0.353184

  @DF-RHF Final Energy:  -603.12766643681061

   => Energetics <=

    Nuclear Repulsion Energy =            726.2602935474974402
    One-Electron Energy =               -2265.5514578733004782
    Two-Electron Energy =                 936.1634978889924241
    Total Energy =                       -603.1276664368106140
  Basis Set: (AUG-CC-PVTZ AUX)
    Blend: AUG-CC-PVTZ-RI
    Molecular point group: c1

    Geometry (in Angstrom), charge = 0, multiplicity = 1:

       Center              X                  Y                   Z               Mass
    ------------   -----------------  -----------------  -----------------  -----------------
         O           -2.193186671997     1.861990250161     0.003567868233    15.994914619570
         O           -3.728138671997     0.444666250161    -0.866858131767    15.994914619570
         N           -2.752486671997    -1.674705749839     0.531985868233    14.003074004430
         N            2.057693628003     0.297883150161    -0.259642031767    14.003074004430
         N            3.931306328003     1.285631250161     0.651575868233    14.003074004430
         N            4.049494328003    -0.919470749839    -0.115591131767    14.003074004430
         C           -0.660315671997    -0.396546749839     0.736691868233    12.000000000000
         C           -0.165929671997    -0.691881749839    -0.673863131767    12.000000000000
         C           -2.189333671997    -0.362541749839     0.840755868233    12.000000000000
         C            1.343298328003    -0.890883749839    -0.709868131767    12.000000000000
         C           -2.792654671997     0.648318250161    -0.110523131767    12.000000000000
         C            3.265433328003     0.221171250161     0.024350868233    12.000000000000
         H           -0.241413671997     0.551790250161     1.083306868233     1.007825032230
         H           -0.303099671997    -1.177711749839     1.421991868233     1.007825032230
         H           -0.672008671997    -1.584819749839    -1.055790131767     1.007825032230
         H           -0.418226671997     0.146691250161    -1.333882131767     1.007825032230
         H           -2.453929671997     0.004004250161     1.849786868233     1.007825032230
         H            1.614776328003    -1.756566749839    -0.082724131767     1.007825032230
         H            1.646937328003    -1.139184749839    -1.741653131767     1.007825032230
         H           -3.730597671997    -1.572485749839     0.266901868233     1.007825032230
         H           -2.713283671997    -2.263187749839     1.361499868233     1.007825032230
         H           -2.663003671997     2.443863250161    -0.629410131767     1.007825032230
         H            3.295562328003     2.075765250161     0.718530868233     1.007825032230
         H            4.789988328003     1.560098250161     0.181519868233     1.007825032230
         H            5.040830328003    -0.811457749839     0.055643868233     1.007825032230
         H            3.831122328003    -1.511425749839    -0.906390131767     1.007825032230

  Basis Set: AUG-CC-PVTZ
    Blend: AUG-CC-PVTZ
  Basis Set: (AUG-CC-PVTZ AUX)
    Blend: AUG-CC-PVTZ-JKFIT
	 Reference Energy          =    -603.1276664368106140 [Eh]
	 Singles Energy            =      -0.0000000000000000 [Eh]
	 Same-Spin Energy          =      -0.6193856062711547 [Eh]
	 Opposite-Spin Energy      =      -1.9517754718888081 [Eh]
	 Correlation Energy        =      -2.5711610781599630 [Eh]
	 Total Energy              =    -605.6988275149706169 [Eh]

	 ================> DF-SCS-MP2 Energies <==================
	-----------------------------------------------------------
	 SCS Same-Spin Scale       =       0.3333333333333333 [-]
	 SCS Opposite-Spin Scale   =       1.2000000000000000 [-]
	 SCS Same-Spin Energy      =      -0.2064618687570516 [Eh]
	 SCS Opposite-Spin Energy  =      -2.3421305662665697 [Eh]
	 SCS Correlation Energy    =      -2.5485924350236213 [Eh]
	 SCS Total Energy          =    -605.6762588718341931 [Eh]
	-----------------------------------------------------------

  Dipole Moment: [D]
     X:     3.1259      Y:     0.3183      Z:     0.3115     Total:     3.1574

*** Psi4 exiting successfully. Buy a developer a beer!
