                               Psi4 1.3.2 release

  ==> Input File <==

--------------------------------------------------------------------------
#psi4
#
memory 32 gb

molecule  {
0 1
  O       -2.2266400     1.8867650    -0.0032170
  O       -3.7615920     0.4694410    -0.8736430
  N       -2.7859400    -1.6499310     0.5252010
  N        1.9794570     0.3457110    -0.2591130
  N        3.8978530     1.3104060     0.6447910
  N        4.0160410    -0.8946960    -0.1223760
  C       -0.6937690    -0.3717720     0.7299070
  C       -0.1493909    -0.6638324    -0.6628094
  C       -2.2227870    -0.3377670     0.8339710
  C        1.3098450    -0.8661090    -0.7166530
  C       -2.8261080     0.6730930    -0.1173080
  C        3.2319800     0.2459460     0.0175660
  H       -0.2748670     0.5765650     1.0765220
  H       -0.3365530    -1.1529370     1.4152070
  H       -0.7054620    -1.5600450    -1.0625750
  H       -0.4516800     0.1714660    -1.3406670
  H       -2.4873830     0.0287790     1.8430020
  H        1.5813230    -1.7317920    -0.0895090
  H        1.6134840    -1.1144100    -1.7484380
  H       -3.7640510    -1.5477110     0.2601170
  H       -2.7467370    -2.2384130     1.3547150
  H       -2.6964570     2.4686380    -0.6361950
  H        3.2621090     2.1005400     0.7117460
  H        4.7565350     1.5848730     0.1747350
  H        5.0073770    -0.7866830     0.0488590
  H        3.7976690    -1.4866510    -0.9131750
units angstrom
no_reorient  #important for SAPT in psi4, default
symmetry c1  #important for SAPT in psi4, default
}

set PROPERTIES_ORIGIN ["COM"]
properties('MP2/aug-cc-pvtz', properties = ['dipole'])
--------------------------------------------------------------------------

    Molecular point group: c1
  Charge       = 0
  Multiplicity = 1
  Basis Set: AUG-CC-PVTZ
    Blend: AUG-CC-PVTZ
  Basis Set: (AUG-CC-PVTZ AUX)
    Blend: AUG-CC-PVTZ-JKFIT

    Orbital Energies [Eh]
    ---------------------

    Doubly Occupied:

       1A    -20.609885     2A    -20.547225     3A    -15.583800
       4A    -15.571825     5A    -15.539719     6A    -15.515074
       7A    -11.382579     8A    -11.341772     9A    -11.272016
      10A    -11.236700    11A    -11.212543    12A    -11.203754
      13A     -1.455576    14A     -1.352351    15A     -1.295624
      16A     -1.189619    17A     -1.167871    18A     -1.160033
      19A     -1.048687    20A     -0.978646    21A     -0.894542
      22A     -0.818971    23A     -0.785254    24A     -0.762858
      25A     -0.719843    26A     -0.703370    27A     -0.700972
      28A     -0.689422    29A     -0.656641    30A     -0.638428
      31A     -0.631919    32A     -0.617820    33A     -0.609099
      34A     -0.594883    35A     -0.570518    36A     -0.551517
      37A     -0.538086    38A     -0.521938    39A     -0.499626
      40A     -0.475845    41A     -0.465610    42A     -0.461565
      43A     -0.439590    44A     -0.438496    45A     -0.398988
      46A     -0.391746    47A     -0.347461

  @DF-RHF Final Energy:  -603.12269344308390

   => Energetics <=

    Nuclear Repulsion Energy =            726.0732610460938758
    One-Electron Energy =               -2265.2112948387498363
    Two-Electron Energy =                 936.0153403495720568
    Total Energy =                       -603.1226934430839037
  Basis Set: (AUG-CC-PVTZ AUX)
    Blend: AUG-CC-PVTZ-RI
    Molecular point group: c1

    Geometry (in Angstrom), charge = 0, multiplicity = 1:

       Center              X                  Y                   Z               Mass
    ------------   -----------------  -----------------  -----------------  -----------------
         O           -2.193030458096     1.859910496096     0.001750182649    15.994914619570
         O           -3.727982458096     0.442586496096    -0.868675817351    15.994914619570
         N           -2.752330458096    -1.676785503904     0.530168182649    14.003074004430
         N            2.013066541904     0.318856496096    -0.254145817351    14.003074004430
         N            3.931462541904     1.283551496096     0.649758182649    14.003074004430
         N            4.049650541904    -0.921550503904    -0.117408817351    14.003074004430
         C           -0.660159458096    -0.398626503904     0.734874182649    12.000000000000
         C           -0.115781358096    -0.690686903904    -0.657842217351    12.000000000000
         C           -2.189177458096    -0.364621503904     0.838938182649    12.000000000000
         C            1.343454541904    -0.892963503904    -0.711685817351    12.000000000000
         C           -2.792498458096     0.646238496096    -0.112340817351    12.000000000000
         C            3.265589541904     0.219091496096     0.022533182649    12.000000000000
         H           -0.241257458096     0.549710496096     1.081489182649     1.007825032230
         H           -0.302943458096    -1.179791503904     1.420174182649     1.007825032230
         H           -0.671852458096    -1.586899503904    -1.057607817351     1.007825032230
         H           -0.418070458096     0.144611496096    -1.335699817351     1.007825032230
         H           -2.453773458096     0.001924496096     1.847969182649     1.007825032230
         H            1.614932541904    -1.758646503904    -0.084541817351     1.007825032230
         H            1.647093541904    -1.141264503904    -1.743470817351     1.007825032230
         H           -3.730441458096    -1.574565503904     0.265084182649     1.007825032230
         H           -2.713127458096    -2.265267503904     1.359682182649     1.007825032230
         H           -2.662847458096     2.441783496096    -0.631227817351     1.007825032230
         H            3.295718541904     2.073685496096     0.716713182649     1.007825032230
         H            4.790144541904     1.558018496096     0.179702182649     1.007825032230
         H            5.040986541904    -0.813537503904     0.053826182649     1.007825032230
         H            3.831278541904    -1.513505503904    -0.908207817351     1.007825032230

  Basis Set: AUG-CC-PVTZ
    Blend: AUG-CC-PVTZ
  Basis Set: (AUG-CC-PVTZ AUX)
    Blend: AUG-CC-PVTZ-JKFIT
	 Reference Energy          =    -603.1226934430839037 [Eh]
	 Singles Energy            =      -0.0000000000000000 [Eh]
	 Same-Spin Energy          =      -0.6205840365026680 [Eh]
	 Opposite-Spin Energy      =      -1.9541579208123470 [Eh]
	 Correlation Energy        =      -2.5747419573150152 [Eh]
	 Total Energy              =    -605.6974354003989447 [Eh]

	 ================> DF-SCS-MP2 Energies <==================
	-----------------------------------------------------------
	 SCS Same-Spin Scale       =       0.3333333333333333 [-]
	 SCS Opposite-Spin Scale   =       1.2000000000000000 [-]
	 SCS Same-Spin Energy      =      -0.2068613455008893 [Eh]
	 SCS Opposite-Spin Energy  =      -2.3449895049748162 [Eh]
	 SCS Correlation Energy    =      -2.5518508504757054 [Eh]
	 SCS Total Energy          =    -605.6745442935596202 [Eh]
	-----------------------------------------------------------

  Dipole Moment: [D]
     X:     3.4146      Y:     0.2915      Z:     0.3521     Total:     3.4451

*** Psi4 exiting successfully. Buy a developer a beer!
