                               Psi4 1.4a3.dev225

  ==> Input File <==

--------------------------------------------------------------------------
#psi4
#
memory 32 gb

molecule  {
0 1
  O       -2.2193770     1.8892330     0.0268230
  O       -3.7558620     0.4909310    -0.8718590
  N       -2.7972650    -1.6524490     0.5031070
  N        1.9782870     0.3250840    -0.2428510
  N        3.8986140     1.3191370     0.6232000
  N        4.0945810    -0.8301440    -0.2248910
  C       -0.6989470    -0.3870780     0.7275970
  C       -0.2062790    -0.6613260    -0.6876040
  C       -2.2281040    -0.3472380     0.8304820
  C        1.3017160    -0.8701890    -0.7302520
  C       -2.8235710     0.6804660    -0.1079880
  C        3.2335740     0.2410780     0.0212990
  H       -0.2749720     0.5529910     1.0902940
  H       -0.3479120    -1.1823300     1.4000480
  H       -0.7189380    -1.5432990    -1.0858630
  H       -0.4507980     0.1909300    -1.3325750
  H       -2.4926300     0.0060750     1.8439900
  H        1.5489680    -1.7592400    -0.1213590
  H        1.6102530    -1.0961940    -1.7629760
  H       -3.7667330    -1.5380950     0.2123320
  H       -2.7872020    -2.2442710     1.3309830
  H       -2.6822190     2.4830960    -0.6002000
  H        3.2649643     2.1384028     0.6505500
  H        4.7687340     1.5514780     0.1515250
  H        4.8021180    -0.9483820     0.4927870
  H        3.6261930    -1.7023420    -0.4398710
units angstrom
no_reorient  #important for SAPT in psi4, default
symmetry c1  #important for SAPT in psi4, default
}

set PROPERTIES_ORIGIN ["COM"]
properties('MP2/aug-cc-pvtz', properties = ['dipole'])
--------------------------------------------------------------------------

    Molecular point group: c1
  Charge       = 0
  Multiplicity = 1
  Basis Set: AUG-CC-PVTZ
    Blend: AUG-CC-PVTZ
  Basis Set: (AUG-CC-PVTZ AUX)
    Blend: AUG-CC-PVTZ-JKFIT

    Orbital Energies [Eh]
    ---------------------

    Doubly Occupied:

       1A    -20.611564     2A    -20.548852     3A    -15.582590
       4A    -15.571378     5A    -15.541302     6A    -15.518203
       7A    -11.384182     8A    -11.341558     9A    -11.272927
      10A    -11.243279    11A    -11.215136    12A    -11.204492
      13A     -1.457294    14A     -1.354110    15A     -1.294906
      16A     -1.191339    17A     -1.164297    18A     -1.159423
      19A     -1.049555    20A     -0.976797    21A     -0.895133
      22A     -0.822826    23A     -0.783162    24A     -0.765782
      25A     -0.715420    26A     -0.704419    27A     -0.702260
      28A     -0.692071    29A     -0.657532    30A     -0.636147
      31A     -0.619979    32A     -0.617810    33A     -0.607415
      34A     -0.598392    35A     -0.572916    36A     -0.557338
      37A     -0.543538    38A     -0.526175    39A     -0.493506
      40A     -0.478936    41A     -0.473411    42A     -0.469983
      43A     -0.442243    44A     -0.436151    45A     -0.400131
      46A     -0.392792    47A     -0.350998

  @DF-RHF Final Energy:  -603.12715439736348

   => Energetics <=

    Nuclear Repulsion Energy =            725.2776562989984086
    One-Electron Energy =               -2263.5303210195156680
    Two-Electron Energy =                 935.1255103231537760
    Total Energy =                       -603.1271543973634834
  Basis Set: (AUG-CC-PVTZ AUX)
    Blend: AUG-CC-PVTZ-RI
    Molecular point group: c1

    Geometry (in Angstrom), charge = 0, multiplicity = 1:

       Center              X                  Y                   Z               Mass
    ------------   -----------------  -----------------  -----------------  -----------------
         O           -2.184777824501     1.860123683054     0.037206876003    15.994914619570
         O           -3.721262824501     0.461821683054    -0.861475123997    15.994914619570
         N           -2.762665824501    -1.681558316946     0.513490876003    14.003074004430
         N            2.012886175499     0.295974683054    -0.232467123997    14.003074004430
         N            3.933213175499     1.290027683054     0.633583876003    14.003074004430
         N            4.129180175499    -0.859253316946    -0.214507123997    14.003074004430
         C           -0.664347824501    -0.416187316946     0.737980876003    12.000000000000
         C           -0.171679824501    -0.690435316946    -0.677220123997    12.000000000000
         C           -2.193504824501    -0.376347316946     0.840865876003    12.000000000000
         C            1.336315175499    -0.899298316946    -0.719868123997    12.000000000000
         C           -2.788971824501     0.651356683054    -0.097604123997    12.000000000000
         C            3.268173175499     0.211968683054     0.031682876003    12.000000000000
         H           -0.240372824501     0.523881683054     1.100677876003     1.007825032230
         H           -0.313312824501    -1.211439316946     1.410431876003     1.007825032230
         H           -0.684338824501    -1.572408316946    -1.075479123997     1.007825032230
         H           -0.416198824501     0.161820683054    -1.322191123997     1.007825032230
         H           -2.458030824501    -0.023034316946     1.854373876003     1.007825032230
         H            1.583567175499    -1.788349316946    -0.110975123997     1.007825032230
         H            1.644852175499    -1.125303316946    -1.752592123997     1.007825032230
         H           -3.732133824501    -1.567204316946     0.222715876003     1.007825032230
         H           -2.752602824501    -2.273380316946     1.341366876003     1.007825032230
         H           -2.647619824501     2.453986683054    -0.589816123997     1.007825032230
         H            3.299563475499     2.109293483054     0.660933876003     1.007825032230
         H            4.803333175499     1.522368683054     0.161908876003     1.007825032230
         H            4.836717175499    -0.977491316946     0.503170876003     1.007825032230
         H            3.660792175499    -1.731451316946    -0.429487123997     1.007825032230

  Basis Set: AUG-CC-PVTZ
    Blend: AUG-CC-PVTZ
  Basis Set: (AUG-CC-PVTZ AUX)
    Blend: AUG-CC-PVTZ-JKFIT
	 Reference Energy          =    -603.1271543973634834 [Eh]
	 Singles Energy            =      -0.0000000000000000 [Eh]
	 Same-Spin Energy          =      -0.6202408952278744 [Eh]
	 Opposite-Spin Energy      =      -1.9541199161333032 [Eh]
	 Correlation Energy        =      -2.5743608113611778 [Eh]
	 Total Energy              =    -605.7015152087246861 [Eh]

	 ================> DF-SCS-MP2 Energies <==================
	-----------------------------------------------------------
	 SCS Same-Spin Scale       =       0.3333333333333333 [-]
	 SCS Opposite-Spin Scale   =       1.2000000000000000 [-]
	 SCS Same-Spin Energy      =      -0.2067469650759581 [Eh]
	 SCS Opposite-Spin Energy  =      -2.3449438993599636 [Eh]
	 SCS Correlation Energy    =      -2.5516908644359217 [Eh]
	 SCS Total Energy          =    -605.6788452617994380 [Eh]
	-----------------------------------------------------------

  Dipole Moment: [D]
     X:     2.5061      Y:    -0.2857      Z:     1.6875     Total:     3.0348

*** Psi4 exiting successfully. Buy a developer a beer!
