                               Psi4 1.3.2 release

  ==> Input File <==

--------------------------------------------------------------------------
#psi4
#
memory 32 gb

molecule  {
0 1
  O       -2.2266400     1.8867650    -0.0032170
  O       -3.7615920     0.4694410    -0.8736430
  N       -2.7859400    -1.6499310     0.5252010
  N        1.9793494     0.3663520    -0.2502720
  N        3.8978530     1.3104060     0.6447910
  N        4.0160410    -0.8946960    -0.1223760
  C       -0.6937690    -0.3717720     0.7299070
  C       -0.1993830    -0.6671070    -0.6806480
  C       -2.2227870    -0.3377670     0.8339710
  C        1.3098450    -0.8661090    -0.7166530
  C       -2.8261080     0.6730930    -0.1173080
  C        3.2319800     0.2459460     0.0175660
  H       -0.2748670     0.5765650     1.0765220
  H       -0.3365530    -1.1529370     1.4152070
  H       -0.7054620    -1.5600450    -1.0625750
  H       -0.4516800     0.1714660    -1.3406670
  H       -2.4873830     0.0287790     1.8430020
  H        1.5813230    -1.7317920    -0.0895090
  H        1.6134840    -1.1144100    -1.7484380
  H       -3.7640510    -1.5477110     0.2601170
  H       -2.7467370    -2.2384130     1.3547150
  H       -2.6964570     2.4686380    -0.6361950
  H        3.2621090     2.1005400     0.7117460
  H        4.7565350     1.5848730     0.1747350
  H        5.0073770    -0.7866830     0.0488590
  H        3.7976690    -1.4866510    -0.9131750
units angstrom
no_reorient  #important for SAPT in psi4, default
symmetry c1  #important for SAPT in psi4, default
}

set PROPERTIES_ORIGIN ["COM"]
properties('MP2/aug-cc-pvtz', properties = ['dipole'])
--------------------------------------------------------------------------

    Molecular point group: c1
  Charge       = 0
  Multiplicity = 1
  Basis Set: AUG-CC-PVTZ
    Blend: AUG-CC-PVTZ
  Basis Set: (AUG-CC-PVTZ AUX)
    Blend: AUG-CC-PVTZ-JKFIT

    Orbital Energies [Eh]
    ---------------------

    Doubly Occupied:

       1A    -20.609814     2A    -20.547053     3A    -15.584388
       4A    -15.570294     5A    -15.539540     6A    -15.517072
       7A    -11.382342     8A    -11.341229     9A    -11.270827
      10A    -11.239762    11A    -11.212493    12A    -11.202085
      13A     -1.455471    14A     -1.352225    15A     -1.294753
      16A     -1.189441    17A     -1.167699    18A     -1.154504
      19A     -1.047137    20A     -0.974183    21A     -0.891840
      22A     -0.820366    23A     -0.785073    24A     -0.765037
      25A     -0.718752    26A     -0.702700    27A     -0.700160
      28A     -0.689508    29A     -0.655833    30A     -0.637188
      31A     -0.631164    32A     -0.617693    33A     -0.605744
      34A     -0.592459    35A     -0.569201    36A     -0.550809
      37A     -0.539984    38A     -0.521274    39A     -0.490815
      40A     -0.477289    41A     -0.469668    42A     -0.467274
      43A     -0.440286    44A     -0.438402    45A     -0.399944
      46A     -0.391462    47A     -0.347975

  @DF-RHF Final Energy:  -603.12524983946150

   => Energetics <=

    Nuclear Repulsion Energy =            725.4813049035377617
    One-Electron Energy =               -2264.0726830074627287
    Two-Electron Energy =                 935.4661282644633502
    Total Energy =                       -603.1252498394615031
  Basis Set: (AUG-CC-PVTZ AUX)
    Blend: AUG-CC-PVTZ-RI
    Molecular point group: c1

    Geometry (in Angstrom), charge = 0, multiplicity = 1:

       Center              X                  Y                   Z               Mass
    ------------   -----------------  -----------------  -----------------  -----------------
         O           -2.189576284627     1.858476116411     0.002268597180    15.994914619570
         O           -3.724528284627     0.441152116411    -0.868157402820    15.994914619570
         N           -2.748876284627    -1.678219883589     0.530686597180    14.003074004430
         N            2.016413115373     0.338063116411    -0.244786402820    14.003074004430
         N            3.934916715373     1.282117116411     0.650276597180    14.003074004430
         N            4.053104715373    -0.922984883589    -0.116890402820    14.003074004430
         C           -0.656705284627    -0.400060883589     0.735392597180    12.000000000000
         C           -0.162319284627    -0.695395883589    -0.675162402820    12.000000000000
         C           -2.185723284627    -0.366055883589     0.839456597180    12.000000000000
         C            1.346908715373    -0.894397883589    -0.711167402820    12.000000000000
         C           -2.789044284627     0.644804116411    -0.111822402820    12.000000000000
         C            3.269043715373     0.217657116411     0.023051597180    12.000000000000
         H           -0.237803284627     0.548276116411     1.082007597180     1.007825032230
         H           -0.299489284627    -1.181225883589     1.420692597180     1.007825032230
         H           -0.668398284627    -1.588333883589    -1.057089402820     1.007825032230
         H           -0.414616284627     0.143177116411    -1.335181402820     1.007825032230
         H           -2.450319284627     0.000490116411     1.848487597180     1.007825032230
         H            1.618386715373    -1.760080883589    -0.084023402820     1.007825032230
         H            1.650547715373    -1.142698883589    -1.742952402820     1.007825032230
         H           -3.726987284627    -1.575999883589     0.265602597180     1.007825032230
         H           -2.709673284627    -2.266701883589     1.360200597180     1.007825032230
         H           -2.659393284627     2.440349116411    -0.630709402820     1.007825032230
         H            3.299172715373     2.072251116411     0.717231597180     1.007825032230
         H            4.793598715373     1.556584116411     0.180220597180     1.007825032230
         H            5.044440715373    -0.814971883589     0.054344597180     1.007825032230
         H            3.834732715373    -1.514939883589    -0.907689402820     1.007825032230

  Basis Set: AUG-CC-PVTZ
    Blend: AUG-CC-PVTZ
  Basis Set: (AUG-CC-PVTZ AUX)
    Blend: AUG-CC-PVTZ-JKFIT
	 Reference Energy          =    -603.1252498394615031 [Eh]
	 Singles Energy            =      -0.0000000000000000 [Eh]
	 Same-Spin Energy          =      -0.6202426985024105 [Eh]
	 Opposite-Spin Energy      =      -1.9540786423261349 [Eh]
	 Correlation Energy        =      -2.5743213408285452 [Eh]
	 Total Energy              =    -605.6995711802900360 [Eh]

	 ================> DF-SCS-MP2 Energies <==================
	-----------------------------------------------------------
	 SCS Same-Spin Scale       =       0.3333333333333333 [-]
	 SCS Opposite-Spin Scale   =       1.2000000000000000 [-]
	 SCS Same-Spin Energy      =      -0.2067475661674702 [Eh]
	 SCS Opposite-Spin Energy  =      -2.3448943707913616 [Eh]
	 SCS Correlation Energy    =      -2.5516419369588319 [Eh]
	 SCS Total Energy          =    -605.6768917764203479 [Eh]
	-----------------------------------------------------------

  Dipole Moment: [D]
     X:     3.4044      Y:     0.2278      Z:     0.3187     Total:     3.4268

*** Psi4 exiting successfully. Buy a developer a beer!
