                               Psi4 1.3.2 release

  ==> Input File <==

--------------------------------------------------------------------------
#psi4
#
memory 32 gb

molecule  {
0 1
  O       -2.2266400     1.8867650    -0.0032170
  O       -3.7615920     0.4694410    -0.8736430
  N       -2.7859400    -1.6499310     0.5252010
  N        1.9794570     0.3457110    -0.2591130
  N        3.8978530     1.3104060     0.6447910
  N        4.0160410    -0.8946960    -0.1223760
  C       -0.6937690    -0.3717720     0.7299070
  C       -0.1993830    -0.6671070    -0.6806480
  C       -2.2227870    -0.3377670     0.8339710
  C        1.3098450    -0.8661090    -0.7166530
  C       -2.8261080     0.6730930    -0.1173080
  C        3.2319800     0.2459460     0.0175660
  H       -0.2748670     0.5765650     1.0765220
  H       -0.3365530    -1.1529370     1.4152070
  H       -0.7054620    -1.5600450    -1.0625750
  H       -0.4516800     0.1714660    -1.3406670
  H       -2.4873830     0.0287790     1.8430020
  H        1.5813230    -1.7317920    -0.0895090
  H        1.6134840    -1.1144100    -1.7484380
  H       -3.7640510    -1.5477110     0.2601170
  H       -2.7467370    -2.2384130     1.3547150
  H       -2.6964570     2.4686380    -0.6361950
  H        3.3872125     1.9450552     0.6985704
  H        4.7565350     1.5848730     0.1747350
  H        5.0073770    -0.7866830     0.0488590
  H        3.7976690    -1.4866510    -0.9131750
units angstrom
no_reorient  #important for SAPT in psi4, default
symmetry c1  #important for SAPT in psi4, default
}

set PROPERTIES_ORIGIN ["COM"]
properties('MP2/aug-cc-pvtz', properties = ['dipole'])
--------------------------------------------------------------------------

    Molecular point group: c1
  Charge       = 0
  Multiplicity = 1
  Basis Set: AUG-CC-PVTZ
    Blend: AUG-CC-PVTZ
  Basis Set: (AUG-CC-PVTZ AUX)
    Blend: AUG-CC-PVTZ-JKFIT

    Orbital Energies [Eh]
    ---------------------

    Doubly Occupied:

       1A    -20.609681     2A    -20.546976     3A    -15.583575
       4A    -15.550997     5A    -15.539517     6A    -15.516708
       7A    -11.382265     8A    -11.342500     9A    -11.270819
      10A    -11.239353    11A    -11.212530    12A    -11.202016
      13A     -1.455360    14A     -1.352130    15A     -1.307394
      16A     -1.197760    17A     -1.189305    18A     -1.159701
      19A     -1.047782    20A     -0.975302    21A     -0.894520
      22A     -0.830702    23A     -0.796229    24A     -0.767111
      25A     -0.728437    26A     -0.707442    27A     -0.701692
      28A     -0.692315    29A     -0.659709    30A     -0.655183
      31A     -0.633375    32A     -0.617685    33A     -0.610340
      34A     -0.595310    35A     -0.569725    36A     -0.552823
      37A     -0.541767    38A     -0.523274    39A     -0.491822
      40A     -0.477331    41A     -0.470497    42A     -0.468042
      43A     -0.441079    44A     -0.440266    45A     -0.398919
      46A     -0.391392    47A     -0.348245

  @DF-RHF Final Energy:  -603.08167011516775

   => Energetics <=

    Nuclear Repulsion Energy =            726.8825410294969060
    One-Electron Energy =               -2266.5546164897914423
    Two-Electron Energy =                 936.5904053451267828
    Total Energy =                       -603.0816701151677535
  Basis Set: (AUG-CC-PVTZ AUX)
    Blend: AUG-CC-PVTZ-RI
    Molecular point group: c1

    Geometry (in Angstrom), charge = 0, multiplicity = 1:

       Center              X                  Y                   Z               Mass
    ------------   -----------------  -----------------  -----------------  -----------------
         O           -2.190309085395     1.861036191273     0.003055907257    15.994914619570
         O           -3.725261085395     0.443712191273    -0.867370092743    15.994914619570
         N           -2.749609085395    -1.675659808727     0.531473907257    14.003074004430
         N            2.015787914605     0.319982191273    -0.252840092743    14.003074004430
         N            3.934183914605     1.284677191273     0.651063907257    14.003074004430
         N            4.052371914605    -0.920424808727    -0.116103092743    14.003074004430
         C           -0.657438085395    -0.397500808727     0.736179907257    12.000000000000
         C           -0.163052085395    -0.692835808727    -0.674375092743    12.000000000000
         C           -2.186456085395    -0.363495808727     0.840243907257    12.000000000000
         C            1.346175914605    -0.891837808727    -0.710380092743    12.000000000000
         C           -2.789777085395     0.647364191273    -0.111035092743    12.000000000000
         C            3.268310914605     0.220217191273     0.023838907257    12.000000000000
         H           -0.238536085395     0.550836191273     1.082794907257     1.007825032230
         H           -0.300222085395    -1.178665808727     1.421479907257     1.007825032230
         H           -0.669131085395    -1.585773808727    -1.056302092743     1.007825032230
         H           -0.415349085395     0.145737191273    -1.334394092743     1.007825032230
         H           -2.451052085395     0.003050191273     1.849274907257     1.007825032230
         H            1.617653914605    -1.757520808727    -0.083236092743     1.007825032230
         H            1.649814914605    -1.140138808727    -1.742165092743     1.007825032230
         H           -3.727720085395    -1.573439808727     0.266389907257     1.007825032230
         H           -2.710406085395    -2.264141808727     1.360987907257     1.007825032230
         H           -2.660126085395     2.442909191273    -0.629922092743     1.007825032230
         H            3.423543414605     1.919326391273     0.704843307257     1.007825032230
         H            4.792865914605     1.559144191273     0.181007907257     1.007825032230
         H            5.043707914605    -0.812411808727     0.055131907257     1.007825032230
         H            3.833999914605    -1.512379808727    -0.906902092743     1.007825032230

  Basis Set: AUG-CC-PVTZ
    Blend: AUG-CC-PVTZ
  Basis Set: (AUG-CC-PVTZ AUX)
    Blend: AUG-CC-PVTZ-JKFIT
	 Reference Energy          =    -603.0816701151677535 [Eh]
	 Singles Energy            =      -0.0000000000000000 [Eh]
	 Same-Spin Energy          =      -0.6192227847731988 [Eh]
	 Opposite-Spin Energy      =      -1.9511443723792756 [Eh]
	 Correlation Energy        =      -2.5703671571524742 [Eh]
	 Total Energy              =    -605.6520372723201717 [Eh]

	 ================> DF-SCS-MP2 Energies <==================
	-----------------------------------------------------------
	 SCS Same-Spin Scale       =       0.3333333333333333 [-]
	 SCS Opposite-Spin Scale   =       1.2000000000000000 [-]
	 SCS Same-Spin Energy      =      -0.2064075949243996 [Eh]
	 SCS Opposite-Spin Energy  =      -2.3413732468551305 [Eh]
	 SCS Correlation Energy    =      -2.5477808417795300 [Eh]
	 SCS Total Energy          =    -605.6294509569472666 [Eh]
	-----------------------------------------------------------

  Dipole Moment: [D]
     X:     3.4993      Y:     0.1802      Z:     0.3074     Total:     3.5174

*** Psi4 exiting successfully. Buy a developer a beer!
