                               Psi4 1.3.2 release

  ==> Input File <==

--------------------------------------------------------------------------
#psi4
#
memory 32 gb

molecule  {
0 1
  O       -2.2266400     1.8867650    -0.0032170
  O       -3.7615920     0.4694410    -0.8736430
  N       -2.7859400    -1.6499310     0.5252010
  N        2.0430982     0.2598056    -0.1501842
  N        3.8978530     1.3104060     0.6447910
  N        4.0160410    -0.8946960    -0.1223760
  C       -0.6937690    -0.3717720     0.7299070
  C       -0.1993830    -0.6671070    -0.6806480
  C       -2.2227870    -0.3377670     0.8339710
  C        1.3098450    -0.8661090    -0.7166530
  C       -2.8261080     0.6730930    -0.1173080
  C        3.2319800     0.2459460     0.0175660
  H       -0.2748670     0.5765650     1.0765220
  H       -0.3365530    -1.1529370     1.4152070
  H       -0.7054620    -1.5600450    -1.0625750
  H       -0.4516800     0.1714660    -1.3406670
  H       -2.4873830     0.0287790     1.8430020
  H        1.5813230    -1.7317920    -0.0895090
  H        1.6134840    -1.1144100    -1.7484380
  H       -3.7640510    -1.5477110     0.2601170
  H       -2.7467370    -2.2384130     1.3547150
  H       -2.6964570     2.4686380    -0.6361950
  H        3.2621090     2.1005400     0.7117460
  H        4.7565350     1.5848730     0.1747350
  H        5.0073770    -0.7866830     0.0488590
  H        3.7976690    -1.4866510    -0.9131750
units angstrom
no_reorient  #important for SAPT in psi4, default
symmetry c1  #important for SAPT in psi4, default
}

set PROPERTIES_ORIGIN ["COM"]
properties('MP2/aug-cc-pvtz', properties = ['dipole'])
--------------------------------------------------------------------------

    Molecular point group: c1
  Charge       = 0
  Multiplicity = 1
  Basis Set: AUG-CC-PVTZ
    Blend: AUG-CC-PVTZ
  Basis Set: (AUG-CC-PVTZ AUX)
    Blend: AUG-CC-PVTZ-JKFIT

    Orbital Energies [Eh]
    ---------------------

    Doubly Occupied:

       1A    -20.611832     2A    -20.548917     3A    -15.570974
       4A    -15.563773     5A    -15.541249     6A    -15.503778
       7A    -11.384200     8A    -11.321583     9A    -11.272724
      10A    -11.245440    11A    -11.214931    12A    -11.206611
      13A     -1.457439    14A     -1.354129    15A     -1.306509
      16A     -1.191277    17A     -1.167299    18A     -1.159911
      19A     -1.054062    20A     -0.981569    21A     -0.899155
      22A     -0.825638    23A     -0.779674    24A     -0.765932
      25A     -0.712493    26A     -0.704036    27A     -0.701804
      28A     -0.688522    29A     -0.657292    30A     -0.637476
      31A     -0.635908    32A     -0.619587    33A     -0.611670
      34A     -0.596252    35A     -0.571497    36A     -0.555007
      37A     -0.544788    38A     -0.527002    39A     -0.494738
      40A     -0.479207    41A     -0.476726    42A     -0.470030
      43A     -0.442424    44A     -0.433136    45A     -0.395943
      46A     -0.385569    47A     -0.356387

  @DF-RHF Final Energy:  -603.11993456225298

   => Energetics <=

    Nuclear Repulsion Energy =            727.3393497408997064
    One-Electron Energy =               -2267.6663641187897156
    Two-Electron Energy =                 937.2070798156370302
    Total Energy =                       -603.1199345622529790
  Basis Set: (AUG-CC-PVTZ AUX)
    Blend: AUG-CC-PVTZ-RI
    Molecular point group: c1

    Geometry (in Angstrom), charge = 0, multiplicity = 1:

       Center              X                  Y                   Z               Mass
    ------------   -----------------  -----------------  -----------------  -----------------
         O           -2.194703334037     1.867045197824    -0.005781046043    15.994914619570
         O           -3.729655334037     0.449721197824    -0.876207046043    15.994914619570
         N           -2.754003334037    -1.669650802176     0.522636953957    14.003074004430
         N            2.075034865963     0.240085797824    -0.152748246043    14.003074004430
         N            3.929789665963     1.290686197824     0.642226953957    14.003074004430
         N            4.047977665963    -0.914415802176    -0.124940046043    14.003074004430
         C           -0.661832334037    -0.391491802176     0.727342953957    12.000000000000
         C           -0.167446334037    -0.686826802176    -0.683212046043    12.000000000000
         C           -2.190850334037    -0.357486802176     0.831406953957    12.000000000000
         C            1.341781665963    -0.885828802176    -0.719217046043    12.000000000000
         C           -2.794171334037     0.653373197824    -0.119872046043    12.000000000000
         C            3.263916665963     0.226226197824     0.015001953957    12.000000000000
         H           -0.242930334037     0.556845197824     1.073957953957     1.007825032230
         H           -0.304616334037    -1.172656802176     1.412642953957     1.007825032230
         H           -0.673525334037    -1.579764802176    -1.065139046043     1.007825032230
         H           -0.419743334037     0.151746197824    -1.343231046043     1.007825032230
         H           -2.455446334037     0.009059197824     1.840437953957     1.007825032230
         H            1.613259665963    -1.751511802176    -0.092073046043     1.007825032230
         H            1.645420665963    -1.134129802176    -1.751002046043     1.007825032230
         H           -3.732114334037    -1.567430802176     0.257552953957     1.007825032230
         H           -2.714800334037    -2.258132802176     1.352150953957     1.007825032230
         H           -2.664520334037     2.448918197824    -0.638759046043     1.007825032230
         H            3.294045665963     2.080820197824     0.709181953957     1.007825032230
         H            4.788471665963     1.565153197824     0.172170953957     1.007825032230
         H            5.039313665963    -0.806402802176     0.046294953957     1.007825032230
         H            3.829605665963    -1.506370802176    -0.915739046043     1.007825032230

  Basis Set: AUG-CC-PVTZ
    Blend: AUG-CC-PVTZ
  Basis Set: (AUG-CC-PVTZ AUX)
    Blend: AUG-CC-PVTZ-JKFIT
	 Reference Energy          =    -603.1199345622529790 [Eh]
	 Singles Energy            =      -0.0000000000000000 [Eh]
	 Same-Spin Energy          =      -0.6189304763361290 [Eh]
	 Opposite-Spin Energy      =      -1.9505037430626768 [Eh]
	 Correlation Energy        =      -2.5694342193988060 [Eh]
	 Total Energy              =    -605.6893687816517513 [Eh]

	 ================> DF-SCS-MP2 Energies <==================
	-----------------------------------------------------------
	 SCS Same-Spin Scale       =       0.3333333333333333 [-]
	 SCS Opposite-Spin Scale   =       1.2000000000000000 [-]
	 SCS Same-Spin Energy      =      -0.2063101587787096 [Eh]
	 SCS Opposite-Spin Energy  =      -2.3406044916752120 [Eh]
	 SCS Correlation Energy    =      -2.5469146504539215 [Eh]
	 SCS Total Energy          =    -605.6668492127068930 [Eh]
	-----------------------------------------------------------

  Dipole Moment: [D]
     X:     2.9022      Y:     0.4250      Z:     0.0736     Total:     2.9340

*** Psi4 exiting successfully. Buy a developer a beer!
