                               Psi4 1.3.2 release

  ==> Input File <==

--------------------------------------------------------------------------
#psi4
#
memory 32 gb

molecule  {
0 1
  O       -2.2266400     1.8867650    -0.0032170
  O       -3.7615920     0.4694410    -0.8736430
  N       -2.7859400    -1.6499310     0.5252010
  N        1.9794570     0.3457110    -0.2591130
  N        3.8978530     1.3104060     0.6447910
  N        4.0160410    -0.8946960    -0.1223760
  C       -0.6937690    -0.3717720     0.7299070
  C       -0.1993830    -0.6671070    -0.6806480
  C       -2.2227870    -0.3377670     0.8339710
  C        1.3318003    -0.8787941    -0.7144796
  C       -2.8261080     0.6730930    -0.1173080
  C        3.2319800     0.2459460     0.0175660
  H       -0.2748670     0.5765650     1.0765220
  H       -0.3365530    -1.1529370     1.4152070
  H       -0.7054620    -1.5600450    -1.0625750
  H       -0.4516800     0.1714660    -1.3406670
  H       -2.4873830     0.0287790     1.8430020
  H        1.5813230    -1.7317920    -0.0895090
  H        1.6134840    -1.1144100    -1.7484380
  H       -3.7640510    -1.5477110     0.2601170
  H       -2.7467370    -2.2384130     1.3547150
  H       -2.6964570     2.4686380    -0.6361950
  H        3.2621090     2.1005400     0.7117460
  H        4.7565350     1.5848730     0.1747350
  H        5.0073770    -0.7866830     0.0488590
  H        3.7976690    -1.4866510    -0.9131750
units angstrom
no_reorient  #important for SAPT in psi4, default
symmetry c1  #important for SAPT in psi4, default
}

set PROPERTIES_ORIGIN ["COM"]
properties('MP2/aug-cc-pvtz', properties = ['dipole'])
--------------------------------------------------------------------------

    Molecular point group: c1
  Charge       = 0
  Multiplicity = 1
  Basis Set: AUG-CC-PVTZ
    Blend: AUG-CC-PVTZ
  Basis Set: (AUG-CC-PVTZ AUX)
    Blend: AUG-CC-PVTZ-JKFIT

    Orbital Energies [Eh]
    ---------------------

    Doubly Occupied:

       1A    -20.609616     2A    -20.546799     3A    -15.583704
       4A    -15.571792     5A    -15.539175     6A    -15.515715
       7A    -11.382088     8A    -11.341507     9A    -11.270507
      10A    -11.237052    11A    -11.212040    12A    -11.202087
      13A     -1.455249    14A     -1.351990    15A     -1.295778
      16A     -1.189065    17A     -1.167903    18A     -1.157939
      19A     -1.044919    20A     -0.972163    21A     -0.892733
      22A     -0.821056    23A     -0.785047    24A     -0.764885
      25A     -0.719383    26A     -0.702737    27A     -0.700431
      28A     -0.689925    29A     -0.655260    30A     -0.637910
      31A     -0.631963    32A     -0.617449    33A     -0.606694
      34A     -0.594815    35A     -0.568646    36A     -0.550483
      37A     -0.540847    38A     -0.521825    39A     -0.489027
      40A     -0.477192    41A     -0.470966    42A     -0.465139
      43A     -0.440063    44A     -0.437795    45A     -0.399351
      46A     -0.391099    47A     -0.347822

  @DF-RHF Final Energy:  -603.12557217635663

   => Energetics <=

    Nuclear Repulsion Energy =            725.5318266092876911
    One-Electron Energy =               -2264.1795352741805800
    Two-Electron Energy =                 935.5221364885362618
    Total Energy =                       -603.1255721763566271
  Basis Set: (AUG-CC-PVTZ AUX)
    Blend: AUG-CC-PVTZ-RI
    Molecular point group: c1

    Geometry (in Angstrom), charge = 0, multiplicity = 1:

       Center              X                  Y                   Z               Mass
    ------------   -----------------  -----------------  -----------------  -----------------
         O           -2.191098125881     1.861010459089     0.002829848324    15.994914619570
         O           -3.726050125881     0.443686459089    -0.867596151676    15.994914619570
         N           -2.750398125881    -1.675685540911     0.531247848324    14.003074004430
         N            2.014998874119     0.319956459089    -0.253066151676    14.003074004430
         N            3.933394874119     1.284651459089     0.650837848324    14.003074004430
         N            4.051582874119    -0.920450540911    -0.116329151676    14.003074004430
         C           -0.658227125881    -0.397526540911     0.735953848324    12.000000000000
         C           -0.163841125881    -0.692861540911    -0.674601151676    12.000000000000
         C           -2.187245125881    -0.363521540911     0.840017848324    12.000000000000
         C            1.367342174119    -0.904548640911    -0.708432751676    12.000000000000
         C           -2.790566125881     0.647338459089    -0.111261151676    12.000000000000
         C            3.267521874119     0.220191459089     0.023612848324    12.000000000000
         H           -0.239325125881     0.550810459089     1.082568848324     1.007825032230
         H           -0.301011125881    -1.178691540911     1.421253848324     1.007825032230
         H           -0.669920125881    -1.585799540911    -1.056528151676     1.007825032230
         H           -0.416138125881     0.145711459089    -1.334620151676     1.007825032230
         H           -2.451841125881     0.003024459089     1.849048848324     1.007825032230
         H            1.616864874119    -1.757546540911    -0.083462151676     1.007825032230
         H            1.649025874119    -1.140164540911    -1.742391151676     1.007825032230
         H           -3.728509125881    -1.573465540911     0.266163848324     1.007825032230
         H           -2.711195125881    -2.264167540911     1.360761848324     1.007825032230
         H           -2.660915125881     2.442883459089    -0.630148151676     1.007825032230
         H            3.297650874119     2.074785459089     0.717792848324     1.007825032230
         H            4.792076874119     1.559118459089     0.180781848324     1.007825032230
         H            5.042918874119    -0.812437540911     0.054905848324     1.007825032230
         H            3.833210874119    -1.512405540911    -0.907128151676     1.007825032230

  Basis Set: AUG-CC-PVTZ
    Blend: AUG-CC-PVTZ
  Basis Set: (AUG-CC-PVTZ AUX)
    Blend: AUG-CC-PVTZ-JKFIT
	 Reference Energy          =    -603.1255721763566271 [Eh]
	 Singles Energy            =      -0.0000000000000000 [Eh]
	 Same-Spin Energy          =      -0.6201781268648485 [Eh]
	 Opposite-Spin Energy      =      -1.9537803818301125 [Eh]
	 Correlation Energy        =      -2.5739585086949610 [Eh]
	 Total Energy              =    -605.6995306850516272 [Eh]

	 ================> DF-SCS-MP2 Energies <==================
	-----------------------------------------------------------
	 SCS Same-Spin Scale       =       0.3333333333333333 [-]
	 SCS Opposite-Spin Scale   =       1.2000000000000000 [-]
	 SCS Same-Spin Energy      =      -0.2067260422882828 [Eh]
	 SCS Opposite-Spin Energy  =      -2.3445364581961350 [Eh]
	 SCS Correlation Energy    =      -2.5512625004844178 [Eh]
	 SCS Total Energy          =    -605.6768346768410538 [Eh]
	-----------------------------------------------------------

  Dipole Moment: [D]
     X:     3.4597      Y:     0.2839      Z:     0.3497     Total:     3.4889

*** Psi4 exiting successfully. Buy a developer a beer!
