                               Psi4 1.3.2 release

  ==> Input File <==

--------------------------------------------------------------------------
#psi4
#
memory 32 gb

molecule  {
0 1
  O       -2.2266400     1.8867650    -0.0032170
  O       -3.7615920     0.4694410    -0.8736430
  N       -2.7859400    -1.6499310     0.5252010
  N        1.9794570     0.3457110    -0.2591130
  N        3.8978530     1.3104060     0.6447910
  N        4.0160410    -0.8946960    -0.1223760
  C       -0.6937690    -0.3717720     0.7299070
  C       -0.1993830    -0.6671070    -0.6806480
  C       -2.2227870    -0.3377670     0.8339710
  C        1.3098450    -0.8661090    -0.7166530
  C       -2.8261080     0.6730930    -0.1173080
  C        3.2119393     0.2598996     0.0156393
  H       -0.2748670     0.5765650     1.0765220
  H       -0.3365530    -1.1529370     1.4152070
  H       -0.7054620    -1.5600450    -1.0625750
  H       -0.4516800     0.1714660    -1.3406670
  H       -2.4873830     0.0287790     1.8430020
  H        1.5813230    -1.7317920    -0.0895090
  H        1.6134840    -1.1144100    -1.7484380
  H       -3.7640510    -1.5477110     0.2601170
  H       -2.7467370    -2.2384130     1.3547150
  H       -2.6964570     2.4686380    -0.6361950
  H        3.2621090     2.1005400     0.7117460
  H        4.7565350     1.5848730     0.1747350
  H        5.0073770    -0.7866830     0.0488590
  H        3.7976690    -1.4866510    -0.9131750
units angstrom
no_reorient  #important for SAPT in psi4, default
symmetry c1  #important for SAPT in psi4, default
}

set PROPERTIES_ORIGIN ["COM"]
properties('MP2/aug-cc-pvtz', properties = ['dipole'])
--------------------------------------------------------------------------

    Molecular point group: c1
  Charge       = 0
  Multiplicity = 1
  Basis Set: AUG-CC-PVTZ
    Blend: AUG-CC-PVTZ
  Basis Set: (AUG-CC-PVTZ AUX)
    Blend: AUG-CC-PVTZ-JKFIT

    Orbital Energies [Eh]
    ---------------------

    Doubly Occupied:

       1A    -20.610501     2A    -20.547688     3A    -15.579144
       4A    -15.570939     5A    -15.540138     6A    -15.516713
       7A    -11.382996     8A    -11.339808     9A    -11.271594
      10A    -11.240864    11A    -11.213533    12A    -11.202999
      13A     -1.456141    14A     -1.352871    15A     -1.293791
      16A     -1.190144    17A     -1.165021    18A     -1.159853
      19A     -1.049231    20A     -0.976518    21A     -0.894511
      22A     -0.821583    23A     -0.781950    24A     -0.765066
      25A     -0.714865    26A     -0.702724    27A     -0.700940
      28A     -0.690639    29A     -0.656305    30A     -0.638386
      31A     -0.630549    32A     -0.618351    33A     -0.608383
      34A     -0.594228    35A     -0.569794    36A     -0.550602
      37A     -0.542561    38A     -0.521624    39A     -0.492621
      40A     -0.477999    41A     -0.470972    42A     -0.468840
      43A     -0.441021    44A     -0.436810    45A     -0.398830
      46A     -0.391980    47A     -0.352693

  @DF-RHF Final Energy:  -603.12625750745792

   => Energetics <=

    Nuclear Repulsion Energy =            725.9123009627326155
    One-Electron Energy =               -2264.8864933154059145
    Two-Electron Energy =                 935.8479348452153772
    Total Energy =                       -603.1262575074579217
  Basis Set: (AUG-CC-PVTZ AUX)
    Blend: AUG-CC-PVTZ-RI
    Molecular point group: c1

    Geometry (in Angstrom), charge = 0, multiplicity = 1:

       Center              X                  Y                   Z               Mass
    ------------   -----------------  -----------------  -----------------  -----------------
         O           -2.188203707698     1.859174485719     0.003112432475    15.994914619570
         O           -3.723155707698     0.441850485719    -0.867313567525    15.994914619570
         N           -2.747503707698    -1.677521514281     0.531530432475    14.003074004430
         N            2.017893292302     0.318120485719    -0.252783567525    14.003074004430
         N            3.936289292302     1.282815485719     0.651120432475    14.003074004430
         N            4.054477292302    -0.922286514281    -0.116046567525    14.003074004430
         C           -0.655332707698    -0.399362514281     0.736236432475    12.000000000000
         C           -0.160946707698    -0.694697514281    -0.674318567525    12.000000000000
         C           -2.184350707698    -0.365357514281     0.840300432475    12.000000000000
         C            1.348281292302    -0.893699514281    -0.710323567525    12.000000000000
         C           -2.787671707698     0.645502485719    -0.110978567525    12.000000000000
         C            3.250375592302     0.232309085719     0.021968732475    12.000000000000
         H           -0.236430707698     0.548974485719     1.082851432475     1.007825032230
         H           -0.298116707698    -1.180527514281     1.421536432475     1.007825032230
         H           -0.667025707698    -1.587635514281    -1.056245567525     1.007825032230
         H           -0.413243707698     0.143875485719    -1.334337567525     1.007825032230
         H           -2.448946707698     0.001188485719     1.849331432475     1.007825032230
         H            1.619759292302    -1.759382514281    -0.083179567525     1.007825032230
         H            1.651920292302    -1.142000514281    -1.742108567525     1.007825032230
         H           -3.725614707698    -1.575301514281     0.266446432475     1.007825032230
         H           -2.708300707698    -2.266003514281     1.361044432475     1.007825032230
         H           -2.658020707698     2.441047485719    -0.629865567525     1.007825032230
         H            3.300545292302     2.072949485719     0.718075432475     1.007825032230
         H            4.794971292302     1.557282485719     0.181064432475     1.007825032230
         H            5.045813292302    -0.814273514281     0.055188432475     1.007825032230
         H            3.836105292302    -1.514241514281    -0.906845567525     1.007825032230

  Basis Set: AUG-CC-PVTZ
    Blend: AUG-CC-PVTZ
  Basis Set: (AUG-CC-PVTZ AUX)
    Blend: AUG-CC-PVTZ-JKFIT
	 Reference Energy          =    -603.1262575074579217 [Eh]
	 Singles Energy            =      -0.0000000000000000 [Eh]
	 Same-Spin Energy          =      -0.6199088935057592 [Eh]
	 Opposite-Spin Energy      =      -1.9533452027077367 [Eh]
	 Correlation Energy        =      -2.5732540962134958 [Eh]
	 Total Energy              =    -605.6995116036714535 [Eh]

	 ================> DF-SCS-MP2 Energies <==================
	-----------------------------------------------------------
	 SCS Same-Spin Scale       =       0.3333333333333333 [-]
	 SCS Opposite-Spin Scale   =       1.2000000000000000 [-]
	 SCS Same-Spin Energy      =      -0.2066362978352531 [Eh]
	 SCS Opposite-Spin Energy  =      -2.3440142432492839 [Eh]
	 SCS Correlation Energy    =      -2.5506505410845368 [Eh]
	 SCS Total Energy          =    -605.6769080485424865 [Eh]
	-----------------------------------------------------------

  Dipole Moment: [D]
     X:     3.2320      Y:     0.3635      Z:     0.3273     Total:     3.2689

*** Psi4 exiting successfully. Buy a developer a beer!
