                               Psi4 1.3.2 release

  ==> Input File <==

--------------------------------------------------------------------------
#psi4
#
memory 32 gb

molecule  {
0 1
  O       -2.2266400     1.8867650    -0.0032170
  O       -3.7615920     0.4694410    -0.8736430
  N       -2.7859400    -1.6499310     0.5252010
  N        1.9794570     0.3457110    -0.2591130
  N        3.9766543     1.2526023     0.6515821
  N        4.0160410    -0.8946960    -0.1223760
  C       -0.6937690    -0.3717720     0.7299070
  C       -0.1993830    -0.6671070    -0.6806480
  C       -2.2227870    -0.3377670     0.8339710
  C        1.3098450    -0.8661090    -0.7166530
  C       -2.8261080     0.6730930    -0.1173080
  C        3.2319800     0.2459460     0.0175660
  H       -0.2748670     0.5765650     1.0765220
  H       -0.3365530    -1.1529370     1.4152070
  H       -0.7054620    -1.5600450    -1.0625750
  H       -0.4516800     0.1714660    -1.3406670
  H       -2.4873830     0.0287790     1.8430020
  H        1.5813230    -1.7317920    -0.0895090
  H        1.6134840    -1.1144100    -1.7484380
  H       -3.7640510    -1.5477110     0.2601170
  H       -2.7467370    -2.2384130     1.3547150
  H       -2.6964570     2.4686380    -0.6361950
  H        3.2621090     2.1005400     0.7117460
  H        4.7565350     1.5848730     0.1747350
  H        5.0073770    -0.7866830     0.0488590
  H        3.7976690    -1.4866510    -0.9131750
units angstrom
no_reorient  #important for SAPT in psi4, default
symmetry c1  #important for SAPT in psi4, default
}

set PROPERTIES_ORIGIN ["COM"]
properties('MP2/aug-cc-pvtz', properties = ['dipole'])
--------------------------------------------------------------------------

    Molecular point group: c1
  Charge       = 0
  Multiplicity = 1
  Basis Set: AUG-CC-PVTZ
    Blend: AUG-CC-PVTZ
  Basis Set: (AUG-CC-PVTZ AUX)
    Blend: AUG-CC-PVTZ-JKFIT

    Orbital Energies [Eh]
    ---------------------

    Doubly Occupied:

       1A    -20.610390     2A    -20.547588     3A    -15.579480
       4A    -15.576640     5A    -15.540043     6A    -15.519580
       7A    -11.382890     8A    -11.342921     9A    -11.271457
      10A    -11.240830    11A    -11.213329    12A    -11.202979
      13A     -1.456034    14A     -1.352769    15A     -1.296102
      16A     -1.190056    17A     -1.163855    18A     -1.159443
      19A     -1.048340    20A     -0.975557    21A     -0.893963
      22A     -0.822987    23A     -0.783656    24A     -0.764741
      25A     -0.716843    26A     -0.705263    27A     -0.701676
      28A     -0.691563    29A     -0.656331    30A     -0.638001
      31A     -0.622772    32A     -0.618092    33A     -0.602514
      34A     -0.587359    35A     -0.569072    36A     -0.548797
      37A     -0.542685    38A     -0.521526    39A     -0.493064
      40A     -0.478006    41A     -0.471165    42A     -0.469129
      43A     -0.440924    44A     -0.439076    45A     -0.399762
      46A     -0.392106    47A     -0.350784

  @DF-RHF Final Energy:  -603.11343346110414

   => Energetics <=

    Nuclear Repulsion Energy =            725.3433998322307161
    One-Electron Energy =               -2263.7293859481064828
    Two-Electron Energy =                 935.2725526547716299
    Total Energy =                       -603.1134334611041368
  Basis Set: (AUG-CC-PVTZ AUX)
    Blend: AUG-CC-PVTZ-RI
    Molecular point group: c1

    Geometry (in Angstrom), charge = 0, multiplicity = 1:

       Center              X                  Y                   Z               Mass
    ------------   -----------------  -----------------  -----------------  -----------------
         O           -2.195922597486     1.864785095605     0.002433462065    15.994914619570
         O           -3.730874597486     0.447461095605    -0.867992537935    15.994914619570
         N           -2.755222597486    -1.671910904395     0.530851462065    14.003074004430
         N            2.010174402514     0.323731095605    -0.253462537935    14.003074004430
         N            4.007371702514     1.230622395605     0.657232562065    14.003074004430
         N            4.046758402514    -0.916675904395    -0.116725537935    14.003074004430
         C           -0.663051597486    -0.393751904395     0.735557462065    12.000000000000
         C           -0.168665597486    -0.689086904395    -0.674997537935    12.000000000000
         C           -2.192069597486    -0.359746904395     0.839621462065    12.000000000000
         C            1.340562402514    -0.888088904395    -0.711002537935    12.000000000000
         C           -2.795390597486     0.651113095605    -0.111657537935    12.000000000000
         C            3.262697402514     0.223966095605     0.023216462065    12.000000000000
         H           -0.244149597486     0.554585095605     1.082172462065     1.007825032230
         H           -0.305835597486    -1.174916904395     1.420857462065     1.007825032230
         H           -0.674744597486    -1.582024904395    -1.056924537935     1.007825032230
         H           -0.420962597486     0.149486095605    -1.335016537935     1.007825032230
         H           -2.456665597486     0.006799095605     1.848652462065     1.007825032230
         H            1.612040402514    -1.753771904395    -0.083858537935     1.007825032230
         H            1.644201402514    -1.136389904395    -1.742787537935     1.007825032230
         H           -3.733333597486    -1.569690904395     0.265767462065     1.007825032230
         H           -2.716019597486    -2.260392904395     1.360365462065     1.007825032230
         H           -2.665739597486     2.446658095605    -0.630544537935     1.007825032230
         H            3.292826402514     2.078560095605     0.717396462065     1.007825032230
         H            4.787252402514     1.562893095605     0.180385462065     1.007825032230
         H            5.038094402514    -0.808662904395     0.054509462065     1.007825032230
         H            3.828386402514    -1.508630904395    -0.907524537935     1.007825032230

  Basis Set: AUG-CC-PVTZ
    Blend: AUG-CC-PVTZ
  Basis Set: (AUG-CC-PVTZ AUX)
    Blend: AUG-CC-PVTZ-JKFIT
	 Reference Energy          =    -603.1134334611041368 [Eh]
	 Singles Energy            =      -0.0000000000000000 [Eh]
	 Same-Spin Energy          =      -0.6209030556591025 [Eh]
	 Opposite-Spin Energy      =      -1.9555363195007023 [Eh]
	 Correlation Energy        =      -2.5764393751598047 [Eh]
	 Total Energy              =    -605.6898728362639304 [Eh]

	 ================> DF-SCS-MP2 Energies <==================
	-----------------------------------------------------------
	 SCS Same-Spin Scale       =       0.3333333333333333 [-]
	 SCS Opposite-Spin Scale   =       1.2000000000000000 [-]
	 SCS Same-Spin Energy      =      -0.2069676852197008 [Eh]
	 SCS Opposite-Spin Energy  =      -2.3466435834008426 [Eh]
	 SCS Correlation Energy    =      -2.5536112686205432 [Eh]
	 SCS Total Energy          =    -605.6670447297246938 [Eh]
	-----------------------------------------------------------

  Dipole Moment: [D]
     X:     3.2150      Y:     0.3337      Z:     0.2721     Total:     3.2437

*** Psi4 exiting successfully. Buy a developer a beer!
