                               Psi4 1.3.2 release

  ==> Input File <==

--------------------------------------------------------------------------
#psi4
#
memory 32 gb

molecule  {
0 1
  O       -2.2266400     1.8867650    -0.0032170
  O       -3.7615920     0.4694410    -0.8736430
  N       -2.7859400    -1.6499310     0.5252010
  N        2.0015221     0.3185075    -0.2221862
  N        3.8978530     1.3104060     0.6447910
  N        4.0160410    -0.8946960    -0.1223760
  C       -0.6937690    -0.3717720     0.7299070
  C       -0.1993830    -0.6671070    -0.6806480
  C       -2.2227870    -0.3377670     0.8339710
  C        1.3098450    -0.8661090    -0.7166530
  C       -2.8261080     0.6730930    -0.1173080
  C        3.2319800     0.2459460     0.0175660
  H       -0.2748670     0.5765650     1.0765220
  H       -0.3365530    -1.1529370     1.4152070
  H       -0.7054620    -1.5600450    -1.0625750
  H       -0.4516800     0.1714660    -1.3406670
  H       -2.4873830     0.0287790     1.8430020
  H        1.5813230    -1.7317920    -0.0895090
  H        1.6134840    -1.1144100    -1.7484380
  H       -3.7640510    -1.5477110     0.2601170
  H       -2.7467370    -2.2384130     1.3547150
  H       -2.6964570     2.4686380    -0.6361950
  H        3.2621090     2.1005400     0.7117460
  H        4.7565350     1.5848730     0.1747350
  H        5.0073770    -0.7866830     0.0488590
  H        3.7976690    -1.4866510    -0.9131750
units angstrom
no_reorient  #important for SAPT in psi4, default
symmetry c1  #important for SAPT in psi4, default
}

set PROPERTIES_ORIGIN ["COM"]
properties('MP2/aug-cc-pvtz', properties = ['dipole'])
--------------------------------------------------------------------------

    Molecular point group: c1
  Charge       = 0
  Multiplicity = 1
  Basis Set: AUG-CC-PVTZ
    Blend: AUG-CC-PVTZ
  Basis Set: (AUG-CC-PVTZ AUX)
    Blend: AUG-CC-PVTZ-JKFIT

    Orbital Energies [Eh]
    ---------------------

    Doubly Occupied:

       1A    -20.610508     2A    -20.547678     3A    -15.579286
       4A    -15.568822     5A    -15.540092     6A    -15.511537
       7A    -11.382967     8A    -11.334642     9A    -11.271465
      10A    -11.240807    11A    -11.213305    12A    -11.203397
      13A     -1.456142    14A     -1.352869    15A     -1.298385
      16A     -1.190062    17A     -1.165207    18A     -1.161410
      19A     -1.049476    20A     -0.976869    21A     -0.894883
      22A     -0.822638    23A     -0.782823    24A     -0.765618
      25A     -0.716670    26A     -0.703155    27A     -0.700823
      28A     -0.689502    29A     -0.656317    30A     -0.637942
      31A     -0.632928    32A     -0.618344    33A     -0.608954
      34A     -0.594416    35A     -0.570052    36A     -0.552145
      37A     -0.542124    38A     -0.523800    39A     -0.492674
      40A     -0.477907    41A     -0.472248    42A     -0.468690
      43A     -0.441005    44A     -0.436805    45A     -0.396139
      46A     -0.389862    47A     -0.351166

  @DF-RHF Final Energy:  -603.12745391779947

   => Energetics <=

    Nuclear Repulsion Energy =            726.2952975070049888
    One-Electron Energy =               -2265.6563964895331083
    Two-Electron Energy =                 936.2336450647286483
    Total Energy =                       -603.1274539177994711
  Basis Set: (AUG-CC-PVTZ AUX)
    Blend: AUG-CC-PVTZ-RI
    Molecular point group: c1

    Geometry (in Angstrom), charge = 0, multiplicity = 1:

       Center              X                  Y                   Z               Mass
    ------------   -----------------  -----------------  -----------------  -----------------
         O           -2.191359542170     1.862324049478     0.000009773731    15.994914619570
         O           -3.726311542170     0.445000049478    -0.870416226269    15.994914619570
         N           -2.750659542170    -1.674371950522     0.528427773731    14.003074004430
         N            2.036802557830     0.294066549478    -0.218959426269    14.003074004430
         N            3.933133457830     1.285965049478     0.648017773731    14.003074004430
         N            4.051321457830    -0.919136950522    -0.119149226269    14.003074004430
         C           -0.658488542170    -0.396212950522     0.733133773731    12.000000000000
         C           -0.164102542170    -0.691547950522    -0.677421226269    12.000000000000
         C           -2.187506542170    -0.362207950522     0.837197773731    12.000000000000
         C            1.345125457830    -0.890549950522    -0.713426226269    12.000000000000
         C           -2.790827542170     0.648652049478    -0.114081226269    12.000000000000
         C            3.267260457830     0.221505049478     0.020792773731    12.000000000000
         H           -0.239586542170     0.552124049478     1.079748773731     1.007825032230
         H           -0.301272542170    -1.177377950522     1.418433773731     1.007825032230
         H           -0.670181542170    -1.584485950522    -1.059348226269     1.007825032230
         H           -0.416399542170     0.147025049478    -1.337440226269     1.007825032230
         H           -2.452102542170     0.004338049478     1.846228773731     1.007825032230
         H            1.616603457830    -1.756232950522    -0.086282226269     1.007825032230
         H            1.648764457830    -1.138850950522    -1.745211226269     1.007825032230
         H           -3.728770542170    -1.572151950522     0.263343773731     1.007825032230
         H           -2.711456542170    -2.262853950522     1.357941773731     1.007825032230
         H           -2.661176542170     2.444197049478    -0.632968226269     1.007825032230
         H            3.297389457830     2.076099049478     0.714972773731     1.007825032230
         H            4.791815457830     1.560432049478     0.177961773731     1.007825032230
         H            5.042657457830    -0.811123950522     0.052085773731     1.007825032230
         H            3.832949457830    -1.511091950522    -0.909948226269     1.007825032230

  Basis Set: AUG-CC-PVTZ
    Blend: AUG-CC-PVTZ
  Basis Set: (AUG-CC-PVTZ AUX)
    Blend: AUG-CC-PVTZ-JKFIT
	 Reference Energy          =    -603.1274539177994711 [Eh]
	 Singles Energy            =      -0.0000000000000000 [Eh]
	 Same-Spin Energy          =      -0.6196959507790483 [Eh]
	 Opposite-Spin Energy      =      -1.9524592691239853 [Eh]
	 Correlation Energy        =      -2.5721552199030335 [Eh]
	 Total Energy              =    -605.6996091377025095 [Eh]

	 ================> DF-SCS-MP2 Energies <==================
	-----------------------------------------------------------
	 SCS Same-Spin Scale       =       0.3333333333333333 [-]
	 SCS Opposite-Spin Scale   =       1.2000000000000000 [-]
	 SCS Same-Spin Energy      =      -0.2065653169263494 [Eh]
	 SCS Opposite-Spin Energy  =      -2.3429511229487821 [Eh]
	 SCS Correlation Energy    =      -2.5495164398751315 [Eh]
	 SCS Total Energy          =    -605.6769703576745769 [Eh]
	-----------------------------------------------------------

  Dipole Moment: [D]
     X:     3.2486      Y:     0.3290      Z:     0.2506     Total:     3.2748

*** Psi4 exiting successfully. Buy a developer a beer!
