                               Psi4 1.3.2 release

  ==> Input File <==

--------------------------------------------------------------------------
#psi4
#
memory 32 gb

molecule  {
0 1
  O       -2.2266400     1.8867650    -0.0032170
  O       -3.7615920     0.4694410    -0.8736430
  N       -2.7859400    -1.6499310     0.5252010
  N        1.9794570     0.3457110    -0.2591130
  N        3.7736928     1.3873067     0.6288892
  N        4.0160410    -0.8946960    -0.1223760
  C       -0.6937690    -0.3717720     0.7299070
  C       -0.1993830    -0.6671070    -0.6806480
  C       -2.2227870    -0.3377670     0.8339710
  C        1.3098450    -0.8661090    -0.7166530
  C       -2.8261080     0.6730930    -0.1173080
  C        3.2319800     0.2459460     0.0175660
  H       -0.2748670     0.5765650     1.0765220
  H       -0.3365530    -1.1529370     1.4152070
  H       -0.7054620    -1.5600450    -1.0625750
  H       -0.4516800     0.1714660    -1.3406670
  H       -2.4873830     0.0287790     1.8430020
  H        1.5813230    -1.7317920    -0.0895090
  H        1.6134840    -1.1144100    -1.7484380
  H       -3.7640510    -1.5477110     0.2601170
  H       -2.7467370    -2.2384130     1.3547150
  H       -2.6964570     2.4686380    -0.6361950
  H        3.2621090     2.1005400     0.7117460
  H        4.7565350     1.5848730     0.1747350
  H        5.0073770    -0.7866830     0.0488590
  H        3.7976690    -1.4866510    -0.9131750
units angstrom
no_reorient  #important for SAPT in psi4, default
symmetry c1  #important for SAPT in psi4, default
}

set PROPERTIES_ORIGIN ["COM"]
properties('MP2/aug-cc-pvtz', properties = ['dipole'])
--------------------------------------------------------------------------

    Molecular point group: c1
  Charge       = 0
  Multiplicity = 1
  Basis Set: AUG-CC-PVTZ
    Blend: AUG-CC-PVTZ
  Basis Set: (AUG-CC-PVTZ AUX)
    Blend: AUG-CC-PVTZ-JKFIT

    Orbital Energies [Eh]
    ---------------------

    Doubly Occupied:

       1A    -20.609066     2A    -20.546299     3A    -15.590498
       4A    -15.564975     5A    -15.538761     6A    -15.509966
       7A    -11.381580     8A    -11.342288     9A    -11.269957
      10A    -11.235180    11A    -11.211333    12A    -11.200106
      13A     -1.454717    14A     -1.351479    15A     -1.296736
      16A     -1.188612    17A     -1.181643    18A     -1.153290
      19A     -1.045411    20A     -0.972973    21A     -0.892231
      22A     -0.828082    23A     -0.792841    24A     -0.765172
      25A     -0.727184    26A     -0.701339    27A     -0.695259
      28A     -0.678662    29A     -0.668550    30A     -0.654851
      31A     -0.626969    32A     -0.616852    33A     -0.606654
      34A     -0.591304    35A     -0.568774    36A     -0.551506
      37A     -0.538336    38A     -0.520042    39A     -0.489324
      40A     -0.476107    41A     -0.468218    42A     -0.465701
      43A     -0.439708    44A     -0.438751    45A     -0.395769
      46A     -0.389302    47A     -0.341354

  @DF-RHF Final Energy:  -603.09794952091806

   => Energetics <=

    Nuclear Repulsion Energy =            726.5879387865190893
    One-Electron Energy =               -2266.2243534261438072
    Two-Electron Energy =                 936.5384651187066538
    Total Energy =                       -603.0979495209180641
  Basis Set: (AUG-CC-PVTZ AUX)
    Blend: AUG-CC-PVTZ-RI
    Molecular point group: c1

    Geometry (in Angstrom), charge = 0, multiplicity = 1:

       Center              X                  Y                   Z               Mass
    ------------   -----------------  -----------------  -----------------  -----------------
         O           -2.179599252753     1.853951383998     0.004258557118    15.994914619570
         O           -3.714551252753     0.436627383998    -0.866167442882    15.994914619570
         N           -2.738899252753    -1.682744616002     0.532676557118    14.003074004430
         N            2.026497747247     0.312897383998    -0.251637442882    14.003074004430
         N            3.820733547247     1.354493083998     0.636364757118    14.003074004430
         N            4.063081747247    -0.927509616002    -0.114900442882    14.003074004430
         C           -0.646728252753    -0.404585616002     0.737382557118    12.000000000000
         C           -0.152342252753    -0.699920616002    -0.673172442882    12.000000000000
         C           -2.175746252753    -0.370580616002     0.841446557118    12.000000000000
         C            1.356885747247    -0.898922616002    -0.709177442882    12.000000000000
         C           -2.779067252753     0.640279383998    -0.109832442882    12.000000000000
         C            3.279020747247     0.213132383998     0.025041557118    12.000000000000
         H           -0.227826252753     0.543751383998     1.083997557118     1.007825032230
         H           -0.289512252753    -1.185750616002     1.422682557118     1.007825032230
         H           -0.658421252753    -1.592858616002    -1.055099442882     1.007825032230
         H           -0.404639252753     0.138652383998    -1.333191442882     1.007825032230
         H           -2.440342252753    -0.004034616002     1.850477557118     1.007825032230
         H            1.628363747247    -1.764605616002    -0.082033442882     1.007825032230
         H            1.660524747247    -1.147223616002    -1.740962442882     1.007825032230
         H           -3.717010252753    -1.580524616002     0.267592557118     1.007825032230
         H           -2.699696252753    -2.271226616002     1.362190557118     1.007825032230
         H           -2.649416252753     2.435824383998    -0.628719442882     1.007825032230
         H            3.309149747247     2.067726383998     0.719221557118     1.007825032230
         H            4.803575747247     1.552059383998     0.182210557118     1.007825032230
         H            5.054417747247    -0.819496616002     0.056334557118     1.007825032230
         H            3.844709747247    -1.519464616002    -0.905699442882     1.007825032230

  Basis Set: AUG-CC-PVTZ
    Blend: AUG-CC-PVTZ
  Basis Set: (AUG-CC-PVTZ AUX)
    Blend: AUG-CC-PVTZ-JKFIT
	 Reference Energy          =    -603.0979495209180641 [Eh]
	 Singles Energy            =      -0.0000000000000000 [Eh]
	 Same-Spin Energy          =      -0.6200496067948693 [Eh]
	 Opposite-Spin Energy      =      -1.9534622896447613 [Eh]
	 Correlation Energy        =      -2.5735118964396309 [Eh]
	 Total Energy              =    -605.6714614173577047 [Eh]

	 ================> DF-SCS-MP2 Energies <==================
	-----------------------------------------------------------
	 SCS Same-Spin Scale       =       0.3333333333333333 [-]
	 SCS Opposite-Spin Scale   =       1.2000000000000000 [-]
	 SCS Same-Spin Energy      =      -0.2066832022649564 [Eh]
	 SCS Opposite-Spin Energy  =      -2.3441547475737137 [Eh]
	 SCS Correlation Energy    =      -2.5508379498386700 [Eh]
	 SCS Total Energy          =    -605.6487874707567016 [Eh]
	-----------------------------------------------------------

  Dipole Moment: [D]
     X:     3.6890      Y:     0.1604      Z:     0.4363     Total:     3.7182

*** Psi4 exiting successfully. Buy a developer a beer!
