                               Psi4 1.3.2 release

  ==> Input File <==

--------------------------------------------------------------------------
#psi4
#
memory 32 gb

molecule  {
0 1
  O       -2.2266400     1.8867650    -0.0032170
  O       -3.7615920     0.4694410    -0.8736430
  N       -2.7859400    -1.6499310     0.5252010
  N        2.0227444     0.2898607    -0.1858619
  N        3.8978530     1.3104060     0.6447910
  N        4.0160410    -0.8946960    -0.1223760
  C       -0.6937690    -0.3717720     0.7299070
  C       -0.1993830    -0.6671070    -0.6806480
  C       -2.2227870    -0.3377670     0.8339710
  C        1.3098450    -0.8661090    -0.7166530
  C       -2.8261080     0.6730930    -0.1173080
  C        3.2319800     0.2459460     0.0175660
  H       -0.2748670     0.5765650     1.0765220
  H       -0.3365530    -1.1529370     1.4152070
  H       -0.7054620    -1.5600450    -1.0625750
  H       -0.4516800     0.1714660    -1.3406670
  H       -2.4873830     0.0287790     1.8430020
  H        1.5813230    -1.7317920    -0.0895090
  H        1.6134840    -1.1144100    -1.7484380
  H       -3.7640510    -1.5477110     0.2601170
  H       -2.7467370    -2.2384130     1.3547150
  H       -2.6964570     2.4686380    -0.6361950
  H        3.2621090     2.1005400     0.7117460
  H        4.7565350     1.5848730     0.1747350
  H        5.0073770    -0.7866830     0.0488590
  H        3.7976690    -1.4866510    -0.9131750
units angstrom
no_reorient  #important for SAPT in psi4, default
symmetry c1  #important for SAPT in psi4, default
}

set PROPERTIES_ORIGIN ["COM"]
properties('MP2/aug-cc-pvtz', properties = ['dipole'])
--------------------------------------------------------------------------

    Molecular point group: c1
  Charge       = 0
  Multiplicity = 1
  Basis Set: AUG-CC-PVTZ
    Blend: AUG-CC-PVTZ
  Basis Set: (AUG-CC-PVTZ AUX)
    Blend: AUG-CC-PVTZ-JKFIT

    Orbital Energies [Eh]
    ---------------------

    Doubly Occupied:

       1A    -20.611181     2A    -20.548310     3A    -15.575098
       4A    -15.566176     5A    -15.540686     6A    -15.507653
       7A    -11.383596     8A    -11.327909     9A    -11.272111
      10A    -11.243141    11A    -11.214138    12A    -11.205034
      13A     -1.456802    14A     -1.353511    15A     -1.302185
      16A     -1.190687    17A     -1.165023    18A     -1.162181
      19A     -1.051857    20A     -0.979325    21A     -0.897075
      22A     -0.824032    23A     -0.781136    24A     -0.766005
      25A     -0.714416    26A     -0.703591    27A     -0.701261
      28A     -0.689089    29A     -0.656817    30A     -0.637745
      31A     -0.634305    32A     -0.618976    33A     -0.610378
      34A     -0.595412    35A     -0.570790    36A     -0.553534
      37A     -0.543348    38A     -0.525620    39A     -0.493743
      40A     -0.478588    41A     -0.474581    42A     -0.469413
      43A     -0.441732    44A     -0.435038    45A     -0.395728
      46A     -0.387669    47A     -0.354470

  @DF-RHF Final Energy:  -603.12539314408389

   => Energetics <=

    Nuclear Repulsion Energy =            726.8285230052472343
    One-Electron Energy =               -2266.6856392979029806
    Two-Electron Energy =                 936.7317231485718594
    Total Energy =                       -603.1253931440838869
  Basis Set: (AUG-CC-PVTZ AUX)
    Blend: AUG-CC-PVTZ-RI
    Molecular point group: c1

    Geometry (in Angstrom), charge = 0, multiplicity = 1:

       Center              X                  Y                   Z               Mass
    ------------   -----------------  -----------------  -----------------  -----------------
         O           -2.193066363015     1.864627991811    -0.002911637823    15.994914619570
         O           -3.728018363015     0.447303991811    -0.873337637823    15.994914619570
         N           -2.752366363015    -1.672068008189     0.525506362177    14.003074004430
         N            2.056318036985     0.267723691811    -0.185556537823    14.003074004430
         N            3.931426636985     1.288268991811     0.645096362177    14.003074004430
         N            4.049614636985    -0.916833008189    -0.122070637823    14.003074004430
         C           -0.660195363015    -0.393909008189     0.730212362177    12.000000000000
         C           -0.165809363015    -0.689244008189    -0.680342637823    12.000000000000
         C           -2.189213363015    -0.359904008189     0.834276362177    12.000000000000
         C            1.343418636985    -0.888246008189    -0.716347637823    12.000000000000
         C           -2.792534363015     0.650955991811    -0.117002637823    12.000000000000
         C            3.265553636985     0.223808991811     0.017871362177    12.000000000000
         H           -0.241293363015     0.554427991811     1.076827362177     1.007825032230
         H           -0.302979363015    -1.175074008189     1.415512362177     1.007825032230
         H           -0.671888363015    -1.582182008189    -1.062269637823     1.007825032230
         H           -0.418106363015     0.149328991811    -1.340361637823     1.007825032230
         H           -2.453809363015     0.006641991811     1.843307362177     1.007825032230
         H            1.614896636985    -1.753929008189    -0.089203637823     1.007825032230
         H            1.647057636985    -1.136547008189    -1.748132637823     1.007825032230
         H           -3.730477363015    -1.569848008189     0.260422362177     1.007825032230
         H           -2.713163363015    -2.260550008189     1.355020362177     1.007825032230
         H           -2.662883363015     2.446500991811    -0.635889637823     1.007825032230
         H            3.295682636985     2.078402991811     0.712051362177     1.007825032230
         H            4.790108636985     1.562735991811     0.175040362177     1.007825032230
         H            5.040950636985    -0.808820008189     0.049164362177     1.007825032230
         H            3.831242636985    -1.508788008189    -0.912869637823     1.007825032230

  Basis Set: AUG-CC-PVTZ
    Blend: AUG-CC-PVTZ
  Basis Set: (AUG-CC-PVTZ AUX)
    Blend: AUG-CC-PVTZ-JKFIT
	 Reference Energy          =    -603.1253931440838869 [Eh]
	 Singles Energy            =      -0.0000000000000000 [Eh]
	 Same-Spin Energy          =      -0.6192461584457356 [Eh]
	 Opposite-Spin Energy      =      -1.9513547720502957 [Eh]
	 Correlation Energy        =      -2.5706009304960311 [Eh]
	 Total Energy              =    -605.6959940745799713 [Eh]

	 ================> DF-SCS-MP2 Energies <==================
	-----------------------------------------------------------
	 SCS Same-Spin Scale       =       0.3333333333333333 [-]
	 SCS Opposite-Spin Scale   =       1.2000000000000000 [-]
	 SCS Same-Spin Energy      =      -0.2064153861485785 [Eh]
	 SCS Opposite-Spin Energy  =      -2.3416257264603546 [Eh]
	 SCS Correlation Energy    =      -2.5480411126089333 [Eh]
	 SCS Total Energy          =    -605.6734342566928717 [Eh]
	-----------------------------------------------------------

  Dipole Moment: [D]
     X:     3.0760      Y:     0.3745      Z:     0.1601     Total:     3.1029

*** Psi4 exiting successfully. Buy a developer a beer!
