                               Psi4 1.3.2 release

  ==> Input File <==

--------------------------------------------------------------------------
#psi4
#
memory 32 gb

molecule  {
0 1
  O       -2.2266400     1.8867650    -0.0032170
  O       -3.7615920     0.4694410    -0.8736430
  N       -2.7859400    -1.6499310     0.5252010
  N        1.9794570     0.3457110    -0.2591130
  N        3.8978530     1.3104060     0.6447910
  N        4.0160410    -0.8946960    -0.1223760
  C       -0.6937690    -0.3717720     0.7299070
  C       -0.2246088    -0.6686096    -0.6889241
  C       -2.2227870    -0.3377670     0.8339710
  C        1.3098450    -0.8661090    -0.7166530
  C       -2.8261080     0.6730930    -0.1173080
  C        3.2319800     0.2459460     0.0175660
  H       -0.2748670     0.5765650     1.0765220
  H       -0.3365530    -1.1529370     1.4152070
  H       -0.7054620    -1.5600450    -1.0625750
  H       -0.4516800     0.1714660    -1.3406670
  H       -2.4873830     0.0287790     1.8430020
  H        1.5813230    -1.7317920    -0.0895090
  H        1.6134840    -1.1144100    -1.7484380
  H       -3.7640510    -1.5477110     0.2601170
  H       -2.7467370    -2.2384130     1.3547150
  H       -2.6964570     2.4686380    -0.6361950
  H        3.2621090     2.1005400     0.7117460
  H        4.7565350     1.5848730     0.1747350
  H        5.0073770    -0.7866830     0.0488590
  H        3.7976690    -1.4866510    -0.9131750
units angstrom
no_reorient  #important for SAPT in psi4, default
symmetry c1  #important for SAPT in psi4, default
}

set PROPERTIES_ORIGIN ["COM"]
properties('MP2/aug-cc-pvtz', properties = ['dipole'])
--------------------------------------------------------------------------

    Molecular point group: c1
  Charge       = 0
  Multiplicity = 1
  Basis Set: AUG-CC-PVTZ
    Blend: AUG-CC-PVTZ
  Basis Set: (AUG-CC-PVTZ AUX)
    Blend: AUG-CC-PVTZ-JKFIT

    Orbital Energies [Eh]
    ---------------------

    Doubly Occupied:

       1A    -20.609793     2A    -20.546939     3A    -15.583371
       4A    -15.571595     5A    -15.539366     6A    -15.515467
       7A    -11.382202     8A    -11.341566     9A    -11.270224
      10A    -11.239265    11A    -11.212519    12A    -11.200960
      13A     -1.455417    14A     -1.352148    15A     -1.295098
      16A     -1.189342    17A     -1.167528    18A     -1.156895
      19A     -1.046287    20A     -0.972128    21A     -0.891675
      22A     -0.822959    23A     -0.784128    24A     -0.765810
      25A     -0.718891    26A     -0.702615    27A     -0.700237
      28A     -0.689869    29A     -0.655467    30A     -0.638101
      31A     -0.631876    32A     -0.617641    33A     -0.606583
      34A     -0.592528    35A     -0.568913    36A     -0.550657
      37A     -0.542732    38A     -0.521562    39A     -0.489049
      40A     -0.479449    41A     -0.471896    42A     -0.467199
      43A     -0.440747    44A     -0.437695    45A     -0.397356
      46A     -0.390382    47A     -0.346599

  @DF-RHF Final Energy:  -603.12550033241610

   => Energetics <=

    Nuclear Repulsion Energy =            725.5991236662874826
    One-Electron Energy =               -2264.3077963350756363
    Two-Electron Energy =                 935.5831723363719448
    Total Energy =                       -603.1255003324160953
  Basis Set: (AUG-CC-PVTZ AUX)
    Blend: AUG-CC-PVTZ-RI
    Molecular point group: c1

    Geometry (in Angstrom), charge = 0, multiplicity = 1:

       Center              X                  Y                   Z               Mass
    ------------   -----------------  -----------------  -----------------  -----------------
         O           -2.187846343956     1.860239746847     0.003550041267    15.994914619570
         O           -3.722798343956     0.442915746847    -0.866875958733    15.994914619570
         N           -2.747146343956    -1.676456253153     0.531968041267    14.003074004430
         N            2.018250656044     0.319185746847    -0.252345958733    14.003074004430
         N            3.936646656044     1.283880746847     0.651558041267    14.003074004430
         N            4.054834656044    -0.921221253153    -0.115608958733    14.003074004430
         C           -0.654975343956    -0.398297253153     0.736674041267    12.000000000000
         C           -0.185815143956    -0.695134853153    -0.682157058733    12.000000000000
         C           -2.183993343956    -0.364292253153     0.840738041267    12.000000000000
         C            1.348638656044    -0.892634253153    -0.709885958733    12.000000000000
         C           -2.787314343956     0.646567746847    -0.110540958733    12.000000000000
         C            3.270773656044     0.219420746847     0.024333041267    12.000000000000
         H           -0.236073343956     0.550039746847     1.083289041267     1.007825032230
         H           -0.297759343956    -1.179462253153     1.421974041267     1.007825032230
         H           -0.666668343956    -1.586570253153    -1.055807958733     1.007825032230
         H           -0.412886343956     0.144940746847    -1.333899958733     1.007825032230
         H           -2.448589343956     0.002253746847     1.849769041267     1.007825032230
         H            1.620116656044    -1.758317253153    -0.082741958733     1.007825032230
         H            1.652277656044    -1.140935253153    -1.741670958733     1.007825032230
         H           -3.725257343956    -1.574236253153     0.266884041267     1.007825032230
         H           -2.707943343956    -2.264938253153     1.361482041267     1.007825032230
         H           -2.657663343956     2.442112746847    -0.629427958733     1.007825032230
         H            3.300902656044     2.074014746847     0.718513041267     1.007825032230
         H            4.795328656044     1.558347746847     0.181502041267     1.007825032230
         H            5.046170656044    -0.813208253153     0.055626041267     1.007825032230
         H            3.836462656044    -1.513176253153    -0.906407958733     1.007825032230

  Basis Set: AUG-CC-PVTZ
    Blend: AUG-CC-PVTZ
  Basis Set: (AUG-CC-PVTZ AUX)
    Blend: AUG-CC-PVTZ-JKFIT
	 Reference Energy          =    -603.1255003324160953 [Eh]
	 Singles Energy            =      -0.0000000000000000 [Eh]
	 Same-Spin Energy          =      -0.6202061913331370 [Eh]
	 Opposite-Spin Energy      =      -1.9537826984564033 [Eh]
	 Correlation Energy        =      -2.5739888897895402 [Eh]
	 Total Energy              =    -605.6994892222056706 [Eh]

	 ================> DF-SCS-MP2 Energies <==================
	-----------------------------------------------------------
	 SCS Same-Spin Scale       =       0.3333333333333333 [-]
	 SCS Opposite-Spin Scale   =       1.2000000000000000 [-]
	 SCS Same-Spin Energy      =      -0.2067353971110457 [Eh]
	 SCS Opposite-Spin Energy  =      -2.3445392381476839 [Eh]
	 SCS Correlation Energy    =      -2.5512746352587294 [Eh]
	 SCS Total Energy          =    -605.6767749676748736 [Eh]
	-----------------------------------------------------------

  Dipole Moment: [D]
     X:     3.4185      Y:     0.2870      Z:     0.3401     Total:     3.4473

*** Psi4 exiting successfully. Buy a developer a beer!
