                               Psi4 1.3.2 release

  ==> Input File <==

--------------------------------------------------------------------------
#psi4
#
memory 32 gb

molecule  {
0 1
  O       -2.2266400     1.8867650    -0.0032170
  O       -3.7615920     0.4694410    -0.8736430
  N       -2.7859400    -1.6499310     0.5252010
  N        1.9794570     0.3457110    -0.2591130
  N        3.8978530     1.3104060     0.6447910
  N        4.0160410    -0.8946960    -0.1223760
  C       -0.6937690    -0.3717720     0.7299070
  C       -0.1993830    -0.6671070    -0.6806480
  C       -2.2227870    -0.3377670     0.8339710
  C        1.3098450    -0.8661090    -0.7166530
  C       -2.8261080     0.6730930    -0.1173080
  C        3.3141090     0.1934152     0.0271766
  H       -0.2748670     0.5765650     1.0765220
  H       -0.3365530    -1.1529370     1.4152070
  H       -0.7054620    -1.5600450    -1.0625750
  H       -0.4516800     0.1714660    -1.3406670
  H       -2.4873830     0.0287790     1.8430020
  H        1.5813230    -1.7317920    -0.0895090
  H        1.6134840    -1.1144100    -1.7484380
  H       -3.7640510    -1.5477110     0.2601170
  H       -2.7467370    -2.2384130     1.3547150
  H       -2.6964570     2.4686380    -0.6361950
  H        3.2621090     2.1005400     0.7117460
  H        4.7565350     1.5848730     0.1747350
  H        5.0073770    -0.7866830     0.0488590
  H        3.7976690    -1.4866510    -0.9131750
units angstrom
no_reorient  #important for SAPT in psi4, default
symmetry c1  #important for SAPT in psi4, default
}

set PROPERTIES_ORIGIN ["COM"]
properties('MP2/aug-cc-pvtz', properties = ['dipole'])
--------------------------------------------------------------------------

    Molecular point group: c1
  Charge       = 0
  Multiplicity = 1
  Basis Set: AUG-CC-PVTZ
    Blend: AUG-CC-PVTZ
  Basis Set: (AUG-CC-PVTZ AUX)
    Blend: AUG-CC-PVTZ-JKFIT

    Orbital Energies [Eh]
    ---------------------

    Doubly Occupied:

       1A    -20.607040     2A    -20.544319     3A    -15.600850
       4A    -15.575471     5A    -15.536750     6A    -15.507446
       7A    -11.379545     8A    -11.348342     9A    -11.267503
      10A    -11.229033    11A    -11.207941    12A    -11.196504
      13A     -1.452699    14A     -1.349504    15A     -1.314398
      16A     -1.186585    17A     -1.185626    18A     -1.135774
      19A     -1.037587    20A     -0.964643    21A     -0.885382
      22A     -0.829013    23A     -0.790612    24A     -0.761999
      25A     -0.741680    26A     -0.701650    27A     -0.698050
      28A     -0.686285    29A     -0.656918    30A     -0.652060
      31A     -0.625241    32A     -0.614871    33A     -0.598549
      34A     -0.588693    35A     -0.567683    36A     -0.554942
      37A     -0.534859    38A     -0.520432    39A     -0.486580
      40A     -0.473617    41A     -0.466013    42A     -0.463672
      43A     -0.440758    44A     -0.436810    45A     -0.392315
      46A     -0.385573    47A     -0.323313

  @DF-RHF Final Energy:  -603.10764549606131

   => Energetics <=

    Nuclear Repulsion Energy =            725.1675625407688131
    One-Electron Energy =               -2263.5401521925655288
    Two-Electron Energy =                 935.2649441557354066
    Total Energy =                       -603.1076454960613091
  Basis Set: (AUG-CC-PVTZ AUX)
    Blend: AUG-CC-PVTZ-RI
    Molecular point group: c1

    Geometry (in Angstrom), charge = 0, multiplicity = 1:

       Center              X                  Y                   Z               Mass
    ------------   -----------------  -----------------  -----------------  -----------------
         O           -2.195245374462     1.863756675838     0.002317266962    15.994914619570
         O           -3.730197374462     0.446432675838    -0.868108733038    15.994914619570
         N           -2.754545374462    -1.672939324162     0.530735266962    14.003074004430
         N            2.010851625538     0.322702675838    -0.253578733038    14.003074004430
         N            3.929247625538     1.287397675838     0.650325266962    14.003074004430
         N            4.047435625538    -0.917704324162    -0.116841733038    14.003074004430
         C           -0.662374374462    -0.394780324162     0.735441266962    12.000000000000
         C           -0.167988374462    -0.690115324162    -0.675113733038    12.000000000000
         C           -2.191392374462    -0.360775324162     0.839505266962    12.000000000000
         C            1.341239625538    -0.889117324162    -0.711118733038    12.000000000000
         C           -2.794713374462     0.650084675838    -0.111773733038    12.000000000000
         C            3.345503625538     0.170406875838     0.032710866962    12.000000000000
         H           -0.243472374462     0.553556675838     1.082056266962     1.007825032230
         H           -0.305158374462    -1.175945324162     1.420741266962     1.007825032230
         H           -0.674067374462    -1.583053324162    -1.057040733038     1.007825032230
         H           -0.420285374462     0.148457675838    -1.335132733038     1.007825032230
         H           -2.455988374462     0.005770675838     1.848536266962     1.007825032230
         H            1.612717625538    -1.754800324162    -0.083974733038     1.007825032230
         H            1.644878625538    -1.137418324162    -1.742903733038     1.007825032230
         H           -3.732656374462    -1.570719324162     0.265651266962     1.007825032230
         H           -2.715342374462    -2.261421324162     1.360249266962     1.007825032230
         H           -2.665062374462     2.445629675838    -0.630660733038     1.007825032230
         H            3.293503625538     2.077531675838     0.717280266962     1.007825032230
         H            4.787929625538     1.561864675838     0.180269266962     1.007825032230
         H            5.038771625538    -0.809691324162     0.054393266962     1.007825032230
         H            3.829063625538    -1.509659324162    -0.907640733038     1.007825032230

  Basis Set: AUG-CC-PVTZ
    Blend: AUG-CC-PVTZ
  Basis Set: (AUG-CC-PVTZ AUX)
    Blend: AUG-CC-PVTZ-JKFIT
	 Reference Energy          =    -603.1076454960613091 [Eh]
	 Singles Energy            =      -0.0000000000000000 [Eh]
	 Same-Spin Energy          =      -0.6220100711550615 [Eh]
	 Opposite-Spin Energy      =      -1.9559089372966794 [Eh]
	 Correlation Energy        =      -2.5779190084517407 [Eh]
	 Total Energy              =    -605.6855645045130814 [Eh]

	 ================> DF-SCS-MP2 Energies <==================
	-----------------------------------------------------------
	 SCS Same-Spin Scale       =       0.3333333333333333 [-]
	 SCS Opposite-Spin Scale   =       1.2000000000000000 [-]
	 SCS Same-Spin Energy      =      -0.2073366903850205 [Eh]
	 SCS Opposite-Spin Energy  =      -2.3470907247560153 [Eh]
	 SCS Correlation Energy    =      -2.5544274151410358 [Eh]
	 SCS Total Energy          =    -605.6620729112023582 [Eh]
	-----------------------------------------------------------

  Dipole Moment: [D]
     X:     4.1218      Y:     0.0062      Z:     0.4141     Total:     4.1426

*** Psi4 exiting successfully. Buy a developer a beer!
