                               Psi4 1.3.2 release

  ==> Input File <==

--------------------------------------------------------------------------
#psi4
#
memory 32 gb

molecule  {
0 1
  O       -2.2266400     1.8867650    -0.0032170
  O       -3.7615920     0.4694410    -0.8736430
  N       -2.7859400    -1.6499310     0.5252010
  N        1.9794570     0.3457110    -0.2591130
  N        3.8978530     1.3104060     0.6447910
  N        4.0160410    -0.8946960    -0.1223760
  C       -0.6937690    -0.3717720     0.7299070
  C       -0.1993830    -0.6671070    -0.6806480
  C       -2.2227870    -0.3377670     0.8339710
  C        1.3098450    -0.8661090    -0.7166530
  C       -2.8261080     0.6730930    -0.1173080
  C        3.1845370     0.1701039    -0.0271234
  H       -0.2748670     0.5765650     1.0765220
  H       -0.3365530    -1.1529370     1.4152070
  H       -0.7054620    -1.5600450    -1.0625750
  H       -0.4516800     0.1714660    -1.3406670
  H       -2.4873830     0.0287790     1.8430020
  H        1.5813230    -1.7317920    -0.0895090
  H        1.6134840    -1.1144100    -1.7484380
  H       -3.7640510    -1.5477110     0.2601170
  H       -2.7467370    -2.2384130     1.3547150
  H       -2.6964570     2.4686380    -0.6361950
  H        3.2621090     2.1005400     0.7117460
  H        4.7565350     1.5848730     0.1747350
  H        5.0073770    -0.7866830     0.0488590
  H        3.7976690    -1.4866510    -0.9131750
units angstrom
no_reorient  #important for SAPT in psi4, default
symmetry c1  #important for SAPT in psi4, default
}

set PROPERTIES_ORIGIN ["COM"]
properties('MP2/aug-cc-pvtz', properties = ['dipole'])
--------------------------------------------------------------------------

    Molecular point group: c1
  Charge       = 0
  Multiplicity = 1
  Basis Set: AUG-CC-PVTZ
    Blend: AUG-CC-PVTZ
  Basis Set: (AUG-CC-PVTZ AUX)
    Blend: AUG-CC-PVTZ-JKFIT

    Orbital Energies [Eh]
    ---------------------

    Doubly Occupied:

       1A    -20.611332     2A    -20.548597     3A    -15.588112
       4A    -15.556486     5A    -15.541204     6A    -15.519935
       7A    -11.383931     8A    -11.337787     9A    -11.272824
      10A    -11.242985    11A    -11.215336    12A    -11.204943
      13A     -1.457007    14A     -1.353745    15A     -1.300672
      16A     -1.191579    17A     -1.182081    18A     -1.140017
      19A     -1.051882    20A     -0.978510    21A     -0.895717
      22A     -0.821461    23A     -0.787142    24A     -0.768417
      25A     -0.727025    26A     -0.703968    27A     -0.698204
      28A     -0.680969    29A     -0.658998    30A     -0.638694
      31A     -0.629993    32A     -0.619157    33A     -0.600033
      34A     -0.592067    35A     -0.570110    36A     -0.554128
      37A     -0.538005    38A     -0.523275    39A     -0.493683
      40A     -0.479612    41A     -0.472529    42A     -0.469201
      43A     -0.442365    44A     -0.435093    45A     -0.402029
      46A     -0.393388    47A     -0.360958

  @DF-RHF Final Energy:  -603.11508668148599

   => Energetics <=

    Nuclear Repulsion Energy =            726.4550427531900141
    One-Electron Energy =               -2265.8698909128784180
    Two-Electron Energy =                 936.2997614782025266
    Total Energy =                       -603.1150866814859910
  Basis Set: (AUG-CC-PVTZ AUX)
    Blend: AUG-CC-PVTZ-RI
    Molecular point group: c1

    Geometry (in Angstrom), charge = 0, multiplicity = 1:

       Center              X                  Y                   Z               Mass
    ------------   -----------------  -----------------  -----------------  -----------------
         O           -2.186315106037     1.865363320533     0.006059692605    15.994914619570
         O           -3.721267106037     0.448039320533    -0.864366307395    15.994914619570
         N           -2.745615106037    -1.671332679467     0.534477692605    14.003074004430
         N            2.019781893963     0.324309320533    -0.249836307395    14.003074004430
         N            3.938177893963     1.289004320533     0.654067692605    14.003074004430
         N            4.056365893963    -0.916097679467    -0.113099307395    14.003074004430
         C           -0.653444106037    -0.393173679467     0.739183692605    12.000000000000
         C           -0.159058106037    -0.688508679467    -0.671371307395    12.000000000000
         C           -2.182462106037    -0.359168679467     0.843247692605    12.000000000000
         C            1.350169893963    -0.887510679467    -0.707376307395    12.000000000000
         C           -2.785783106037     0.651691320533    -0.108031307395    12.000000000000
         C            3.224861893963     0.148702220533    -0.017846707395    12.000000000000
         H           -0.234542106037     0.555163320533     1.085798692605     1.007825032230
         H           -0.296228106037    -1.174338679467     1.424483692605     1.007825032230
         H           -0.665137106037    -1.581446679467    -1.053298307395     1.007825032230
         H           -0.411355106037     0.150064320533    -1.331390307395     1.007825032230
         H           -2.447058106037     0.007377320533     1.852278692605     1.007825032230
         H            1.621647893963    -1.753193679467    -0.080232307395     1.007825032230
         H            1.653808893963    -1.135811679467    -1.739161307395     1.007825032230
         H           -3.723726106037    -1.569112679467     0.269393692605     1.007825032230
         H           -2.706412106037    -2.259814679467     1.363991692605     1.007825032230
         H           -2.656132106037     2.447236320533    -0.626918307395     1.007825032230
         H            3.302433893963     2.079138320533     0.721022692605     1.007825032230
         H            4.796859893963     1.563471320533     0.184011692605     1.007825032230
         H            5.047701893963    -0.808084679467     0.058135692605     1.007825032230
         H            3.837993893963    -1.508052679467    -0.903898307395     1.007825032230

  Basis Set: AUG-CC-PVTZ
    Blend: AUG-CC-PVTZ
  Basis Set: (AUG-CC-PVTZ AUX)
    Blend: AUG-CC-PVTZ-JKFIT
	 Reference Energy          =    -603.1150866814859910 [Eh]
	 Singles Energy            =      -0.0000000000000000 [Eh]
	 Same-Spin Energy          =      -0.6199144954463434 [Eh]
	 Opposite-Spin Energy      =      -1.9537459271555688 [Eh]
	 Correlation Energy        =      -2.5736604226019120 [Eh]
	 Total Energy              =    -605.6887471040879518 [Eh]

	 ================> DF-SCS-MP2 Energies <==================
	-----------------------------------------------------------
	 SCS Same-Spin Scale       =       0.3333333333333333 [-]
	 SCS Opposite-Spin Scale   =       1.2000000000000000 [-]
	 SCS Same-Spin Energy      =      -0.2066381651487811 [Eh]
	 SCS Opposite-Spin Energy  =      -2.3444951125866824 [Eh]
	 SCS Correlation Energy    =      -2.5511332777354636 [Eh]
	 SCS Total Energy          =    -605.6662199592215075 [Eh]
	-----------------------------------------------------------

  Dipole Moment: [D]
     X:     3.0010      Y:    -0.2431      Z:     0.0683     Total:     3.0116

*** Psi4 exiting successfully. Buy a developer a beer!
