                               Psi4 1.3.2 release

  ==> Input File <==

--------------------------------------------------------------------------
#psi4
#
memory 32 gb

molecule  {
0 1
  O       -2.2266400     1.8867650    -0.0032170
  O       -3.7615920     0.4694410    -0.8736430
  N       -2.7859400    -1.6499310     0.5252010
  N        1.9794570     0.3457110    -0.2591130
  N        3.8978530     1.3104060     0.6447910
  N        4.0160410    -0.8946960    -0.1223760
  C       -0.6937690    -0.3717720     0.7299070
  C       -0.1993830    -0.6671070    -0.6806480
  C       -2.2227870    -0.3377670     0.8339710
  C        1.3557667    -0.7830029    -0.6852751
  C       -2.8261080     0.6730930    -0.1173080
  C        3.2319800     0.2459460     0.0175660
  H       -0.2748670     0.5765650     1.0765220
  H       -0.3365530    -1.1529370     1.4152070
  H       -0.7054620    -1.5600450    -1.0625750
  H       -0.4516800     0.1714660    -1.3406670
  H       -2.4873830     0.0287790     1.8430020
  H        1.5813230    -1.7317920    -0.0895090
  H        1.6134840    -1.1144100    -1.7484380
  H       -3.7640510    -1.5477110     0.2601170
  H       -2.7467370    -2.2384130     1.3547150
  H       -2.6964570     2.4686380    -0.6361950
  H        3.2621090     2.1005400     0.7117460
  H        4.7565350     1.5848730     0.1747350
  H        5.0073770    -0.7866830     0.0488590
  H        3.7976690    -1.4866510    -0.9131750
units angstrom
no_reorient  #important for SAPT in psi4, default
symmetry c1  #important for SAPT in psi4, default
}

set PROPERTIES_ORIGIN ["COM"]
properties('MP2/aug-cc-pvtz', properties = ['dipole'])
--------------------------------------------------------------------------

    Molecular point group: c1
  Charge       = 0
  Multiplicity = 1
  Basis Set: AUG-CC-PVTZ
    Blend: AUG-CC-PVTZ
  Basis Set: (AUG-CC-PVTZ AUX)
    Blend: AUG-CC-PVTZ-JKFIT

    Orbital Energies [Eh]
    ---------------------

    Doubly Occupied:

       1A    -20.609063     2A    -20.546142     3A    -15.587591
       4A    -15.575351     5A    -15.538672     6A    -15.515497
       7A    -11.381420     8A    -11.348101     9A    -11.269527
      10A    -11.241060    11A    -11.210669    12A    -11.200892
      13A     -1.454649    14A     -1.351384    15A     -1.305018
      16A     -1.189022    17A     -1.180163    18A     -1.171270
      19A     -1.043620    20A     -0.969003    21A     -0.892111
      22A     -0.826072    23A     -0.783429    24A     -0.764329
      25A     -0.727418    26A     -0.704926    27A     -0.700751
      28A     -0.689214    29A     -0.653974    30A     -0.645333
      31A     -0.632280    32A     -0.617104    33A     -0.611601
      34A     -0.592467    35A     -0.567022    36A     -0.550595
      37A     -0.548004    38A     -0.517442    39A     -0.489568
      40A     -0.475238    41A     -0.470951    42A     -0.466298
      43A     -0.440076    44A     -0.439083    45A     -0.396872
      46A     -0.387716    47A     -0.343610

  @DF-RHF Final Energy:  -603.11555796792845

   => Energetics <=

    Nuclear Repulsion Energy =            726.8902728159027902
    One-Electron Energy =               -2266.7684608019344523
    Two-Electron Energy =                 936.7626300181032093
    Total Energy =                       -603.1155579679284529
  Basis Set: (AUG-CC-PVTZ AUX)
    Blend: AUG-CC-PVTZ-RI
    Molecular point group: c1

    Geometry (in Angstrom), charge = 0, multiplicity = 1:

       Center              X                  Y                   Z               Mass
    ------------   -----------------  -----------------  -----------------  -----------------
         O           -2.192749920907     1.854408406727     0.000817036728    15.994914619570
         O           -3.727701920907     0.437084406727    -0.869608963272    15.994914619570
         N           -2.752049920907    -1.682287593273     0.529235036728    14.003074004430
         N            2.013347079093     0.313354406727    -0.255078963272    14.003074004430
         N            3.931743079093     1.278049406727     0.648825036728    14.003074004430
         N            4.049931079093    -0.927052593273    -0.118341963272    14.003074004430
         C           -0.659878920907    -0.404128593273     0.733941036728    12.000000000000
         C           -0.165492920907    -0.699463593273    -0.676613963272    12.000000000000
         C           -2.188896920907    -0.370123593273     0.838005036728    12.000000000000
         C            1.389656779093    -0.815359493273    -0.681241063272    12.000000000000
         C           -2.792217920907     0.640736406727    -0.113273963272    12.000000000000
         C            3.265870079093     0.213589406727     0.021600036728    12.000000000000
         H           -0.240976920907     0.544208406727     1.080556036728     1.007825032230
         H           -0.302662920907    -1.185293593273     1.419241036728     1.007825032230
         H           -0.671571920907    -1.592401593273    -1.058540963272     1.007825032230
         H           -0.417789920907     0.139109406727    -1.336632963272     1.007825032230
         H           -2.453492920907    -0.003577593273     1.847036036728     1.007825032230
         H            1.615213079093    -1.764148593273    -0.085474963272     1.007825032230
         H            1.647374079093    -1.146766593273    -1.744403963272     1.007825032230
         H           -3.730160920907    -1.580067593273     0.264151036728     1.007825032230
         H           -2.712846920907    -2.270769593273     1.358749036728     1.007825032230
         H           -2.662566920907     2.436281406727    -0.632160963272     1.007825032230
         H            3.295999079093     2.068183406727     0.715780036728     1.007825032230
         H            4.790425079093     1.552516406727     0.178769036728     1.007825032230
         H            5.041267079093    -0.819039593273     0.052893036728     1.007825032230
         H            3.831559079093    -1.519007593273    -0.909140963272     1.007825032230

  Basis Set: AUG-CC-PVTZ
    Blend: AUG-CC-PVTZ
  Basis Set: (AUG-CC-PVTZ AUX)
    Blend: AUG-CC-PVTZ-JKFIT
	 Reference Energy          =    -603.1155579679284529 [Eh]
	 Singles Energy            =      -0.0000000000000000 [Eh]
	 Same-Spin Energy          =      -0.6212525788603485 [Eh]
	 Opposite-Spin Energy      =      -1.9541146667492473 [Eh]
	 Correlation Energy        =      -2.5753672456095957 [Eh]
	 Total Energy              =    -605.6909252135380939 [Eh]

	 ================> DF-SCS-MP2 Energies <==================
	-----------------------------------------------------------
	 SCS Same-Spin Scale       =       0.3333333333333333 [-]
	 SCS Opposite-Spin Scale   =       1.2000000000000000 [-]
	 SCS Same-Spin Energy      =      -0.2070841929534495 [Eh]
	 SCS Opposite-Spin Energy  =      -2.3449376000990965 [Eh]
	 SCS Correlation Energy    =      -2.5520217930525462 [Eh]
	 SCS Total Energy          =    -605.6675797609809706 [Eh]
	-----------------------------------------------------------

  Dipole Moment: [D]
     X:     3.6721      Y:     0.4741      Z:     0.4349     Total:     3.7280

*** Psi4 exiting successfully. Buy a developer a beer!
