                               Psi4 1.3.2 release

  ==> Input File <==

--------------------------------------------------------------------------
#psi4
#
memory 32 gb

molecule  {
0 1
  O       -2.2266400     1.8867650    -0.0032170
  O       -3.7615920     0.4694410    -0.8736430
  N       -2.7859400    -1.6499310     0.5252010
  N        1.9794570     0.3457110    -0.2591130
  N        3.8978530     1.3104060     0.6447910
  N        4.0160410    -0.8946960    -0.1223760
  C       -0.6937690    -0.3717720     0.7299070
  C       -0.3011126    -0.6725732    -0.7111500
  C       -2.2227870    -0.3377670     0.8339710
  C        1.3098450    -0.8661090    -0.7166530
  C       -2.8261080     0.6730930    -0.1173080
  C        3.2319800     0.2459460     0.0175660
  H       -0.2748670     0.5765650     1.0765220
  H       -0.3365530    -1.1529370     1.4152070
  H       -0.7054620    -1.5600450    -1.0625750
  H       -0.4516800     0.1714660    -1.3406670
  H       -2.4873830     0.0287790     1.8430020
  H        1.5813230    -1.7317920    -0.0895090
  H        1.6134840    -1.1144100    -1.7484380
  H       -3.7640510    -1.5477110     0.2601170
  H       -2.7467370    -2.2384130     1.3547150
  H       -2.6964570     2.4686380    -0.6361950
  H        3.2621090     2.1005400     0.7117460
  H        4.7565350     1.5848730     0.1747350
  H        5.0073770    -0.7866830     0.0488590
  H        3.7976690    -1.4866510    -0.9131750
units angstrom
no_reorient  #important for SAPT in psi4, default
symmetry c1  #important for SAPT in psi4, default
}

set PROPERTIES_ORIGIN ["COM"]
properties('MP2/aug-cc-pvtz', properties = ['dipole'])
--------------------------------------------------------------------------

    Molecular point group: c1
  Charge       = 0
  Multiplicity = 1
  Basis Set: AUG-CC-PVTZ
    Blend: AUG-CC-PVTZ
  Basis Set: (AUG-CC-PVTZ AUX)
    Blend: AUG-CC-PVTZ-JKFIT

    Orbital Energies [Eh]
    ---------------------

    Doubly Occupied:

       1A    -20.609741     2A    -20.546734     3A    -15.582971
       4A    -15.571402     5A    -15.539109     6A    -15.515849
       7A    -11.381922     8A    -11.341408     9A    -11.268701
      10A    -11.241282    11A    -11.213265    12A    -11.199857
      13A     -1.455320    14A     -1.352012    15A     -1.294667
      16A     -1.189312    17A     -1.167223    18A     -1.154586
      19A     -1.045090    20A     -0.966545    21A     -0.889181
      22A     -0.827324    23A     -0.783158    24A     -0.768078
      25A     -0.718121    26A     -0.702339    27A     -0.699413
      28A     -0.690160    29A     -0.654935    30A     -0.638768
      31A     -0.632449    32A     -0.617548    33A     -0.604751
      34A     -0.590391    35A     -0.568940    36A     -0.553160
      37A     -0.545000    38A     -0.521732    39A     -0.492595
      40A     -0.483741    41A     -0.474935    42A     -0.458669
      43A     -0.441761    44A     -0.434539    45A     -0.395571
      46A     -0.386658    47A     -0.345613

  @DF-RHF Final Energy:  -603.11579770281878

   => Energetics <=

    Nuclear Repulsion Energy =            725.2127398958596132
    One-Electron Energy =               -2263.5440277450948088
    Two-Electron Energy =                 935.2154901464164141
    Total Energy =                       -603.1157977028187815
  Basis Set: (AUG-CC-PVTZ AUX)
    Blend: AUG-CC-PVTZ-RI
    Molecular point group: c1

    Geometry (in Angstrom), charge = 0, multiplicity = 1:

       Center              X                  Y                   Z               Mass
    ------------   -----------------  -----------------  -----------------  -----------------
         O           -2.182573603938     1.860512923243     0.005081878801    15.994914619570
         O           -3.717525603938     0.443188923243    -0.865344121199    15.994914619570
         N           -2.741873603938    -1.676183076757     0.533499878801    14.003074004430
         N            2.023523396062     0.319458923243    -0.250814121199    14.003074004430
         N            3.941919396062     1.284153923243     0.653089878801    14.003074004430
         N            4.060107396062    -0.920948076757    -0.114077121199    14.003074004430
         C           -0.649702603938    -0.398024076757     0.738205878801    12.000000000000
         C           -0.257046203938    -0.698825276757    -0.702851121199    12.000000000000
         C           -2.178720603938    -0.364019076757     0.842269878801    12.000000000000
         C            1.353911396062    -0.892361076757    -0.708354121199    12.000000000000
         C           -2.782041603938     0.646840923243    -0.109009121199    12.000000000000
         C            3.276046396062     0.219693923243     0.025864878801    12.000000000000
         H           -0.230800603938     0.550312923243     1.084820878801     1.007825032230
         H           -0.292486603938    -1.179189076757     1.423505878801     1.007825032230
         H           -0.661395603938    -1.586297076757    -1.054276121199     1.007825032230
         H           -0.407613603938     0.145213923243    -1.332368121199     1.007825032230
         H           -2.443316603938     0.002526923243     1.851300878801     1.007825032230
         H            1.625389396062    -1.758044076757    -0.081210121199     1.007825032230
         H            1.657550396062    -1.140662076757    -1.740139121199     1.007825032230
         H           -3.719984603938    -1.573963076757     0.268415878801     1.007825032230
         H           -2.702670603938    -2.264665076757     1.363013878801     1.007825032230
         H           -2.652390603938     2.442385923243    -0.627896121199     1.007825032230
         H            3.306175396062     2.074287923243     0.720044878801     1.007825032230
         H            4.800601396062     1.558620923243     0.183033878801     1.007825032230
         H            5.051443396062    -0.812935076757     0.057157878801     1.007825032230
         H            3.841735396062    -1.512903076757    -0.904876121199     1.007825032230

  Basis Set: AUG-CC-PVTZ
    Blend: AUG-CC-PVTZ
  Basis Set: (AUG-CC-PVTZ AUX)
    Blend: AUG-CC-PVTZ-JKFIT
	 Reference Energy          =    -603.1157977028187815 [Eh]
	 Singles Energy            =      -0.0000000000000000 [Eh]
	 Same-Spin Energy          =      -0.6203400953908645 [Eh]
	 Opposite-Spin Energy      =      -1.9543881927590989 [Eh]
	 Correlation Energy        =      -2.5747282881499634 [Eh]
	 Total Energy              =    -605.6905259909686947 [Eh]

	 ================> DF-SCS-MP2 Energies <==================
	-----------------------------------------------------------
	 SCS Same-Spin Scale       =       0.3333333333333333 [-]
	 SCS Opposite-Spin Scale   =       1.2000000000000000 [-]
	 SCS Same-Spin Energy      =      -0.2067800317969548 [Eh]
	 SCS Opposite-Spin Energy  =      -2.3452658313109187 [Eh]
	 SCS Correlation Energy    =      -2.5520458631078737 [Eh]
	 SCS Total Energy          =    -605.6678435659266597 [Eh]
	-----------------------------------------------------------

  Dipole Moment: [D]
     X:     3.4294      Y:     0.2850      Z:     0.3357     Total:     3.4575

*** Psi4 exiting successfully. Buy a developer a beer!
