                               Psi4 1.4a3.dev225

  ==> Input File <==

--------------------------------------------------------------------------
#psi4
#
memory 32 gb

molecule  {
0 1
  O       -2.2193770     1.8892330     0.0268230
  O       -3.7558620     0.4909310    -0.8718590
  N       -2.7972650    -1.6524490     0.5031070
  N        1.9782870     0.3250840    -0.2428510
  N        3.8986140     1.3191370     0.6232000
  N        4.0945810    -0.8301440    -0.2248910
  C       -0.6989470    -0.3870780     0.7275970
  C       -0.2062790    -0.6613260    -0.6876040
  C       -2.2281040    -0.3472380     0.8304820
  C        1.3110007    -0.8537861    -0.7235633
  C       -2.8235710     0.6804660    -0.1079880
  C        3.2335740     0.2410780     0.0212990
  H       -0.2749720     0.5529910     1.0902940
  H       -0.3479120    -1.1823300     1.4000480
  H       -0.7189380    -1.5432990    -1.0858630
  H       -0.4507980     0.1909300    -1.3325750
  H       -2.4926300     0.0060750     1.8439900
  H        1.5489680    -1.7592400    -0.1213590
  H        1.6102530    -1.0961940    -1.7629760
  H       -3.7667330    -1.5380950     0.2123320
  H       -2.7872020    -2.2442710     1.3309830
  H       -2.6822190     2.4830960    -0.6002000
  H        3.2771960     2.1225880     0.6500220
  H        4.7687340     1.5514780     0.1515250
  H        4.8021180    -0.9483820     0.4927870
  H        3.6261930    -1.7023420    -0.4398710
units angstrom
no_reorient  #important for SAPT in psi4, default
symmetry c1  #important for SAPT in psi4, default
}

set PROPERTIES_ORIGIN ["COM"]
properties('MP2/aug-cc-pvtz', properties = ['dipole'])
--------------------------------------------------------------------------

    Molecular point group: c1
  Charge       = 0
  Multiplicity = 1
  Basis Set: AUG-CC-PVTZ
    Blend: AUG-CC-PVTZ
  Basis Set: (AUG-CC-PVTZ AUX)
    Blend: AUG-CC-PVTZ-JKFIT

    Orbital Energies [Eh]
    ---------------------

    Doubly Occupied:

       1A    -20.611402     2A    -20.548677     3A    -15.583261
       4A    -15.570278     5A    -15.541152     6A    -15.518427
       7A    -11.384003     8A    -11.342849     9A    -11.272682
      10A    -11.243709    11A    -11.214788    12A    -11.204355
      13A     -1.457126    14A     -1.353943    15A     -1.297210
      16A     -1.191191    17A     -1.166637    18A     -1.164256
      19A     -1.048975    20A     -0.975835    21A     -0.894971
      22A     -0.823914    23A     -0.784044    24A     -0.766006
      25A     -0.717716    26A     -0.704874    27A     -0.702665
      28A     -0.692170    29A     -0.657234    30A     -0.636986
      31A     -0.621437    32A     -0.618701    33A     -0.609644
      34A     -0.598409    35A     -0.572474    36A     -0.557361
      37A     -0.544957    38A     -0.525379    39A     -0.492708
      40A     -0.478484    41A     -0.472928    42A     -0.470116
      43A     -0.442028    44A     -0.437103    45A     -0.400514
      46A     -0.392484    47A     -0.350822

  @DF-RHF Final Energy:  -603.12777309907517

   => Energetics <=

    Nuclear Repulsion Energy =            725.5928438745531821
    One-Electron Energy =               -2264.1274683731962796
    Two-Electron Energy =                 935.4068513995679268
    Total Energy =                       -603.1277730990751706
  Basis Set: (AUG-CC-PVTZ AUX)
    Blend: AUG-CC-PVTZ-RI
    Molecular point group: c1

    Geometry (in Angstrom), charge = 0, multiplicity = 1:

       Center              X                  Y                   Z               Mass
    ------------   -----------------  -----------------  -----------------  -----------------
         O           -2.185488539695     1.859084716265     0.036748938486    15.994914619570
         O           -3.721973539695     0.460782716265    -0.861933061514    15.994914619570
         N           -2.763376539695    -1.682597283735     0.513032938486    14.003074004430
         N            2.012175460305     0.294935716265    -0.232925061514    14.003074004430
         N            3.932502460305     1.288988716265     0.633125938486    14.003074004430
         N            4.128469460305    -0.860292283735    -0.214965061514    14.003074004430
         C           -0.665058539695    -0.417226283735     0.737522938486    12.000000000000
         C           -0.172390539695    -0.691474283735    -0.677678061514    12.000000000000
         C           -2.194215539695    -0.377386283735     0.840407938486    12.000000000000
         C            1.344889160305    -0.883934383735    -0.713637361514    12.000000000000
         C           -2.789682539695     0.650317716265    -0.098062061514    12.000000000000
         C            3.267462460305     0.210929716265     0.031224938486    12.000000000000
         H           -0.241083539695     0.522842716265     1.100219938486     1.007825032230
         H           -0.314023539695    -1.212478283735     1.409973938486     1.007825032230
         H           -0.685049539695    -1.573447283735    -1.075937061514     1.007825032230
         H           -0.416909539695     0.160781716265    -1.322649061514     1.007825032230
         H           -2.458741539695    -0.024073283735     1.853915938486     1.007825032230
         H            1.582856460305    -1.789388283735    -0.111433061514     1.007825032230
         H            1.644141460305    -1.126342283735    -1.753050061514     1.007825032230
         H           -3.732844539695    -1.568243283735     0.222257938486     1.007825032230
         H           -2.753313539695    -2.274419283735     1.340908938486     1.007825032230
         H           -2.648330539695     2.452947716265    -0.590274061514     1.007825032230
         H            3.311084460305     2.092439716265     0.659947938486     1.007825032230
         H            4.802622460305     1.521329716265     0.161450938486     1.007825032230
         H            4.836006460305    -0.978530283735     0.502712938486     1.007825032230
         H            3.660081460305    -1.732490283735    -0.429945061514     1.007825032230

  Basis Set: AUG-CC-PVTZ
    Blend: AUG-CC-PVTZ
  Basis Set: (AUG-CC-PVTZ AUX)
    Blend: AUG-CC-PVTZ-JKFIT
	 Reference Energy          =    -603.1277730990751706 [Eh]
	 Singles Energy            =      -0.0000000000000000 [Eh]
	 Same-Spin Energy          =      -0.6202379215755593 [Eh]
	 Opposite-Spin Energy      =      -1.9537288448888477 [Eh]
	 Correlation Energy        =      -2.5739667664644070 [Eh]
	 Total Energy              =    -605.7017398655395937 [Eh]

	 ================> DF-SCS-MP2 Energies <==================
	-----------------------------------------------------------
	 SCS Same-Spin Scale       =       0.3333333333333333 [-]
	 SCS Opposite-Spin Scale   =       1.2000000000000000 [-]
	 SCS Same-Spin Energy      =      -0.2067459738585198 [Eh]
	 SCS Opposite-Spin Energy  =      -2.3444746138666170 [Eh]
	 SCS Correlation Energy    =      -2.5512205877251368 [Eh]
	 SCS Total Energy          =    -605.6789936868002542 [Eh]
	-----------------------------------------------------------

  Dipole Moment: [D]
     X:     2.5625      Y:    -0.2607      Z:     1.7000     Total:     3.0861

*** Psi4 exiting successfully. Buy a developer a beer!
