                               Psi4 1.3.2 release

  ==> Input File <==

--------------------------------------------------------------------------
#psi4
#
memory 32 gb

molecule  {
0 1
  O       -2.2266400     1.8867650    -0.0032170
  O       -3.7615920     0.4694410    -0.8736430
  N       -2.7859400    -1.6499310     0.5252010
  N        1.9794570     0.3457110    -0.2591130
  N        3.8776304     1.3240571     0.6426141
  N        4.0160410    -0.8946960    -0.1223760
  C       -0.6937690    -0.3717720     0.7299070
  C       -0.1993830    -0.6671070    -0.6806480
  C       -2.2227870    -0.3377670     0.8339710
  C        1.3098450    -0.8661090    -0.7166530
  C       -2.8261080     0.6730930    -0.1173080
  C        3.2319800     0.2459460     0.0175660
  H       -0.2748670     0.5765650     1.0765220
  H       -0.3365530    -1.1529370     1.4152070
  H       -0.7054620    -1.5600450    -1.0625750
  H       -0.4516800     0.1714660    -1.3406670
  H       -2.4873830     0.0287790     1.8430020
  H        1.5813230    -1.7317920    -0.0895090
  H        1.6134840    -1.1144100    -1.7484380
  H       -3.7640510    -1.5477110     0.2601170
  H       -2.7467370    -2.2384130     1.3547150
  H       -2.6964570     2.4686380    -0.6361950
  H        3.2621090     2.1005400     0.7117460
  H        4.7565350     1.5848730     0.1747350
  H        5.0073770    -0.7866830     0.0488590
  H        3.7976690    -1.4866510    -0.9131750
units angstrom
no_reorient  #important for SAPT in psi4, default
symmetry c1  #important for SAPT in psi4, default
}

set PROPERTIES_ORIGIN ["COM"]
properties('MP2/aug-cc-pvtz', properties = ['dipole'])
--------------------------------------------------------------------------

    Molecular point group: c1
  Charge       = 0
  Multiplicity = 1
  Basis Set: AUG-CC-PVTZ
    Blend: AUG-CC-PVTZ
  Basis Set: (AUG-CC-PVTZ AUX)
    Blend: AUG-CC-PVTZ-JKFIT

    Orbital Energies [Eh]
    ---------------------

    Doubly Occupied:

       1A    -20.609683     2A    -20.546893     3A    -15.584598
       4A    -15.570491     5A    -15.539340     6A    -15.514342
       7A    -11.382183     8A    -11.341499     9A    -11.270637
      10A    -11.237892    11A    -11.212230    12A    -11.201415
      13A     -1.455328    14A     -1.352076    15A     -1.295268
      16A     -1.189258    17A     -1.169583    18A     -1.156883
      19A     -1.046625    20A     -0.973913    21A     -0.892341
      22A     -0.821705    23A     -0.785486    24A     -0.765032
      25A     -0.720292    26A     -0.702238    27A     -0.699503
      28A     -0.688745    29A     -0.655687    30A     -0.642214
      31A     -0.631971    32A     -0.617559    33A     -0.607817
      34A     -0.593412    35A     -0.569219    36A     -0.551057
      37A     -0.540671    38A     -0.521452    39A     -0.491159
      40A     -0.476974    41A     -0.469600    42A     -0.467360
      43A     -0.440110    44A     -0.438298    45A     -0.397544
      46A     -0.390749    47A     -0.345930

  @DF-RHF Final Energy:  -603.12585944745365

   => Energetics <=

    Nuclear Repulsion Energy =            725.8665621310179858
    One-Electron Energy =               -2264.8363166980029746
    Two-Electron Energy =                 935.8438951195314530
    Total Energy =                       -603.1258594474536494
  Basis Set: (AUG-CC-PVTZ AUX)
    Blend: AUG-CC-PVTZ-RI
    Molecular point group: c1

    Geometry (in Angstrom), charge = 0, multiplicity = 1:

       Center              X                  Y                   Z               Mass
    ------------   -----------------  -----------------  -----------------  -----------------
         O           -2.187958519291     1.859038284839     0.003154720804    15.994914619570
         O           -3.722910519291     0.441714284839    -0.867271279196    15.994914619570
         N           -2.747258519291    -1.677657715161     0.531572720804    14.003074004430
         N            2.018138480709     0.317984284839    -0.252741279196    14.003074004430
         N            3.916311880709     1.296330384839     0.648985820804    14.003074004430
         N            4.054722480709    -0.922422715161    -0.116004279196    14.003074004430
         C           -0.655087519291    -0.399498715161     0.736278720804    12.000000000000
         C           -0.160701519291    -0.694833715161    -0.674276279196    12.000000000000
         C           -2.184105519291    -0.365493715161     0.840342720804    12.000000000000
         C            1.348526480709    -0.893835715161    -0.710281279196    12.000000000000
         C           -2.787426519291     0.645366284839    -0.110936279196    12.000000000000
         C            3.270661480709     0.218219284839     0.023937720804    12.000000000000
         H           -0.236185519291     0.548838284839     1.082893720804     1.007825032230
         H           -0.297871519291    -1.180663715161     1.421578720804     1.007825032230
         H           -0.666780519291    -1.587771715161    -1.056203279196     1.007825032230
         H           -0.412998519291     0.143739284839    -1.334295279196     1.007825032230
         H           -2.448701519291     0.001052284839     1.849373720804     1.007825032230
         H            1.620004480709    -1.759518715161    -0.083137279196     1.007825032230
         H            1.652165480709    -1.142136715161    -1.742066279196     1.007825032230
         H           -3.725369519291    -1.575437715161     0.266488720804     1.007825032230
         H           -2.708055519291    -2.266139715161     1.361086720804     1.007825032230
         H           -2.657775519291     2.440911284839    -0.629823279196     1.007825032230
         H            3.300790480709     2.072813284839     0.718117720804     1.007825032230
         H            4.795216480709     1.557146284839     0.181106720804     1.007825032230
         H            5.046058480709    -0.814409715161     0.055230720804     1.007825032230
         H            3.836350480709    -1.514377715161    -0.906803279196     1.007825032230

  Basis Set: AUG-CC-PVTZ
    Blend: AUG-CC-PVTZ
  Basis Set: (AUG-CC-PVTZ AUX)
    Blend: AUG-CC-PVTZ-JKFIT
	 Reference Energy          =    -603.1258594474536494 [Eh]
	 Singles Energy            =      -0.0000000000000000 [Eh]
	 Same-Spin Energy          =      -0.6201743231481976 [Eh]
	 Opposite-Spin Energy      =      -1.9535459814290526 [Eh]
	 Correlation Energy        =      -2.5737203045772503 [Eh]
	 Total Energy              =    -605.6995797520308997 [Eh]

	 ================> DF-SCS-MP2 Energies <==================
	-----------------------------------------------------------
	 SCS Same-Spin Scale       =       0.3333333333333333 [-]
	 SCS Opposite-Spin Scale   =       1.2000000000000000 [-]
	 SCS Same-Spin Energy      =      -0.2067247743827325 [Eh]
	 SCS Opposite-Spin Energy  =      -2.3442551777148628 [Eh]
	 SCS Correlation Energy    =      -2.5509799520975953 [Eh]
	 SCS Total Energy          =    -605.6768393995512270 [Eh]
	-----------------------------------------------------------

  Dipole Moment: [D]
     X:     3.4652      Y:     0.2721      Z:     0.3599     Total:     3.4945

*** Psi4 exiting successfully. Buy a developer a beer!
