                               Psi4 1.3.2 release

  ==> Input File <==

--------------------------------------------------------------------------
#psi4
#
memory 32 gb

molecule  {
0 1
  O       -2.2266400     1.8867650    -0.0032170
  O       -3.7615920     0.4694410    -0.8736430
  N       -2.7859400    -1.6499310     0.5252010
  N        1.9794570     0.3457110    -0.2591130
  N        3.8978530     1.3104060     0.6447910
  N        4.0160410    -0.8946960    -0.1223760
  C       -0.6937690    -0.3717720     0.7299070
  C       -0.1993830    -0.6671070    -0.6806480
  C       -2.2227870    -0.3377670     0.8339710
  C        1.4444001    -0.9365516    -0.7015468
  C       -2.8261080     0.6730930    -0.1173080
  C        3.2319800     0.2459460     0.0175660
  H       -0.2748670     0.5765650     1.0765220
  H       -0.3365530    -1.1529370     1.4152070
  H       -0.7054620    -1.5600450    -1.0625750
  H       -0.4516800     0.1714660    -1.3406670
  H       -2.4873830     0.0287790     1.8430020
  H        1.5813230    -1.7317920    -0.0895090
  H        1.6134840    -1.1144100    -1.7484380
  H       -3.7640510    -1.5477110     0.2601170
  H       -2.7467370    -2.2384130     1.3547150
  H       -2.6964570     2.4686380    -0.6361950
  H        3.2621090     2.1005400     0.7117460
  H        4.7565350     1.5848730     0.1747350
  H        5.0073770    -0.7866830     0.0488590
  H        3.7976690    -1.4866510    -0.9131750
units angstrom
no_reorient  #important for SAPT in psi4, default
symmetry c1  #important for SAPT in psi4, default
}

set PROPERTIES_ORIGIN ["COM"]
properties('MP2/aug-cc-pvtz', properties = ['dipole'])
--------------------------------------------------------------------------

    Molecular point group: c1
  Charge       = 0
  Multiplicity = 1
  Basis Set: AUG-CC-PVTZ
    Blend: AUG-CC-PVTZ
  Basis Set: (AUG-CC-PVTZ AUX)
    Blend: AUG-CC-PVTZ-JKFIT

    Orbital Energies [Eh]
    ---------------------

    Doubly Occupied:

       1A    -20.608738     2A    -20.545790     3A    -15.584701
       4A    -15.572486     5A    -15.537844     6A    -15.518629
       7A    -11.381071     8A    -11.341423     9A    -11.269251
      10A    -11.232886    11A    -11.210434    12A    -11.203665
      13A     -1.454312    14A     -1.351023    15A     -1.298878
      16A     -1.187578    17A     -1.169453    18A     -1.159549
      19A     -1.037257    20A     -0.963073    21A     -0.894159
      22A     -0.818967    23A     -0.788442    24A     -0.764433
      25A     -0.720524    26A     -0.703885    27A     -0.700157
      28A     -0.690159    29A     -0.653022    30A     -0.638484
      31A     -0.634084    32A     -0.616413    33A     -0.604038
      34A     -0.602450    35A     -0.566065    36A     -0.549250
      37A     -0.541197    38A     -0.522535    39A     -0.483087
      40A     -0.476684    41A     -0.472734    42A     -0.453938
      43A     -0.439364    44A     -0.431287    45A     -0.401011
      46A     -0.389071    47A     -0.350588

  @DF-RHF Final Energy:  -603.10482002455581

   => Energetics <=

    Nuclear Repulsion Energy =            724.5627936777507330
    One-Electron Energy =               -2262.2670941114110974
    Two-Electron Energy =                 934.5994804091045580
    Total Energy =                       -603.1048200245558064
  Basis Set: (AUG-CC-PVTZ AUX)
    Blend: AUG-CC-PVTZ-RI
    Molecular point group: c1

    Geometry (in Angstrom), charge = 0, multiplicity = 1:

       Center              X                  Y                   Z               Mass
    ------------   -----------------  -----------------  -----------------  -----------------
         O           -2.198858648514     1.864991180067     0.001938503161    15.994914619570
         O           -3.733810648514     0.447667180067    -0.868487496839    15.994914619570
         N           -2.758158648514    -1.671704819933     0.530356503161    14.003074004430
         N            2.007238351486     0.323937180067    -0.253957496839    14.003074004430
         N            3.925634351486     1.288632180067     0.649946503161    14.003074004430
         N            4.043822351486    -0.916469819933    -0.117220496839    14.003074004430
         C           -0.665987648514    -0.393545819933     0.735062503161    12.000000000000
         C           -0.171601648514    -0.688880819933    -0.675492496839    12.000000000000
         C           -2.195005648514    -0.359540819933     0.839126503161    12.000000000000
         C            1.472181451486    -0.958325419933    -0.696391296839    12.000000000000
         C           -2.798326648514     0.651319180067    -0.112152496839    12.000000000000
         C            3.259761351486     0.224172180067     0.022721503161    12.000000000000
         H           -0.247085648514     0.554791180067     1.081677503161     1.007825032230
         H           -0.308771648514    -1.174710819933     1.420362503161     1.007825032230
         H           -0.677680648514    -1.581818819933    -1.057419496839     1.007825032230
         H           -0.423898648514     0.149692180067    -1.335511496839     1.007825032230
         H           -2.459601648514     0.007005180067     1.848157503161     1.007825032230
         H            1.609104351486    -1.753565819933    -0.084353496839     1.007825032230
         H            1.641265351486    -1.136183819933    -1.743282496839     1.007825032230
         H           -3.736269648514    -1.569484819933     0.265272503161     1.007825032230
         H           -2.718955648514    -2.260186819933     1.359870503161     1.007825032230
         H           -2.668675648514     2.446864180067    -0.631039496839     1.007825032230
         H            3.289890351486     2.078766180067     0.716901503161     1.007825032230
         H            4.784316351486     1.563099180067     0.179890503161     1.007825032230
         H            5.035158351486    -0.808456819933     0.054014503161     1.007825032230
         H            3.825450351486    -1.508424819933    -0.908019496839     1.007825032230

  Basis Set: AUG-CC-PVTZ
    Blend: AUG-CC-PVTZ
  Basis Set: (AUG-CC-PVTZ AUX)
    Blend: AUG-CC-PVTZ-JKFIT
	 Reference Energy          =    -603.1048200245558064 [Eh]
	 Singles Energy            =      -0.0000000000000000 [Eh]
	 Same-Spin Energy          =      -0.6205435844341933 [Eh]
	 Opposite-Spin Energy      =      -1.9552362862659112 [Eh]
	 Correlation Energy        =      -2.5757798707001047 [Eh]
	 Total Energy              =    -605.6805998952559094 [Eh]

	 ================> DF-SCS-MP2 Energies <==================
	-----------------------------------------------------------
	 SCS Same-Spin Scale       =       0.3333333333333333 [-]
	 SCS Opposite-Spin Scale   =       1.2000000000000000 [-]
	 SCS Same-Spin Energy      =      -0.2068478614780644 [Eh]
	 SCS Opposite-Spin Energy  =      -2.3462835435190934 [Eh]
	 SCS Correlation Energy    =      -2.5531314049971581 [Eh]
	 SCS Total Energy          =    -605.6579514295530089 [Eh]
	-----------------------------------------------------------

  Dipole Moment: [D]
     X:     3.6367      Y:     0.2904      Z:     0.3881     Total:     3.6688

*** Psi4 exiting successfully. Buy a developer a beer!
