                               Psi4 1.3.2 release

  ==> Input File <==

--------------------------------------------------------------------------
#psi4
#
memory 32 gb

molecule  {
0 1
  O       -2.2266400     1.8867650    -0.0032170
  O       -3.7615920     0.4694410    -0.8736430
  N       -2.7859400    -1.6499310     0.5252010
  N        1.9565761     0.3714381    -0.2965972
  N        3.8978530     1.3104060     0.6447910
  N        4.0160410    -0.8946960    -0.1223760
  C       -0.6937690    -0.3717720     0.7299070
  C       -0.1993830    -0.6671070    -0.6806480
  C       -2.2227870    -0.3377670     0.8339710
  C        1.3098450    -0.8661090    -0.7166530
  C       -2.8261080     0.6730930    -0.1173080
  C        3.2319800     0.2459460     0.0175660
  H       -0.2748670     0.5765650     1.0765220
  H       -0.3365530    -1.1529370     1.4152070
  H       -0.7054620    -1.5600450    -1.0625750
  H       -0.4516800     0.1714660    -1.3406670
  H       -2.4873830     0.0287790     1.8430020
  H        1.5813230    -1.7317920    -0.0895090
  H        1.6134840    -1.1144100    -1.7484380
  H       -3.7640510    -1.5477110     0.2601170
  H       -2.7467370    -2.2384130     1.3547150
  H       -2.6964570     2.4686380    -0.6361950
  H        3.2621090     2.1005400     0.7117460
  H        4.7565350     1.5848730     0.1747350
  H        5.0073770    -0.7866830     0.0488590
  H        3.7976690    -1.4866510    -0.9131750
units angstrom
no_reorient  #important for SAPT in psi4, default
symmetry c1  #important for SAPT in psi4, default
}

set PROPERTIES_ORIGIN ["COM"]
properties('MP2/aug-cc-pvtz', properties = ['dipole'])
--------------------------------------------------------------------------

    Molecular point group: c1
  Charge       = 0
  Multiplicity = 1
  Basis Set: AUG-CC-PVTZ
    Blend: AUG-CC-PVTZ
  Basis Set: (AUG-CC-PVTZ AUX)
    Blend: AUG-CC-PVTZ-JKFIT

    Orbital Energies [Eh]
    ---------------------

    Doubly Occupied:

       1A    -20.609120     2A    -20.546360     3A    -15.587746
       4A    -15.574667     5A    -15.538834     6A    -15.518958
       7A    -11.381654     8A    -11.348713     9A    -11.270100
      10A    -11.236149    11A    -11.211542    12A    -11.199993
      13A     -1.454774    14A     -1.351535    15A     -1.292892
      16A     -1.188730    17A     -1.170214    18A     -1.153633
      19A     -1.044278    20A     -0.971347    21A     -0.890218
      22A     -0.820955    23A     -0.785897    24A     -0.763971
      25A     -0.721896    26A     -0.702684    27A     -0.700240
      28A     -0.689775    29A     -0.655222    30A     -0.638392
      31A     -0.630831    32A     -0.617025    33A     -0.605498
      34A     -0.592087    35A     -0.568497    36A     -0.549621
      37A     -0.540361    38A     -0.519156    39A     -0.490332
      40A     -0.476383    41A     -0.468212    42A     -0.465853
      43A     -0.439860    44A     -0.439163    45A     -0.401005
      46A     -0.391088    47A     -0.341982

  @DF-RHF Final Energy:  -603.12133237719377

   => Energetics <=

    Nuclear Repulsion Energy =            725.1909808302456213
    One-Electron Energy =               -2263.5097428675858282
    Two-Electron Energy =                 935.1974296601463266
    Total Energy =                       -603.1213323771937667
  Basis Set: (AUG-CC-PVTZ AUX)
    Blend: AUG-CC-PVTZ-RI
    Molecular point group: c1

    Geometry (in Angstrom), charge = 0, multiplicity = 1:

       Center              X                  Y                   Z               Mass
    ------------   -----------------  -----------------  -----------------  -----------------
         O           -2.187744723338     1.858067062656     0.005994339301    15.994914619570
         O           -3.722696723338     0.440743062656    -0.864431660699    15.994914619570
         N           -2.747044723338    -1.678628937344     0.534412339301    14.003074004430
         N            1.995471376662     0.342740162656    -0.287385860699    14.003074004430
         N            3.936748276662     1.281708062656     0.654002339301    14.003074004430
         N            4.054936276662    -0.923393937344    -0.113164660699    14.003074004430
         C           -0.654873723338    -0.400469937344     0.739118339301    12.000000000000
         C           -0.160487723338    -0.695804937344    -0.671436660699    12.000000000000
         C           -2.183891723338    -0.366464937344     0.843182339301    12.000000000000
         C            1.348740276662    -0.894806937344    -0.707441660699    12.000000000000
         C           -2.787212723338     0.644395062656    -0.108096660699    12.000000000000
         C            3.270875276662     0.217248062656     0.026777339301    12.000000000000
         H           -0.235971723338     0.547867062656     1.085733339301     1.007825032230
         H           -0.297657723338    -1.181634937344     1.424418339301     1.007825032230
         H           -0.666566723338    -1.588742937344    -1.053363660699     1.007825032230
         H           -0.412784723338     0.142768062656    -1.331455660699     1.007825032230
         H           -2.448487723338     0.000081062656     1.852213339301     1.007825032230
         H            1.620218276662    -1.760489937344    -0.080297660699     1.007825032230
         H            1.652379276662    -1.143107937344    -1.739226660699     1.007825032230
         H           -3.725155723338    -1.576408937344     0.269328339301     1.007825032230
         H           -2.707841723338    -2.267110937344     1.363926339301     1.007825032230
         H           -2.657561723338     2.439940062656    -0.626983660699     1.007825032230
         H            3.301004276662     2.071842062656     0.720957339301     1.007825032230
         H            4.795430276662     1.556175062656     0.183946339301     1.007825032230
         H            5.046272276662    -0.815380937344     0.058070339301     1.007825032230
         H            3.836564276662    -1.515348937344    -0.903963660699     1.007825032230

  Basis Set: AUG-CC-PVTZ
    Blend: AUG-CC-PVTZ
  Basis Set: (AUG-CC-PVTZ AUX)
    Blend: AUG-CC-PVTZ-JKFIT
	 Reference Energy          =    -603.1213323771937667 [Eh]
	 Singles Energy            =      -0.0000000000000000 [Eh]
	 Same-Spin Energy          =      -0.6209708894917898 [Eh]
	 Opposite-Spin Energy      =      -1.9553456139209926 [Eh]
	 Correlation Energy        =      -2.5763165034127824 [Eh]
	 Total Energy              =    -605.6976488806064935 [Eh]

	 ================> DF-SCS-MP2 Energies <==================
	-----------------------------------------------------------
	 SCS Same-Spin Scale       =       0.3333333333333333 [-]
	 SCS Opposite-Spin Scale   =       1.2000000000000000 [-]
	 SCS Same-Spin Energy      =      -0.2069902964972632 [Eh]
	 SCS Opposite-Spin Energy  =      -2.3464147367051909 [Eh]
	 SCS Correlation Energy    =      -2.5534050332024543 [Eh]
	 SCS Total Energy          =    -605.6747374103962329 [Eh]
	-----------------------------------------------------------

  Dipole Moment: [D]
     X:     3.5766      Y:     0.2520      Z:     0.4361     Total:     3.6119

*** Psi4 exiting successfully. Buy a developer a beer!
