                               Psi4 1.3.2 release

  ==> Input File <==

--------------------------------------------------------------------------
#psi4
#
memory 32 gb

molecule  {
0 1
  O       -2.2266400     1.8867650    -0.0032170
  O       -3.7615920     0.4694410    -0.8736430
  N       -2.7859400    -1.6499310     0.5252010
  N        1.9794570     0.3457110    -0.2591130
  N        3.8978530     1.3104060     0.6447910
  N        4.0160410    -0.8946960    -0.1223760
  C       -0.6937690    -0.3717720     0.7299070
  C       -0.1993830    -0.6671070    -0.6806480
  C       -2.2227870    -0.3377670     0.8339710
  C        1.2665530    -0.8396353    -0.7205810
  C       -2.8261080     0.6730930    -0.1173080
  C        3.2319800     0.2459460     0.0175660
  H       -0.2748670     0.5765650     1.0765220
  H       -0.3365530    -1.1529370     1.4152070
  H       -0.7054620    -1.5600450    -1.0625750
  H       -0.4516800     0.1714660    -1.3406670
  H       -2.4873830     0.0287790     1.8430020
  H        1.5813230    -1.7317920    -0.0895090
  H        1.6134840    -1.1144100    -1.7484380
  H       -3.7640510    -1.5477110     0.2601170
  H       -2.7467370    -2.2384130     1.3547150
  H       -2.6964570     2.4686380    -0.6361950
  H        3.2621090     2.1005400     0.7117460
  H        4.7565350     1.5848730     0.1747350
  H        5.0073770    -0.7866830     0.0488590
  H        3.7976690    -1.4866510    -0.9131750
units angstrom
no_reorient  #important for SAPT in psi4, default
symmetry c1  #important for SAPT in psi4, default
}

set PROPERTIES_ORIGIN ["COM"]
properties('MP2/aug-cc-pvtz', properties = ['dipole'])
--------------------------------------------------------------------------

    Molecular point group: c1
  Charge       = 0
  Multiplicity = 1
  Basis Set: AUG-CC-PVTZ
    Blend: AUG-CC-PVTZ
  Basis Set: (AUG-CC-PVTZ AUX)
    Blend: AUG-CC-PVTZ-JKFIT

    Orbital Energies [Eh]
    ---------------------

    Doubly Occupied:

       1A    -20.610259     2A    -20.547508     3A    -15.583126
       4A    -15.571429     5A    -15.540104     6A    -15.514789
       7A    -11.382807     8A    -11.341972     9A    -11.271399
      10A    -11.241843    11A    -11.213314    12A    -11.200922
      13A     -1.455924    14A     -1.352677    15A     -1.294319
      16A     -1.190146    17A     -1.167140    18A     -1.157896
      19A     -1.051596    20A     -0.978440    21A     -0.892478
      22A     -0.822705    23A     -0.783552    24A     -0.764838
      25A     -0.718816    26A     -0.703108    27A     -0.700802
      28A     -0.689251    29A     -0.656903    30A     -0.638960
      31A     -0.631510    32A     -0.618212    33A     -0.608563
      34A     -0.591019    35A     -0.570748    36A     -0.551811
      37A     -0.542176    38A     -0.521324    39A     -0.497276
      40A     -0.477374    41A     -0.472946    42A     -0.465565
      43A     -0.440817    44A     -0.438641    45A     -0.395836
      46A     -0.389565    47A     -0.344682

  @DF-RHF Final Energy:  -603.12291163803764

   => Energetics <=

    Nuclear Repulsion Energy =            726.1999272231619216
    One-Electron Energy =               -2265.4515025487412458
    Two-Electron Energy =                 936.1286636875416889
    Total Energy =                       -603.1229116380376354
  Basis Set: (AUG-CC-PVTZ AUX)
    Blend: AUG-CC-PVTZ-RI
    Molecular point group: c1

    Geometry (in Angstrom), charge = 0, multiplicity = 1:

       Center              X                  Y                   Z               Mass
    ------------   -----------------  -----------------  -----------------  -----------------
         O           -2.186601198281     1.858311584370     0.003250364638    15.994914619570
         O           -3.721553198281     0.440987584370    -0.867175635362    15.994914619570
         N           -2.745901198281    -1.678384415630     0.531668364638    14.003074004430
         N            2.019495801719     0.317257584370    -0.252645635362    14.003074004430
         N            3.937891801719     1.281952584370     0.651258364638    14.003074004430
         N            4.056079801719    -0.923149415630    -0.115908635362    14.003074004430
         C           -0.653730198281    -0.400225415630     0.736374364638    12.000000000000
         C           -0.159344198281    -0.695560415630    -0.674180635362    12.000000000000
         C           -2.182748198281    -0.366220415630     0.840438364638    12.000000000000
         C            1.306591801719    -0.868088715630    -0.714113635362    12.000000000000
         C           -2.786069198281     0.644639584370    -0.110840635362    12.000000000000
         C            3.272018801719     0.217492584370     0.024033364638    12.000000000000
         H           -0.234828198281     0.548111584370     1.082989364638     1.007825032230
         H           -0.296514198281    -1.181390415630     1.421674364638     1.007825032230
         H           -0.665423198281    -1.588498415630    -1.056107635362     1.007825032230
         H           -0.411641198281     0.143012584370    -1.334199635362     1.007825032230
         H           -2.447344198281     0.000325584370     1.849469364638     1.007825032230
         H            1.621361801719    -1.760245415630    -0.083041635362     1.007825032230
         H            1.653522801719    -1.142863415630    -1.741970635362     1.007825032230
         H           -3.724012198281    -1.576164415630     0.266584364638     1.007825032230
         H           -2.706698198281    -2.266866415630     1.361182364638     1.007825032230
         H           -2.656418198281     2.440184584370    -0.629727635362     1.007825032230
         H            3.302147801719     2.072086584370     0.718213364638     1.007825032230
         H            4.796573801719     1.556419584370     0.181202364638     1.007825032230
         H            5.047415801719    -0.815136415630     0.055326364638     1.007825032230
         H            3.837707801719    -1.515104415630    -0.906707635362     1.007825032230

  Basis Set: AUG-CC-PVTZ
    Blend: AUG-CC-PVTZ
  Basis Set: (AUG-CC-PVTZ AUX)
    Blend: AUG-CC-PVTZ-JKFIT
	 Reference Energy          =    -603.1229116380376354 [Eh]
	 Singles Energy            =      -0.0000000000000000 [Eh]
	 Same-Spin Energy          =      -0.6206380204699458 [Eh]
	 Opposite-Spin Energy      =      -1.9541456126264087 [Eh]
	 Correlation Energy        =      -2.5747836330963545 [Eh]
	 Total Energy              =    -605.6976952711339663 [Eh]

	 ================> DF-SCS-MP2 Energies <==================
	-----------------------------------------------------------
	 SCS Same-Spin Scale       =       0.3333333333333333 [-]
	 SCS Opposite-Spin Scale   =       1.2000000000000000 [-]
	 SCS Same-Spin Energy      =      -0.2068793401566486 [Eh]
	 SCS Opposite-Spin Energy  =      -2.3449747351516903 [Eh]
	 SCS Correlation Energy    =      -2.5518540753083387 [Eh]
	 SCS Total Energy          =    -605.6747657133460052 [Eh]
	-----------------------------------------------------------

  Dipole Moment: [D]
     X:     3.3225      Y:     0.3032      Z:     0.3314     Total:     3.3527

*** Psi4 exiting successfully. Buy a developer a beer!
