                               Psi4 1.3.2 release

  ==> Input File <==

--------------------------------------------------------------------------
#psi4
#
memory 32 gb

molecule  {
0 1
  O       -2.2266400     1.8867650    -0.0032170
  O       -3.7615920     0.4694410    -0.8736430
  N       -2.7859400    -1.6499310     0.5252010
  N        1.9794570     0.3457110    -0.2591130
  N        3.8978530     1.3104060     0.6447910
  N        4.0160410    -0.8946960    -0.1223760
  C       -0.6937690    -0.3717720     0.7299070
  C       -0.1993830    -0.6671070    -0.6806480
  C       -2.2227870    -0.3377670     0.8339710
  C        1.3098450    -0.8661090    -0.7166530
  C       -2.8261080     0.6730930    -0.1173080
  C        3.3268660     0.3976302     0.1069447
  H       -0.2748670     0.5765650     1.0765220
  H       -0.3365530    -1.1529370     1.4152070
  H       -0.7054620    -1.5600450    -1.0625750
  H       -0.4516800     0.1714660    -1.3406670
  H       -2.4873830     0.0287790     1.8430020
  H        1.5813230    -1.7317920    -0.0895090
  H        1.6134840    -1.1144100    -1.7484380
  H       -3.7640510    -1.5477110     0.2601170
  H       -2.7467370    -2.2384130     1.3547150
  H       -2.6964570     2.4686380    -0.6361950
  H        3.2621090     2.1005400     0.7117460
  H        4.7565350     1.5848730     0.1747350
  H        5.0073770    -0.7866830     0.0488590
  H        3.7976690    -1.4866510    -0.9131750
units angstrom
no_reorient  #important for SAPT in psi4, default
symmetry c1  #important for SAPT in psi4, default
}

set PROPERTIES_ORIGIN ["COM"]
properties('MP2/aug-cc-pvtz', properties = ['dipole'])
--------------------------------------------------------------------------

    Molecular point group: c1
  Charge       = 0
  Multiplicity = 1
  Basis Set: AUG-CC-PVTZ
    Blend: AUG-CC-PVTZ
  Basis Set: (AUG-CC-PVTZ AUX)
    Blend: AUG-CC-PVTZ-JKFIT

    Orbital Energies [Eh]
    ---------------------

    Doubly Occupied:

       1A    -20.606161     2A    -20.543249     3A    -15.602913
       4A    -15.575904     5A    -15.535326     6A    -15.501894
       7A    -11.378439     8A    -11.354232     9A    -11.265937
      10A    -11.228782    11A    -11.205501    12A    -11.194106
      13A     -1.451738    14A     -1.352629    15A     -1.348506
      16A     -1.185198    17A     -1.180568    18A     -1.118351
      19A     -1.033776    20A     -0.962433    21A     -0.885649
      22A     -0.836741    23A     -0.793879    24A     -0.765000
      25A     -0.748404    26A     -0.699229    27A     -0.693922
      28A     -0.686358    29A     -0.660886    30A     -0.649982
      31A     -0.623724    32A     -0.614309    33A     -0.610994
      34A     -0.580651    35A     -0.564240    36A     -0.557600
      37A     -0.533631    38A     -0.521174    39A     -0.483984
      40A     -0.472032    41A     -0.466058    42A     -0.460580
      43A     -0.439593    44A     -0.434786    45A     -0.388180
      46A     -0.362495    47A     -0.314765

  @DF-RHF Final Energy:  -603.05548482477423

   => Energetics <=

    Nuclear Repulsion Energy =            724.7825171713265036
    One-Electron Energy =               -2262.7270190419362734
    Two-Electron Energy =                 934.8890170458354305
    Total Energy =                       -603.0554848247742257
  Basis Set: (AUG-CC-PVTZ AUX)
    Blend: AUG-CC-PVTZ-RI
    Molecular point group: c1

    Geometry (in Angstrom), charge = 0, multiplicity = 1:

       Center              X                  Y                   Z               Mass
    ------------   -----------------  -----------------  -----------------  -----------------
         O           -2.196124603263     1.849681916119    -0.003180452798    15.994914619570
         O           -3.731076603263     0.432357916119    -0.873606452798    15.994914619570
         N           -2.755424603263    -1.687014083881     0.525237547202    14.003074004430
         N            2.009972396737     0.308627916119    -0.259076452798    14.003074004430
         N            3.928368396737     1.273322916119     0.644827547202    14.003074004430
         N            4.046556396737    -0.931779083881    -0.122339452798    14.003074004430
         C           -0.663253603263    -0.408855083881     0.729943547202    12.000000000000
         C           -0.168867603263    -0.704190083881    -0.680611452798    12.000000000000
         C           -2.192271603263    -0.374850083881     0.834007547202    12.000000000000
         C            1.340360396737    -0.903192083881    -0.716616452798    12.000000000000
         C           -2.795592603263     0.636009916119    -0.117271452798    12.000000000000
         C            3.357381396737     0.360547116119     0.106981247202    12.000000000000
         H           -0.244351603263     0.539481916119     1.076558547202     1.007825032230
         H           -0.306037603263    -1.190020083881     1.415243547202     1.007825032230
         H           -0.674946603263    -1.597128083881    -1.062538452798     1.007825032230
         H           -0.421164603263     0.134382916119    -1.340630452798     1.007825032230
         H           -2.456867603263    -0.008304083881     1.843038547202     1.007825032230
         H            1.611838396737    -1.768875083881    -0.089472452798     1.007825032230
         H            1.643999396737    -1.151493083881    -1.748401452798     1.007825032230
         H           -3.733535603263    -1.584794083881     0.260153547202     1.007825032230
         H           -2.716221603263    -2.275496083881     1.354751547202     1.007825032230
         H           -2.665941603263     2.431554916119    -0.636158452798     1.007825032230
         H            3.292624396737     2.063456916119     0.711782547202     1.007825032230
         H            4.787050396737     1.547789916119     0.174771547202     1.007825032230
         H            5.037892396737    -0.823766083881     0.048895547202     1.007825032230
         H            3.828184396737    -1.523734083881    -0.913138452798     1.007825032230

  Basis Set: AUG-CC-PVTZ
    Blend: AUG-CC-PVTZ
  Basis Set: (AUG-CC-PVTZ AUX)
    Blend: AUG-CC-PVTZ-JKFIT
	 Reference Energy          =    -603.0554848247742257 [Eh]
	 Singles Energy            =      -0.0000000000000000 [Eh]
	 Same-Spin Energy          =      -0.6235710641536890 [Eh]
	 Opposite-Spin Energy      =      -1.9582713411819592 [Eh]
	 Correlation Energy        =      -2.5818424053356481 [Eh]
	 Total Energy              =    -605.6373272301099178 [Eh]

	 ================> DF-SCS-MP2 Energies <==================
	-----------------------------------------------------------
	 SCS Same-Spin Scale       =       0.3333333333333333 [-]
	 SCS Opposite-Spin Scale   =       1.2000000000000000 [-]
	 SCS Same-Spin Energy      =      -0.2078570213845630 [Eh]
	 SCS Opposite-Spin Energy  =      -2.3499256094183512 [Eh]
	 SCS Correlation Energy    =      -2.5577826308029143 [Eh]
	 SCS Total Energy          =    -605.6132674555771018 [Eh]
	-----------------------------------------------------------

  Dipole Moment: [D]
     X:     4.3037      Y:     1.4047      Z:     0.9538     Total:     4.6265

*** Psi4 exiting successfully. Buy a developer a beer!
