                               Psi4 1.3.2 release

  ==> Input File <==

--------------------------------------------------------------------------
#psi4
#
memory 32 gb

molecule  {
0 1
  O       -2.2266400     1.8867650    -0.0032170
  O       -3.7615920     0.4694410    -0.8736430
  N       -2.7859400    -1.6499310     0.5252010
  N        1.9794570     0.3457110    -0.2591130
  N        3.8978530     1.3104060     0.6447910
  N        4.0160410    -0.8946960    -0.1223760
  C       -0.6937690    -0.3717720     0.7299070
  C       -0.1993830    -0.6671070    -0.6806480
  C       -2.2227870    -0.3377670     0.8339710
  C        1.3098450    -0.8661090    -0.7166530
  C       -2.8261080     0.6730930    -0.1173080
  C        3.3293320     0.2381918     0.0390708
  H       -0.2748670     0.5765650     1.0765220
  H       -0.3365530    -1.1529370     1.4152070
  H       -0.7054620    -1.5600450    -1.0625750
  H       -0.4516800     0.1714660    -1.3406670
  H       -2.4873830     0.0287790     1.8430020
  H        1.5813230    -1.7317920    -0.0895090
  H        1.6134840    -1.1144100    -1.7484380
  H       -3.7640510    -1.5477110     0.2601170
  H       -2.7467370    -2.2384130     1.3547150
  H       -2.6964570     2.4686380    -0.6361950
  H        3.2621090     2.1005400     0.7117460
  H        4.7565350     1.5848730     0.1747350
  H        5.0073770    -0.7866830     0.0488590
  H        3.7976690    -1.4866510    -0.9131750
units angstrom
no_reorient  #important for SAPT in psi4, default
symmetry c1  #important for SAPT in psi4, default
}

set PROPERTIES_ORIGIN ["COM"]
properties('MP2/aug-cc-pvtz', properties = ['dipole'])
--------------------------------------------------------------------------

    Molecular point group: c1
  Charge       = 0
  Multiplicity = 1
  Basis Set: AUG-CC-PVTZ
    Blend: AUG-CC-PVTZ
  Basis Set: (AUG-CC-PVTZ AUX)
    Blend: AUG-CC-PVTZ-JKFIT

    Orbital Energies [Eh]
    ---------------------

    Doubly Occupied:

       1A    -20.606662     2A    -20.543907     3A    -15.597149
       4A    -15.582052     5A    -15.536264     6A    -15.505790
       7A    -11.379121     8A    -11.349852     9A    -11.266946
      10A    -11.228241    11A    -11.207119    12A    -11.195689
      13A     -1.452306    14A     -1.349108    15A     -1.311708
      16A     -1.193981    17A     -1.185874    18A     -1.131311
      19A     -1.036055    20A     -0.963419    21A     -0.884714
      22A     -0.828186    23A     -0.788897    24A     -0.761370
      25A     -0.732477    26A     -0.709573    27A     -0.698452
      28A     -0.687479    29A     -0.661989    30A     -0.651817
      31A     -0.625156    32A     -0.614490    33A     -0.601280
      34A     -0.586274    35A     -0.566768    36A     -0.553836
      37A     -0.535073    38A     -0.519301    39A     -0.485705
      40A     -0.472901    41A     -0.464984    42A     -0.463864
      43A     -0.444992    44A     -0.436487    45A     -0.390307
      46A     -0.381334    47A     -0.319628

  @DF-RHF Final Energy:  -603.10670018627820

   => Energetics <=

    Nuclear Repulsion Energy =            724.9228303317672726
    One-Electron Energy =               -2263.0792810702996576
    Two-Electron Energy =                 935.0497505522541815
    Total Energy =                       -603.1067001862782035
  Basis Set: (AUG-CC-PVTZ AUX)
    Blend: AUG-CC-PVTZ-RI
    Molecular point group: c1

    Geometry (in Angstrom), charge = 0, multiplicity = 1:

       Center              X                  Y                   Z               Mass
    ------------   -----------------  -----------------  -----------------  -----------------
         O           -2.196294563146     1.860670615137     0.001497503443    15.994914619570
         O           -3.731246563146     0.443346615137    -0.868928496557    15.994914619570
         N           -2.755594563146    -1.676025384863     0.529915503443    14.003074004430
         N            2.009802436854     0.319616615137    -0.254398496557    14.003074004430
         N            3.928198436854     1.284311615137     0.649505503443    14.003074004430
         N            4.046386436854    -0.920790384863    -0.117661496557    14.003074004430
         C           -0.663423563146    -0.397866384863     0.734621503443    12.000000000000
         C           -0.169037563146    -0.693201384863    -0.675933496557    12.000000000000
         C           -2.192441563146    -0.363861384863     0.838685503443    12.000000000000
         C            1.340190436854    -0.892203384863    -0.711938496557    12.000000000000
         C           -2.795762563146     0.646998615137    -0.112593496557    12.000000000000
         C            3.359677436854     0.212097415137     0.043785303443    12.000000000000
         H           -0.244521563146     0.550470615137     1.081236503443     1.007825032230
         H           -0.306207563146    -1.179031384863     1.419921503443     1.007825032230
         H           -0.675116563146    -1.586139384863    -1.057860496557     1.007825032230
         H           -0.421334563146     0.145371615137    -1.335952496557     1.007825032230
         H           -2.457037563146     0.002684615137     1.847716503443     1.007825032230
         H            1.611668436854    -1.757886384863    -0.084794496557     1.007825032230
         H            1.643829436854    -1.140504384863    -1.743723496557     1.007825032230
         H           -3.733705563146    -1.573805384863     0.264831503443     1.007825032230
         H           -2.716391563146    -2.264507384863     1.359429503443     1.007825032230
         H           -2.666111563146     2.442543615137    -0.631480496557     1.007825032230
         H            3.292454436854     2.074445615137     0.716460503443     1.007825032230
         H            4.786880436854     1.558778615137     0.179449503443     1.007825032230
         H            5.037722436854    -0.812777384863     0.053573503443     1.007825032230
         H            3.828014436854    -1.512745384863    -0.908460496557     1.007825032230

  Basis Set: AUG-CC-PVTZ
    Blend: AUG-CC-PVTZ
  Basis Set: (AUG-CC-PVTZ AUX)
    Blend: AUG-CC-PVTZ-JKFIT
	 Reference Energy          =    -603.1067001862782035 [Eh]
	 Singles Energy            =      -0.0000000000000000 [Eh]
	 Same-Spin Energy          =      -0.6222904718526507 [Eh]
	 Opposite-Spin Energy      =      -1.9562334735008522 [Eh]
	 Correlation Energy        =      -2.5785239453535027 [Eh]
	 Total Energy              =    -605.6852241316316849 [Eh]

	 ================> DF-SCS-MP2 Energies <==================
	-----------------------------------------------------------
	 SCS Same-Spin Scale       =       0.3333333333333333 [-]
	 SCS Opposite-Spin Scale   =       1.2000000000000000 [-]
	 SCS Same-Spin Energy      =      -0.2074301572842169 [Eh]
	 SCS Opposite-Spin Energy  =      -2.3474801682010225 [Eh]
	 SCS Correlation Energy    =      -2.5549103254852392 [Eh]
	 SCS Total Energy          =    -605.6616105117634561 [Eh]
	-----------------------------------------------------------

  Dipole Moment: [D]
     X:     4.2139      Y:     0.2929      Z:     0.5345     Total:     4.2577

*** Psi4 exiting successfully. Buy a developer a beer!
