                               Psi4 1.4a3.dev225

  ==> Input File <==

--------------------------------------------------------------------------
#psi4
#
memory 32 gb

molecule  {
0 1
  O       -2.2193770     1.8892330     0.0268230
  O       -3.7558620     0.4909310    -0.8718590
  N       -2.7972650    -1.6524490     0.5031070
  N        1.9782870     0.3250840    -0.2428510
  N        3.8986140     1.3191370     0.6232000
  N        4.0945810    -0.8301440    -0.2248910
  C       -0.6989470    -0.3870780     0.7275970
  C       -0.2062790    -0.6613260    -0.6876040
  C       -2.2281040    -0.3472380     0.8304820
  C        1.3017160    -0.8701890    -0.7302520
  C       -2.8235710     0.6804660    -0.1079880
  C        3.2430582     0.2564523     0.0298828
  H       -0.2749720     0.5529910     1.0902940
  H       -0.3479120    -1.1823300     1.4000480
  H       -0.7189380    -1.5432990    -1.0858630
  H       -0.4507980     0.1909300    -1.3325750
  H       -2.4926300     0.0060750     1.8439900
  H        1.5489680    -1.7592400    -0.1213590
  H        1.6102530    -1.0961940    -1.7629760
  H       -3.7667330    -1.5380950     0.2123320
  H       -2.7872020    -2.2442710     1.3309830
  H       -2.6822190     2.4830960    -0.6002000
  H        3.2771960     2.1225880     0.6500220
  H        4.7687340     1.5514780     0.1515250
  H        4.8021180    -0.9483820     0.4927870
  H        3.6261930    -1.7023420    -0.4398710
units angstrom
no_reorient  #important for SAPT in psi4, default
symmetry c1  #important for SAPT in psi4, default
}

set PROPERTIES_ORIGIN ["COM"]
properties('MP2/aug-cc-pvtz', properties = ['dipole'])
--------------------------------------------------------------------------

    Molecular point group: c1
  Charge       = 0
  Multiplicity = 1
  Basis Set: AUG-CC-PVTZ
    Blend: AUG-CC-PVTZ
  Basis Set: (AUG-CC-PVTZ AUX)
    Blend: AUG-CC-PVTZ-JKFIT

    Orbital Energies [Eh]
    ---------------------

    Doubly Occupied:

       1A    -20.611220     2A    -20.548505     3A    -15.581679
       4A    -15.572605     5A    -15.540930     6A    -15.517179
       7A    -11.383826     8A    -11.342756     9A    -11.272488
      10A    -11.242470    11A    -11.214515    12A    -11.203827
      13A     -1.456947    14A     -1.353767    15A     -1.296513
      16A     -1.190939    17A     -1.169499    18A     -1.156588
      19A     -1.048476    20A     -0.975872    21A     -0.894533
      22A     -0.823401    23A     -0.784707    24A     -0.765934
      25A     -0.714760    26A     -0.705970    27A     -0.702792
      28A     -0.692860    29A     -0.656927    30A     -0.635949
      31A     -0.621047    32A     -0.618819    33A     -0.611079
      34A     -0.597717    35A     -0.572589    36A     -0.557416
      37A     -0.543495    38A     -0.526354    39A     -0.492950
      40A     -0.478520    41A     -0.472991    42A     -0.469550
      43A     -0.441874    44A     -0.437685    45A     -0.397945
      46A     -0.391590    47A     -0.348135

  @DF-RHF Final Energy:  -603.12721929651241

   => Energetics <=

    Nuclear Repulsion Energy =            725.2502144653367395
    One-Electron Energy =               -2263.4784808226422683
    Two-Electron Energy =                 935.1010470607931211
    Total Energy =                       -603.1272192965124077
  Basis Set: (AUG-CC-PVTZ AUX)
    Blend: AUG-CC-PVTZ-RI
    Molecular point group: c1

    Geometry (in Angstrom), charge = 0, multiplicity = 1:

       Center              X                  Y                   Z               Mass
    ------------   -----------------  -----------------  -----------------  -----------------
         O           -2.185502289491     1.859155608696     0.036618325763    15.994914619570
         O           -3.721987289491     0.460853608696    -0.862063674237    15.994914619570
         N           -2.763390289491    -1.682526391304     0.512902325763    14.003074004430
         N            2.012161710509     0.295006608696    -0.233055674237    14.003074004430
         N            3.932488710509     1.289059608696     0.632995325763    14.003074004430
         N            4.128455710509    -0.860221391304    -0.215095674237    14.003074004430
         C           -0.665072289491    -0.417155391304     0.737392325763    12.000000000000
         C           -0.172404289491    -0.691403391304    -0.677808674237    12.000000000000
         C           -2.194229289491    -0.377315391304     0.840277325763    12.000000000000
         C            1.335590710509    -0.900266391304    -0.720456674237    12.000000000000
         C           -2.789696289491     0.650388608696    -0.098192674237    12.000000000000
         C            3.276932910509     0.226374908696     0.039678125763    12.000000000000
         H           -0.241097289491     0.522913608696     1.100089325763     1.007825032230
         H           -0.314037289491    -1.212407391304     1.409843325763     1.007825032230
         H           -0.685063289491    -1.573376391304    -1.076067674237     1.007825032230
         H           -0.416923289491     0.160852608696    -1.322779674237     1.007825032230
         H           -2.458755289491    -0.024002391304     1.853785325763     1.007825032230
         H            1.582842710509    -1.789317391304    -0.111563674237     1.007825032230
         H            1.644127710509    -1.126271391304    -1.753180674237     1.007825032230
         H           -3.732858289491    -1.568172391304     0.222127325763     1.007825032230
         H           -2.753327289491    -2.274348391304     1.340778325763     1.007825032230
         H           -2.648344289491     2.453018608696    -0.590404674237     1.007825032230
         H            3.311070710509     2.092510608696     0.659817325763     1.007825032230
         H            4.802608710509     1.521400608696     0.161320325763     1.007825032230
         H            4.835992710509    -0.978459391304     0.502582325763     1.007825032230
         H            3.660067710509    -1.732419391304    -0.430075674237     1.007825032230

  Basis Set: AUG-CC-PVTZ
    Blend: AUG-CC-PVTZ
  Basis Set: (AUG-CC-PVTZ AUX)
    Blend: AUG-CC-PVTZ-JKFIT
	 Reference Energy          =    -603.1272192965124077 [Eh]
	 Singles Energy            =      -0.0000000000000000 [Eh]
	 Same-Spin Energy          =      -0.6203002087786584 [Eh]
	 Opposite-Spin Energy      =      -1.9539510451236022 [Eh]
	 Correlation Energy        =      -2.5742512539022604 [Eh]
	 Total Energy              =    -605.7014705504146832 [Eh]

	 ================> DF-SCS-MP2 Energies <==================
	-----------------------------------------------------------
	 SCS Same-Spin Scale       =       0.3333333333333333 [-]
	 SCS Opposite-Spin Scale   =       1.2000000000000000 [-]
	 SCS Same-Spin Energy      =      -0.2067667362595528 [Eh]
	 SCS Opposite-Spin Energy  =      -2.3447412541483224 [Eh]
	 SCS Correlation Energy    =      -2.5515079904078752 [Eh]
	 SCS Total Energy          =    -605.6787272869203207 [Eh]
	-----------------------------------------------------------

  Dipole Moment: [D]
     X:     2.6010      Y:    -0.1860      Z:     1.7419     Total:     3.1359

*** Psi4 exiting successfully. Buy a developer a beer!
