                               Psi4 1.3.2 release

  ==> Input File <==

--------------------------------------------------------------------------
#psi4
#
memory 32 gb

molecule  {
0 1
  O       -2.2266400     1.8867650    -0.0032170
  O       -3.7615920     0.4694410    -0.8736430
  N       -2.7859400    -1.6499310     0.5252010
  N        1.9567560     0.3566856    -0.2556646
  N        3.8978530     1.3104060     0.6447910
  N        4.0160410    -0.8946960    -0.1223760
  C       -0.6937690    -0.3717720     0.7299070
  C       -0.1993830    -0.6671070    -0.6806480
  C       -2.2227870    -0.3377670     0.8339710
  C        1.3098450    -0.8661090    -0.7166530
  C       -2.8261080     0.6730930    -0.1173080
  C        3.2319800     0.2459460     0.0175660
  H       -0.2748670     0.5765650     1.0765220
  H       -0.3365530    -1.1529370     1.4152070
  H       -0.7054620    -1.5600450    -1.0625750
  H       -0.4516800     0.1714660    -1.3406670
  H       -2.4873830     0.0287790     1.8430020
  H        1.5813230    -1.7317920    -0.0895090
  H        1.6134840    -1.1144100    -1.7484380
  H       -3.7640510    -1.5477110     0.2601170
  H       -2.7467370    -2.2384130     1.3547150
  H       -2.6964570     2.4686380    -0.6361950
  H        3.2621090     2.1005400     0.7117460
  H        4.7565350     1.5848730     0.1747350
  H        5.0073770    -0.7866830     0.0488590
  H        3.7976690    -1.4866510    -0.9131750
units angstrom
no_reorient  #important for SAPT in psi4, default
symmetry c1  #important for SAPT in psi4, default
}

set PROPERTIES_ORIGIN ["COM"]
properties('MP2/aug-cc-pvtz', properties = ['dipole'])
--------------------------------------------------------------------------

    Molecular point group: c1
  Charge       = 0
  Multiplicity = 1
  Basis Set: AUG-CC-PVTZ
    Blend: AUG-CC-PVTZ
  Basis Set: (AUG-CC-PVTZ AUX)
    Blend: AUG-CC-PVTZ-JKFIT

    Orbital Energies [Eh]
    ---------------------

    Doubly Occupied:

       1A    -20.609222     2A    -20.546436     3A    -15.586721
       4A    -15.573601     5A    -15.538835     6A    -15.517746
       7A    -11.381715     8A    -11.346327     9A    -11.270070
      10A    -11.236859    11A    -11.211418    12A    -11.200355
      13A     -1.454866    14A     -1.351622    15A     -1.293625
      16A     -1.188739    17A     -1.169496    18A     -1.155062
      19A     -1.044862    20A     -0.972150    21A     -0.890750
      22A     -0.821001    23A     -0.785468    24A     -0.764120
      25A     -0.721229    26A     -0.702656    27A     -0.700253
      28A     -0.689397    29A     -0.655282    30A     -0.637730
      31A     -0.631168    32A     -0.617084    33A     -0.606545
      34A     -0.592179    35A     -0.568553    36A     -0.550195
      37A     -0.539381    38A     -0.520824    39A     -0.490484
      40A     -0.476530    41A     -0.468858    42A     -0.466195
      43A     -0.439657    44A     -0.438866    45A     -0.399875
      46A     -0.390974    47A     -0.343695

  @DF-RHF Final Energy:  -603.12319471971568

   => Energetics <=

    Nuclear Repulsion Energy =            725.5070536237973329
    One-Electron Energy =               -2264.1431531532821282
    Two-Electron Energy =                 935.5129048097692248
    Total Energy =                       -603.1231947197156842
  Basis Set: (AUG-CC-PVTZ AUX)
    Blend: AUG-CC-PVTZ-RI
    Molecular point group: c1

    Geometry (in Angstrom), charge = 0, multiplicity = 1:

       Center              X                  Y                   Z               Mass
    ------------   -----------------  -----------------  -----------------  -----------------
         O           -2.187759191943     1.859253544542     0.002702301448    15.994914619570
         O           -3.722711191943     0.441929544542    -0.867723698552    15.994914619570
         N           -2.747059191943    -1.677442455458     0.531120301448    14.003074004430
         N            1.995636808057     0.329174144542    -0.249745298552    14.003074004430
         N            3.936733808057     1.282894544542     0.650710301448    14.003074004430
         N            4.054921808057    -0.922207455458    -0.116456698552    14.003074004430
         C           -0.654888191943    -0.399283455458     0.735826301448    12.000000000000
         C           -0.160502191943    -0.694618455458    -0.674728698552    12.000000000000
         C           -2.183906191943    -0.365278455458     0.839890301448    12.000000000000
         C            1.348725808057    -0.893620455458    -0.710733698552    12.000000000000
         C           -2.787227191943     0.645581544542    -0.111388698552    12.000000000000
         C            3.270860808057     0.218434544542     0.023485301448    12.000000000000
         H           -0.235986191943     0.549053544542     1.082441301448     1.007825032230
         H           -0.297672191943    -1.180448455458     1.421126301448     1.007825032230
         H           -0.666581191943    -1.587556455458    -1.056655698552     1.007825032230
         H           -0.412799191943     0.143954544542    -1.334747698552     1.007825032230
         H           -2.448502191943     0.001267544542     1.848921301448     1.007825032230
         H            1.620203808057    -1.759303455458    -0.083589698552     1.007825032230
         H            1.652364808057    -1.141921455458    -1.742518698552     1.007825032230
         H           -3.725170191943    -1.575222455458     0.266036301448     1.007825032230
         H           -2.707856191943    -2.265924455458     1.360634301448     1.007825032230
         H           -2.657576191943     2.441126544542    -0.630275698552     1.007825032230
         H            3.300989808057     2.073028544542     0.717665301448     1.007825032230
         H            4.795415808057     1.557361544542     0.180654301448     1.007825032230
         H            5.046257808057    -0.814194455458     0.054778301448     1.007825032230
         H            3.836549808057    -1.514162455458    -0.907255698552     1.007825032230

  Basis Set: AUG-CC-PVTZ
    Blend: AUG-CC-PVTZ
  Basis Set: (AUG-CC-PVTZ AUX)
    Blend: AUG-CC-PVTZ-JKFIT
	 Reference Energy          =    -603.1231947197156842 [Eh]
	 Singles Energy            =      -0.0000000000000000 [Eh]
	 Same-Spin Energy          =      -0.6207792558952143 [Eh]
	 Opposite-Spin Energy      =      -1.9548994289715969 [Eh]
	 Correlation Energy        =      -2.5756786848668112 [Eh]
	 Total Energy              =    -605.6988734045825140 [Eh]

	 ================> DF-SCS-MP2 Energies <==================
	-----------------------------------------------------------
	 SCS Same-Spin Scale       =       0.3333333333333333 [-]
	 SCS Opposite-Spin Scale   =       1.2000000000000000 [-]
	 SCS Same-Spin Energy      =      -0.2069264186317381 [Eh]
	 SCS Opposite-Spin Energy  =      -2.3458793147659160 [Eh]
	 SCS Correlation Energy    =      -2.5528057333976539 [Eh]
	 SCS Total Energy          =    -605.6760004531133745 [Eh]
	-----------------------------------------------------------

  Dipole Moment: [D]
     X:     3.5524      Y:     0.2754      Z:     0.3582     Total:     3.5810

*** Psi4 exiting successfully. Buy a developer a beer!
