                               Psi4 1.3.2 release

  ==> Input File <==

--------------------------------------------------------------------------
#psi4
#
memory 32 gb

molecule  {
0 1
  O       -2.2266400     1.8867650    -0.0032170
  O       -3.7615920     0.4694410    -0.8736430
  N       -2.7859400    -1.6499310     0.5252010
  N        1.9794570     0.3457110    -0.2591130
  N        3.8978530     1.3104060     0.6447910
  N        4.0160410    -0.8946960    -0.1223760
  C       -0.6937690    -0.3717720     0.7299070
  C       -0.1993830    -0.6671070    -0.6806480
  C       -2.2227870    -0.3377670     0.8339710
  C        1.2639233    -0.9492151    -0.7480309
  C       -2.8261080     0.6730930    -0.1173080
  C        3.2319800     0.2459460     0.0175660
  H       -0.2748670     0.5765650     1.0765220
  H       -0.3365530    -1.1529370     1.4152070
  H       -0.7054620    -1.5600450    -1.0625750
  H       -0.4516800     0.1714660    -1.3406670
  H       -2.4873830     0.0287790     1.8430020
  H        1.5813230    -1.7317920    -0.0895090
  H        1.6134840    -1.1144100    -1.7484380
  H       -3.7640510    -1.5477110     0.2601170
  H       -2.7467370    -2.2384130     1.3547150
  H       -2.6964570     2.4686380    -0.6361950
  H        3.2621090     2.1005400     0.7117460
  H        4.7565350     1.5848730     0.1747350
  H        5.0073770    -0.7866830     0.0488590
  H        3.7976690    -1.4866510    -0.9131750
units angstrom
no_reorient  #important for SAPT in psi4, default
symmetry c1  #important for SAPT in psi4, default
}

set PROPERTIES_ORIGIN ["COM"]
properties('MP2/aug-cc-pvtz', properties = ['dipole'])
--------------------------------------------------------------------------

    Molecular point group: c1
  Charge       = 0
  Multiplicity = 1
  Basis Set: AUG-CC-PVTZ
    Blend: AUG-CC-PVTZ
  Basis Set: (AUG-CC-PVTZ AUX)
    Blend: AUG-CC-PVTZ-JKFIT

    Orbital Energies [Eh]
    ---------------------

    Doubly Occupied:

       1A    -20.610573     2A    -20.547874     3A    -15.580133
       4A    -15.568489     5A    -15.540234     6A    -15.513984
       7A    -11.383185     8A    -11.336094     9A    -11.272012
      10A    -11.238612    11A    -11.214263    12A    -11.202902
      13A     -1.456263    14A     -1.353009    15A     -1.288423
      16A     -1.190274    17A     -1.164446    18A     -1.140308
      19A     -1.050222    20A     -0.979361    21A     -0.894600
      22A     -0.819306    23A     -0.784708    24A     -0.766296
      25A     -0.712514    26A     -0.702867    27A     -0.698367
      28A     -0.689366    29A     -0.657442    30A     -0.635652
      31A     -0.631188    32A     -0.618420    33A     -0.603164
      34A     -0.595648    35A     -0.572378    36A     -0.550974
      37A     -0.536652    38A     -0.522124    39A     -0.497532
      40A     -0.479852    41A     -0.472598    42A     -0.465827
      43A     -0.441400    44A     -0.436672    45A     -0.395224
      46A     -0.387395    47A     -0.346545

  @DF-RHF Final Energy:  -603.11781979459363

   => Energetics <=

    Nuclear Repulsion Energy =            724.6821790011285884
    One-Electron Energy =               -2262.5092509829646588
    Two-Electron Energy =                 934.7092521872424413
    Total Energy =                       -603.1178197945936290
  Basis Set: (AUG-CC-PVTZ AUX)
    Blend: AUG-CC-PVTZ-RI
    Molecular point group: c1

    Geometry (in Angstrom), charge = 0, multiplicity = 1:

       Center              X                  Y                   Z               Mass
    ------------   -----------------  -----------------  -----------------  -----------------
         O           -2.186419955984     1.865863964729     0.005142246952    15.994914619570
         O           -3.721371955984     0.448539964729    -0.865283753048    15.994914619570
         N           -2.745719955984    -1.670832035271     0.533560246952    14.003074004430
         N            2.019677044016     0.324809964729    -0.250753753048    14.003074004430
         N            3.938073044016     1.289504964729     0.653150246952    14.003074004430
         N            4.056261044016    -0.915597035271    -0.114016753048    14.003074004430
         C           -0.653548955984    -0.392673035271     0.738266246952    12.000000000000
         C           -0.159162955984    -0.688008035271    -0.672288753048    12.000000000000
         C           -2.182566955984    -0.358668035271     0.842330246952    12.000000000000
         C            1.304143344016    -0.970116135271    -0.739671653048    12.000000000000
         C           -2.785887955984     0.652191964729    -0.108948753048    12.000000000000
         C            3.272200044016     0.225044964729     0.025925246952    12.000000000000
         H           -0.234646955984     0.555663964729     1.084881246952     1.007825032230
         H           -0.296332955984    -1.173838035271     1.423566246952     1.007825032230
         H           -0.665241955984    -1.580946035271    -1.054215753048     1.007825032230
         H           -0.411459955984     0.150564964729    -1.332307753048     1.007825032230
         H           -2.447162955984     0.007877964729     1.851361246952     1.007825032230
         H            1.621543044016    -1.752693035271    -0.081149753048     1.007825032230
         H            1.653704044016    -1.135311035271    -1.740078753048     1.007825032230
         H           -3.723830955984    -1.568612035271     0.268476246952     1.007825032230
         H           -2.706516955984    -2.259314035271     1.363074246952     1.007825032230
         H           -2.656236955984     2.447736964729    -0.627835753048     1.007825032230
         H            3.302329044016     2.079638964729     0.720105246952     1.007825032230
         H            4.796755044016     1.563971964729     0.183094246952     1.007825032230
         H            5.047597044016    -0.807584035271     0.057218246952     1.007825032230
         H            3.837889044016    -1.507552035271    -0.904815753048     1.007825032230

  Basis Set: AUG-CC-PVTZ
    Blend: AUG-CC-PVTZ
  Basis Set: (AUG-CC-PVTZ AUX)
    Blend: AUG-CC-PVTZ-JKFIT
	 Reference Energy          =    -603.1178197945936290 [Eh]
	 Singles Energy            =      -0.0000000000000000 [Eh]
	 Same-Spin Energy          =      -0.6202349423988127 [Eh]
	 Opposite-Spin Energy      =      -1.9548362445861331 [Eh]
	 Correlation Energy        =      -2.5750711869849461 [Eh]
	 Total Energy              =    -605.6928909815785573 [Eh]

	 ================> DF-SCS-MP2 Energies <==================
	-----------------------------------------------------------
	 SCS Same-Spin Scale       =       0.3333333333333333 [-]
	 SCS Opposite-Spin Scale   =       1.2000000000000000 [-]
	 SCS Same-Spin Energy      =      -0.2067449807996042 [Eh]
	 SCS Opposite-Spin Energy  =      -2.3458034935033596 [Eh]
	 SCS Correlation Energy    =      -2.5525484743029638 [Eh]
	 SCS Total Energy          =    -605.6703682688965955 [Eh]
	-----------------------------------------------------------

  Dipole Moment: [D]
     X:     3.1996      Y:     0.1521      Z:     0.2784     Total:     3.2153

*** Psi4 exiting successfully. Buy a developer a beer!
