                               Psi4 1.3.2 release

  ==> Input File <==

--------------------------------------------------------------------------
#psi4
#
memory 32 gb

molecule  {
0 1
  O       -2.2266400     1.8867650    -0.0032170
  O       -3.7615920     0.4694410    -0.8736430
  N       -2.7859400    -1.6499310     0.5252010
  N        1.9794570     0.3457110    -0.2591130
  N        4.0147177     1.2218428     0.6538208
  N        4.0160410    -0.8946960    -0.1223760
  C       -0.6937690    -0.3717720     0.7299070
  C       -0.1993830    -0.6671070    -0.6806480
  C       -2.2227870    -0.3377670     0.8339710
  C        1.3098450    -0.8661090    -0.7166530
  C       -2.8261080     0.6730930    -0.1173080
  C        3.2319800     0.2459460     0.0175660
  H       -0.2748670     0.5765650     1.0765220
  H       -0.3365530    -1.1529370     1.4152070
  H       -0.7054620    -1.5600450    -1.0625750
  H       -0.4516800     0.1714660    -1.3406670
  H       -2.4873830     0.0287790     1.8430020
  H        1.5813230    -1.7317920    -0.0895090
  H        1.6134840    -1.1144100    -1.7484380
  H       -3.7640510    -1.5477110     0.2601170
  H       -2.7467370    -2.2384130     1.3547150
  H       -2.6964570     2.4686380    -0.6361950
  H        3.2621090     2.1005400     0.7117460
  H        4.7565350     1.5848730     0.1747350
  H        5.0073770    -0.7866830     0.0488590
  H        3.7976690    -1.4866510    -0.9131750
units angstrom
no_reorient  #important for SAPT in psi4, default
symmetry c1  #important for SAPT in psi4, default
}

set PROPERTIES_ORIGIN ["COM"]
properties('MP2/aug-cc-pvtz', properties = ['dipole'])
--------------------------------------------------------------------------

    Molecular point group: c1
  Charge       = 0
  Multiplicity = 1
  Basis Set: AUG-CC-PVTZ
    Blend: AUG-CC-PVTZ
  Basis Set: (AUG-CC-PVTZ AUX)
    Blend: AUG-CC-PVTZ-JKFIT

    Orbital Energies [Eh]
    ---------------------

    Doubly Occupied:

       1A    -20.610680     2A    -20.547877     3A    -15.579362
       4A    -15.577660     5A    -15.540341     6A    -15.521812
       7A    -11.383184     8A    -11.343958     9A    -11.271802
      10A    -11.242025    11A    -11.213796    12A    -11.203642
      13A     -1.456325    14A     -1.353056    15A     -1.297010
      16A     -1.190402    17A     -1.165994    18A     -1.157037
      19A     -1.049081    20A     -0.976285    21A     -0.894766
      22A     -0.824405    23A     -0.784812    24A     -0.765117
      25A     -0.717167    26A     -0.704684    27A     -0.701574
      28A     -0.691731    29A     -0.656640    30A     -0.639313
      31A     -0.621511    32A     -0.618239    33A     -0.601387
      34A     -0.581135    35A     -0.568133    36A     -0.546982
      37A     -0.542382    38A     -0.520448    39A     -0.493838
      40A     -0.478450    41A     -0.471807    42A     -0.469841
      43A     -0.441276    44A     -0.439795    45A     -0.400740
      46A     -0.392613    47A     -0.352700

  @DF-RHF Final Energy:  -603.10076989524816

   => Energetics <=

    Nuclear Repulsion Energy =            725.1813500226361384
    One-Electron Energy =               -2263.3586145705039598
    Two-Electron Energy =                 935.0764946526195445
    Total Energy =                       -603.1007698952481633
  Basis Set: (AUG-CC-PVTZ AUX)
    Blend: AUG-CC-PVTZ-RI
    Molecular point group: c1

    Geometry (in Angstrom), charge = 0, multiplicity = 1:

       Center              X                  Y                   Z               Mass
    ------------   -----------------  -----------------  -----------------  -----------------
         O           -2.198983877580     1.867258953564     0.002253412785    15.994914619570
         O           -3.733935877580     0.449934953564    -0.868172587215    15.994914619570
         N           -2.758283877580    -1.669437046436     0.530671412785    14.003074004430
         N            2.007113122420     0.326204953564    -0.253642587215    14.003074004430
         N            4.042373822420     1.202336753564     0.659291212785    14.003074004430
         N            4.043697122420    -0.914202046436    -0.116905587215    14.003074004430
         C           -0.666112877580    -0.391278046436     0.735377412785    12.000000000000
         C           -0.171726877580    -0.686613046436    -0.675177587215    12.000000000000
         C           -2.195130877580    -0.357273046436     0.839441412785    12.000000000000
         C            1.337501122420    -0.885615046436    -0.711182587215    12.000000000000
         C           -2.798451877580     0.653586953564    -0.111837587215    12.000000000000
         C            3.259636122420     0.226439953564     0.023036412785    12.000000000000
         H           -0.247210877580     0.557058953564     1.081992412785     1.007825032230
         H           -0.308896877580    -1.172443046436     1.420677412785     1.007825032230
         H           -0.677805877580    -1.579551046436    -1.057104587215     1.007825032230
         H           -0.424023877580     0.151959953564    -1.335196587215     1.007825032230
         H           -2.459726877580     0.009272953564     1.848472412785     1.007825032230
         H            1.608979122420    -1.751298046436    -0.084038587215     1.007825032230
         H            1.641140122420    -1.133916046436    -1.742967587215     1.007825032230
         H           -3.736394877580    -1.567217046436     0.265587412785     1.007825032230
         H           -2.719080877580    -2.257919046436     1.360185412785     1.007825032230
         H           -2.668800877580     2.449131953564    -0.630724587215     1.007825032230
         H            3.289765122420     2.081033953564     0.717216412785     1.007825032230
         H            4.784191122420     1.565366953564     0.180205412785     1.007825032230
         H            5.035033122420    -0.806189046436     0.054329412785     1.007825032230
         H            3.825325122420    -1.506157046436    -0.907704587215     1.007825032230

  Basis Set: AUG-CC-PVTZ
    Blend: AUG-CC-PVTZ
  Basis Set: (AUG-CC-PVTZ AUX)
    Blend: AUG-CC-PVTZ-JKFIT
	 Reference Energy          =    -603.1007698952481633 [Eh]
	 Singles Energy            =      -0.0000000000000000 [Eh]
	 Same-Spin Energy          =      -0.6213472946141105 [Eh]
	 Opposite-Spin Energy      =      -1.9568196018161568 [Eh]
	 Correlation Energy        =      -2.5781668964302673 [Eh]
	 Total Energy              =    -605.6789367916784386 [Eh]

	 ================> DF-SCS-MP2 Energies <==================
	-----------------------------------------------------------
	 SCS Same-Spin Scale       =       0.3333333333333333 [-]
	 SCS Opposite-Spin Scale   =       1.2000000000000000 [-]
	 SCS Same-Spin Energy      =      -0.2071157648713702 [Eh]
	 SCS Opposite-Spin Energy  =      -2.3481835221793879 [Eh]
	 SCS Correlation Energy    =      -2.5552992870507580 [Eh]
	 SCS Total Energy          =    -605.6560691822988929 [Eh]
	-----------------------------------------------------------

  Dipole Moment: [D]
     X:     3.1133      Y:     0.3464      Z:     0.2348     Total:     3.1413

*** Psi4 exiting successfully. Buy a developer a beer!
