                               Psi4 1.3.2 release

  ==> Input File <==

--------------------------------------------------------------------------
#psi4
#
memory 32 gb

molecule  {
0 1
  O       -2.2266400     1.8867650    -0.0032170
  O       -3.7615920     0.4694410    -0.8736430
  N       -2.7859400    -1.6499310     0.5252010
  N        1.9796234     0.3869563    -0.2413494
  N        3.8978530     1.3104060     0.6447910
  N        4.0160410    -0.8946960    -0.1223760
  C       -0.6937690    -0.3717720     0.7299070
  C       -0.1993830    -0.6671070    -0.6806480
  C       -2.2227870    -0.3377670     0.8339710
  C        1.3098450    -0.8661090    -0.7166530
  C       -2.8261080     0.6730930    -0.1173080
  C        3.2319800     0.2459460     0.0175660
  H       -0.2748670     0.5765650     1.0765220
  H       -0.3365530    -1.1529370     1.4152070
  H       -0.7054620    -1.5600450    -1.0625750
  H       -0.4516800     0.1714660    -1.3406670
  H       -2.4873830     0.0287790     1.8430020
  H        1.5813230    -1.7317920    -0.0895090
  H        1.6134840    -1.1144100    -1.7484380
  H       -3.7640510    -1.5477110     0.2601170
  H       -2.7467370    -2.2384130     1.3547150
  H       -2.6964570     2.4686380    -0.6361950
  H        3.2621090     2.1005400     0.7117460
  H        4.7565350     1.5848730     0.1747350
  H        5.0073770    -0.7866830     0.0488590
  H        3.7976690    -1.4866510    -0.9131750
units angstrom
no_reorient  #important for SAPT in psi4, default
symmetry c1  #important for SAPT in psi4, default
}

set PROPERTIES_ORIGIN ["COM"]
properties('MP2/aug-cc-pvtz', properties = ['dipole'])
--------------------------------------------------------------------------

    Molecular point group: c1
  Charge       = 0
  Multiplicity = 1
  Basis Set: AUG-CC-PVTZ
    Blend: AUG-CC-PVTZ
  Basis Set: (AUG-CC-PVTZ AUX)
    Blend: AUG-CC-PVTZ-JKFIT

    Orbital Energies [Eh]
    ---------------------

    Doubly Occupied:

       1A    -20.609814     2A    -20.547083     3A    -15.585261
       4A    -15.568923     5A    -15.539608     6A    -15.518819
       7A    -11.382369     8A    -11.340888     9A    -11.270865
      10A    -11.241047    11A    -11.212555    12A    -11.202451
      13A     -1.455482    14A     -1.352246    15A     -1.294319
      16A     -1.189482    17A     -1.167991    18A     -1.151067
      19A     -1.047334    20A     -0.974180    21A     -0.891179
      22A     -0.819216    23A     -0.785680    24A     -0.765181
      25A     -0.718372    26A     -0.702628    27A     -0.699767
      28A     -0.689249    29A     -0.655880    30A     -0.636312
      31A     -0.630595    32A     -0.617701    33A     -0.604086
      34A     -0.591669    35A     -0.569139    36A     -0.550785
      37A     -0.538887    38A     -0.520900    39A     -0.490158
      40A     -0.477444    41A     -0.469488    42A     -0.466820
      43A     -0.440321    44A     -0.438581    45A     -0.401696
      46A     -0.391693    47A     -0.348973

  @DF-RHF Final Energy:  -603.12375621171122

   => Energetics <=

    Nuclear Repulsion Energy =            725.2161980611905392
    One-Electron Energy =               -2263.5515385356998195
    Two-Electron Energy =                 935.2115842627981692
    Total Energy =                       -603.1237562117112248
  Basis Set: (AUG-CC-PVTZ AUX)
    Blend: AUG-CC-PVTZ-RI
    Molecular point group: c1

    Geometry (in Angstrom), charge = 0, multiplicity = 1:

       Center              X                  Y                   Z               Mass
    ------------   -----------------  -----------------  -----------------  -----------------
         O           -2.189598321302     1.856818998722     0.001550989773    15.994914619570
         O           -3.724550321302     0.439494998722    -0.868875010227    15.994914619570
         N           -2.748898321302    -1.679877001278     0.529968989773    14.003074004430
         N            2.016665078698     0.357010298722    -0.236581410227    14.003074004430
         N            3.934894678698     1.280459998722     0.649558989773    14.003074004430
         N            4.053082678698    -0.924642001278    -0.117608010227    14.003074004430
         C           -0.656727321302    -0.401718001278     0.734674989773    12.000000000000
         C           -0.162341321302    -0.697053001278    -0.675880010227    12.000000000000
         C           -2.185745321302    -0.367713001278     0.838738989773    12.000000000000
         C            1.346886678698    -0.896055001278    -0.711885010227    12.000000000000
         C           -2.789066321302     0.643146998722    -0.112540010227    12.000000000000
         C            3.269021678698     0.215999998722     0.022333989773    12.000000000000
         H           -0.237825321302     0.546618998722     1.081289989773     1.007825032230
         H           -0.299511321302    -1.182883001278     1.419974989773     1.007825032230
         H           -0.668420321302    -1.589991001278    -1.057807010227     1.007825032230
         H           -0.414638321302     0.141519998722    -1.335899010227     1.007825032230
         H           -2.450341321302    -0.001167001278     1.847769989773     1.007825032230
         H            1.618364678698    -1.761738001278    -0.084741010227     1.007825032230
         H            1.650525678698    -1.144356001278    -1.743670010227     1.007825032230
         H           -3.727009321302    -1.577657001278     0.264884989773     1.007825032230
         H           -2.709695321302    -2.268359001278     1.359482989773     1.007825032230
         H           -2.659415321302     2.438691998722    -0.631427010227     1.007825032230
         H            3.299150678698     2.070593998722     0.716513989773     1.007825032230
         H            4.793576678698     1.554926998722     0.179502989773     1.007825032230
         H            5.044418678698    -0.816629001278     0.053626989773     1.007825032230
         H            3.834710678698    -1.516597001278    -0.908407010227     1.007825032230

  Basis Set: AUG-CC-PVTZ
    Blend: AUG-CC-PVTZ
  Basis Set: (AUG-CC-PVTZ AUX)
    Blend: AUG-CC-PVTZ-JKFIT
	 Reference Energy          =    -603.1237562117112248 [Eh]
	 Singles Energy            =      -0.0000000000000000 [Eh]
	 Same-Spin Energy          =      -0.6202462872922553 [Eh]
	 Opposite-Spin Energy      =      -1.9544234606431374 [Eh]
	 Correlation Energy        =      -2.5746697479353928 [Eh]
	 Total Energy              =    -605.6984259596466700 [Eh]

	 ================> DF-SCS-MP2 Energies <==================
	-----------------------------------------------------------
	 SCS Same-Spin Scale       =       0.3333333333333333 [-]
	 SCS Opposite-Spin Scale   =       1.2000000000000000 [-]
	 SCS Same-Spin Energy      =      -0.2067487624307517 [Eh]
	 SCS Opposite-Spin Energy  =      -2.3453081527717647 [Eh]
	 SCS Correlation Energy    =      -2.5520569152025163 [Eh]
	 SCS Total Energy          =    -605.6758131269137948 [Eh]
	-----------------------------------------------------------

  Dipole Moment: [D]
     X:     3.3914      Y:     0.1693      Z:     0.2945     Total:     3.4083

*** Psi4 exiting successfully. Buy a developer a beer!
