                               Psi4 1.3.2 release

  ==> Input File <==

--------------------------------------------------------------------------
#psi4
#
memory 32 gb

molecule  {
0 1
  O       -2.2266400     1.8867650    -0.0032170
  O       -3.7615920     0.4694410    -0.8736430
  N       -2.7859400    -1.6499310     0.5252010
  N        1.9794570     0.3457110    -0.2591130
  N        3.9178727     1.2964307     0.6467768
  N        4.0160410    -0.8946960    -0.1223760
  C       -0.6937690    -0.3717720     0.7299070
  C       -0.1993830    -0.6671070    -0.6806480
  C       -2.2227870    -0.3377670     0.8339710
  C        1.3098450    -0.8661090    -0.7166530
  C       -2.8261080     0.6730930    -0.1173080
  C        3.2319800     0.2459460     0.0175660
  H       -0.2748670     0.5765650     1.0765220
  H       -0.3365530    -1.1529370     1.4152070
  H       -0.7054620    -1.5600450    -1.0625750
  H       -0.4516800     0.1714660    -1.3406670
  H       -2.4873830     0.0287790     1.8430020
  H        1.5813230    -1.7317920    -0.0895090
  H        1.6134840    -1.1144100    -1.7484380
  H       -3.7640510    -1.5477110     0.2601170
  H       -2.7467370    -2.2384130     1.3547150
  H       -2.6964570     2.4686380    -0.6361950
  H        3.2621090     2.1005400     0.7117460
  H        4.7565350     1.5848730     0.1747350
  H        5.0073770    -0.7866830     0.0488590
  H        3.7976690    -1.4866510    -0.9131750
units angstrom
no_reorient  #important for SAPT in psi4, default
symmetry c1  #important for SAPT in psi4, default
}

set PROPERTIES_ORIGIN ["COM"]
properties('MP2/aug-cc-pvtz', properties = ['dipole'])
--------------------------------------------------------------------------

    Molecular point group: c1
  Charge       = 0
  Multiplicity = 1
  Basis Set: AUG-CC-PVTZ
    Blend: AUG-CC-PVTZ
  Basis Set: (AUG-CC-PVTZ AUX)
    Blend: AUG-CC-PVTZ-JKFIT

    Orbital Energies [Eh]
    ---------------------

    Doubly Occupied:

       1A    -20.609959     2A    -20.547163     3A    -15.582454
       4A    -15.572864     5A    -15.539611     6A    -15.516359
       7A    -11.382457     8A    -11.341839     9A    -11.270954
      10A    -11.239051    11A    -11.212652    12A    -11.202019
      13A     -1.455603    14A     -1.352346    15A     -1.295343
      16A     -1.189563    17A     -1.165878    18A     -1.158796
      19A     -1.047274    20A     -0.974521    21A     -0.892888
      22A     -0.821675    23A     -0.783808    24A     -0.764783
      25A     -0.718235    26A     -0.703653    27A     -0.701106
      28A     -0.690453    29A     -0.655907    30A     -0.636597
      31A     -0.629610    32A     -0.617815    33A     -0.606435
      34A     -0.592839    35A     -0.569327    36A     -0.550540
      37A     -0.541585    38A     -0.521724    39A     -0.491913
      40A     -0.477371    41A     -0.470212    42A     -0.468059
      43A     -0.440420    44A     -0.438430    45A     -0.398384
      46A     -0.391305    47A     -0.347863

  @DF-RHF Final Energy:  -603.12480292063196

   => Energetics <=

    Nuclear Repulsion Energy =            725.6354774497555127
    One-Electron Energy =               -2264.3612767922386411
    Two-Electron Energy =                 935.6009964218512778
    Total Energy =                       -603.1248029206319643
  Basis Set: (AUG-CC-PVTZ AUX)
    Blend: AUG-CC-PVTZ-RI
    Molecular point group: c1

    Geometry (in Angstrom), charge = 0, multiplicity = 1:

       Center              X                  Y                   Z               Mass
    ------------   -----------------  -----------------  -----------------  -----------------
         O           -2.191195039201     1.861260160667     0.002819932250    15.994914619570
         O           -3.726147039201     0.443936160667    -0.867606067750    15.994914619570
         N           -2.750495039201    -1.675435839333     0.531237932250    14.003074004430
         N            2.014901960799     0.320206160667    -0.253076067750    14.003074004430
         N            3.953317660799     1.270925860667     0.652813732250    14.003074004430
         N            4.051485960799    -0.920200839333    -0.116339067750    14.003074004430
         C           -0.658324039201    -0.397276839333     0.735943932250    12.000000000000
         C           -0.163938039201    -0.692611839333    -0.674611067750    12.000000000000
         C           -2.187342039201    -0.363271839333     0.840007932250    12.000000000000
         C            1.345289960799    -0.891613839333    -0.710616067750    12.000000000000
         C           -2.790663039201     0.647588160667    -0.111271067750    12.000000000000
         C            3.267424960799     0.220441160667     0.023602932250    12.000000000000
         H           -0.239422039201     0.551060160667     1.082558932250     1.007825032230
         H           -0.301108039201    -1.178441839333     1.421243932250     1.007825032230
         H           -0.670017039201    -1.585549839333    -1.056538067750     1.007825032230
         H           -0.416235039201     0.145961160667    -1.334630067750     1.007825032230
         H           -2.451938039201     0.003274160667     1.849038932250     1.007825032230
         H            1.616767960799    -1.757296839333    -0.083472067750     1.007825032230
         H            1.648928960799    -1.139914839333    -1.742401067750     1.007825032230
         H           -3.728606039201    -1.573215839333     0.266153932250     1.007825032230
         H           -2.711292039201    -2.263917839333     1.360751932250     1.007825032230
         H           -2.661012039201     2.443133160667    -0.630158067750     1.007825032230
         H            3.297553960799     2.075035160667     0.717782932250     1.007825032230
         H            4.791979960799     1.559368160667     0.180771932250     1.007825032230
         H            5.042821960799    -0.812187839333     0.054895932250     1.007825032230
         H            3.833113960799    -1.512155839333    -0.907138067750     1.007825032230

  Basis Set: AUG-CC-PVTZ
    Blend: AUG-CC-PVTZ
  Basis Set: (AUG-CC-PVTZ AUX)
    Blend: AUG-CC-PVTZ-JKFIT
	 Reference Energy          =    -603.1248029206319643 [Eh]
	 Singles Energy            =      -0.0000000000000000 [Eh]
	 Same-Spin Energy          =      -0.6203980600875882 [Eh]
	 Opposite-Spin Energy      =      -1.9541253967059746 [Eh]
	 Correlation Energy        =      -2.5745234567935631 [Eh]
	 Total Energy              =    -605.6993263774255638 [Eh]

	 ================> DF-SCS-MP2 Energies <==================
	-----------------------------------------------------------
	 SCS Same-Spin Scale       =       0.3333333333333333 [-]
	 SCS Opposite-Spin Scale   =       1.2000000000000000 [-]
	 SCS Same-Spin Energy      =      -0.2067993533625294 [Eh]
	 SCS Opposite-Spin Energy  =      -2.3449504760471696 [Eh]
	 SCS Correlation Energy    =      -2.5517498294096992 [Eh]
	 SCS Total Energy          =    -605.6765527500416511 [Eh]
	-----------------------------------------------------------

  Dipole Moment: [D]
     X:     3.3668      Y:     0.3023      Z:     0.3260     Total:     3.3961

*** Psi4 exiting successfully. Buy a developer a beer!
