                               Psi4 1.3.2 release

  ==> Input File <==

--------------------------------------------------------------------------
#psi4
#
memory 32 gb

molecule  {
0 1
  O       -2.2266400     1.8867650    -0.0032170
  O       -3.7615920     0.4694410    -0.8736430
  N       -2.7859400    -1.6499310     0.5252010
  N        1.9799461     0.3250396    -0.2678697
  N        3.8978530     1.3104060     0.6447910
  N        4.0160410    -0.8946960    -0.1223760
  C       -0.6937690    -0.3717720     0.7299070
  C       -0.1993830    -0.6671070    -0.6806480
  C       -2.2227870    -0.3377670     0.8339710
  C        1.3098450    -0.8661090    -0.7166530
  C       -2.8261080     0.6730930    -0.1173080
  C        3.2319800     0.2459460     0.0175660
  H       -0.2748670     0.5765650     1.0765220
  H       -0.3365530    -1.1529370     1.4152070
  H       -0.7054620    -1.5600450    -1.0625750
  H       -0.4516800     0.1714660    -1.3406670
  H       -2.4873830     0.0287790     1.8430020
  H        1.5813230    -1.7317920    -0.0895090
  H        1.6134840    -1.1144100    -1.7484380
  H       -3.7640510    -1.5477110     0.2601170
  H       -2.7467370    -2.2384130     1.3547150
  H       -2.6964570     2.4686380    -0.6361950
  H        3.2621090     2.1005400     0.7117460
  H        4.7565350     1.5848730     0.1747350
  H        5.0073770    -0.7866830     0.0488590
  H        3.7976690    -1.4866510    -0.9131750
units angstrom
no_reorient  #important for SAPT in psi4, default
symmetry c1  #important for SAPT in psi4, default
}

set PROPERTIES_ORIGIN ["COM"]
properties('MP2/aug-cc-pvtz', properties = ['dipole'])
--------------------------------------------------------------------------

    Molecular point group: c1
  Charge       = 0
  Multiplicity = 1
  Basis Set: AUG-CC-PVTZ
    Blend: AUG-CC-PVTZ
  Basis Set: (AUG-CC-PVTZ AUX)
    Blend: AUG-CC-PVTZ-JKFIT

    Orbital Energies [Eh]
    ---------------------

    Doubly Occupied:

       1A    -20.609831     2A    -20.547004     3A    -15.582628
       4A    -15.573038     5A    -15.539409     6A    -15.513615
       7A    -11.382299     8A    -11.342082     9A    -11.270764
      10A    -11.237173    11A    -11.212388    12A    -11.201332
      13A     -1.455462    14A     -1.352197    15A     -1.295843
      16A     -1.189386    17A     -1.168067    18A     -1.160784
      19A     -1.046747    20A     -0.974250    21A     -0.893438
      22A     -0.822825    23A     -0.783921    24A     -0.764788
      25A     -0.719665    26A     -0.702946    27A     -0.700794
      28A     -0.689953    29A     -0.655740    30A     -0.639126
      31A     -0.632471    32A     -0.617699    33A     -0.608851
      34A     -0.594183    35A     -0.569398    36A     -0.550879
      37A     -0.542322    38A     -0.521930    39A     -0.492316
      40A     -0.477088    41A     -0.470183    42A     -0.468106
      43A     -0.440246    44A     -0.438358    45A     -0.396020
      46A     -0.390155    47A     -0.345728

  @DF-RHF Final Energy:  -603.12617713763802

   => Energetics <=

    Nuclear Repulsion Energy =            726.0135666051863836
    One-Electron Energy =               -2265.1126308997072556
    Two-Electron Energy =                 935.9728871568827344
    Total Energy =                       -603.1261771376380239
  Basis Set: (AUG-CC-PVTZ AUX)
    Blend: AUG-CC-PVTZ-RI
    Molecular point group: c1

    Geometry (in Angstrom), charge = 0, multiplicity = 1:

       Center              X                  Y                   Z               Mass
    ------------   -----------------  -----------------  -----------------  -----------------
         O           -2.189624274713     1.861798699990     0.003683906604    15.994914619570
         O           -3.724576274713     0.444474699990    -0.866742093396    15.994914619570
         N           -2.748924274713    -1.674897300010     0.532101906604    14.003074004430
         N            2.016961825287     0.300073299990    -0.260968793396    14.003074004430
         N            3.934868725287     1.285439699990     0.651691906604    14.003074004430
         N            4.053056725287    -0.919662300010    -0.115475093396    14.003074004430
         C           -0.656753274713    -0.396738300010     0.736807906604    12.000000000000
         C           -0.162367274713    -0.692073300010    -0.673747093396    12.000000000000
         C           -2.185771274713    -0.362733300010     0.840871906604    12.000000000000
         C            1.346860725287    -0.891075300010    -0.709752093396    12.000000000000
         C           -2.789092274713     0.648126699990    -0.110407093396    12.000000000000
         C            3.268995725287     0.220979699990     0.024466906604    12.000000000000
         H           -0.237851274713     0.551598699990     1.083422906604     1.007825032230
         H           -0.299537274713    -1.177903300010     1.422107906604     1.007825032230
         H           -0.668446274713    -1.585011300010    -1.055674093396     1.007825032230
         H           -0.414664274713     0.146499699990    -1.333766093396     1.007825032230
         H           -2.450367274713     0.003812699990     1.849902906604     1.007825032230
         H            1.618338725287    -1.756758300010    -0.082608093396     1.007825032230
         H            1.650499725287    -1.139376300010    -1.741537093396     1.007825032230
         H           -3.727035274713    -1.572677300010     0.267017906604     1.007825032230
         H           -2.709721274713    -2.263379300010     1.361615906604     1.007825032230
         H           -2.659441274713     2.443671699990    -0.629294093396     1.007825032230
         H            3.299124725287     2.075573699990     0.718646906604     1.007825032230
         H            4.793550725287     1.559906699990     0.181635906604     1.007825032230
         H            5.044392725287    -0.811649300010     0.055759906604     1.007825032230
         H            3.834684725287    -1.511617300010    -0.906274093396     1.007825032230

  Basis Set: AUG-CC-PVTZ
    Blend: AUG-CC-PVTZ
  Basis Set: (AUG-CC-PVTZ AUX)
    Blend: AUG-CC-PVTZ-JKFIT
	 Reference Energy          =    -603.1261771376380239 [Eh]
	 Singles Energy            =      -0.0000000000000000 [Eh]
	 Same-Spin Energy          =      -0.6203423178714624 [Eh]
	 Opposite-Spin Energy      =      -1.9535839644342505 [Eh]
	 Correlation Energy        =      -2.5739262823057132 [Eh]
	 Total Energy              =    -605.7001034199437299 [Eh]

	 ================> DF-SCS-MP2 Energies <==================
	-----------------------------------------------------------
	 SCS Same-Spin Scale       =       0.3333333333333333 [-]
	 SCS Opposite-Spin Scale   =       1.2000000000000000 [-]
	 SCS Same-Spin Energy      =      -0.2067807726238208 [Eh]
	 SCS Opposite-Spin Energy  =      -2.3443007573211005 [Eh]
	 SCS Correlation Energy    =      -2.5510815299449212 [Eh]
	 SCS Total Energy          =    -605.6772586675829189 [Eh]
	-----------------------------------------------------------

  Dipole Moment: [D]
     X:     3.4275      Y:     0.3505      Z:     0.3679     Total:     3.4650

*** Psi4 exiting successfully. Buy a developer a beer!
