                               Psi4 1.4a3.dev225

  ==> Input File <==

--------------------------------------------------------------------------
#psi4
#
memory 32 gb

molecule  {
0 1
  O       -2.2193770     1.8892330     0.0268230
  O       -3.7558620     0.4909310    -0.8718590
  N       -2.7972650    -1.6524490     0.5031070
  N        1.9782870     0.3250840    -0.2428510
  N        3.8986140     1.3191370     0.6232000
  N        4.0945810    -0.8301440    -0.2248910
  C       -0.6989470    -0.3870780     0.7275970
  C       -0.2062790    -0.6613260    -0.6876040
  C       -2.2281040    -0.3472380     0.8304820
  C        1.3017160    -0.8701890    -0.7302520
  C       -2.8235710     0.6804660    -0.1079880
  C        3.2335740     0.2410780     0.0212990
  H       -0.2749720     0.5529910     1.0902940
  H       -0.3479120    -1.1823300     1.4000480
  H       -0.7189380    -1.5432990    -1.0858630
  H       -0.4507980     0.1909300    -1.3325750
  H       -2.4926300     0.0060750     1.8439900
  H        1.5489680    -1.7592400    -0.1213590
  H        1.6102530    -1.0961940    -1.7629760
  H       -3.7667330    -1.5380950     0.2123320
  H       -2.7872020    -2.2442710     1.3309830
  H       -2.6822190     2.4830960    -0.6002000
  H        3.2894277     2.1067732     0.6494940
  H        4.7687340     1.5514780     0.1515250
  H        4.8021180    -0.9483820     0.4927870
  H        3.6261930    -1.7023420    -0.4398710
units angstrom
no_reorient  #important for SAPT in psi4, default
symmetry c1  #important for SAPT in psi4, default
}

set PROPERTIES_ORIGIN ["COM"]
properties('MP2/aug-cc-pvtz', properties = ['dipole'])
--------------------------------------------------------------------------

    Molecular point group: c1
  Charge       = 0
  Multiplicity = 1
  Basis Set: AUG-CC-PVTZ
    Blend: AUG-CC-PVTZ
  Basis Set: (AUG-CC-PVTZ AUX)
    Blend: AUG-CC-PVTZ-JKFIT

    Orbital Energies [Eh]
    ---------------------

    Doubly Occupied:

       1A    -20.611533     2A    -20.548840     3A    -15.582549
       4A    -15.567719     5A    -15.541309     6A    -15.518443
       7A    -11.384169     8A    -11.341692     9A    -11.272931
      10A    -11.243438    11A    -11.215154    12A    -11.204544
      13A     -1.457270    14A     -1.354091    15A     -1.296292
      16A     -1.191355    17A     -1.168033    18A     -1.160605
      19A     -1.049708    20A     -0.976974    21A     -0.895386
      22A     -0.823726    23A     -0.785200    24A     -0.766591
      25A     -0.716618    26A     -0.704692    27A     -0.702664
      28A     -0.692449    29A     -0.657579    30A     -0.637435
      31A     -0.622394    32A     -0.619046    33A     -0.609943
      34A     -0.598483    35A     -0.573004    36A     -0.557538
      37A     -0.543633    38A     -0.526349    39A     -0.493557
      40A     -0.478969    41A     -0.473491    42A     -0.470027
      43A     -0.442247    44A     -0.436740    45A     -0.400246
      46A     -0.392850    47A     -0.351289

  @DF-RHF Final Energy:  -603.12850484167450

   => Energetics <=

    Nuclear Repulsion Energy =            725.4698944841265984
    One-Electron Energy =               -2263.8792094338259631
    Two-Electron Energy =                 935.2808101080248662
    Total Energy =                       -603.1285048416744985
  Basis Set: (AUG-CC-PVTZ AUX)
    Blend: AUG-CC-PVTZ-RI
    Molecular point group: c1

    Geometry (in Angstrom), charge = 0, multiplicity = 1:

       Center              X                  Y                   Z               Mass
    ------------   -----------------  -----------------  -----------------  -----------------
         O           -2.184919428025     1.860306767287     0.037212988535    15.994914619570
         O           -3.721404428025     0.462004767287    -0.861469011465    15.994914619570
         N           -2.762807428025    -1.681375232713     0.513496988535    14.003074004430
         N            2.012744571975     0.296157767287    -0.232461011465    14.003074004430
         N            3.933071571975     1.290210767287     0.633589988535    14.003074004430
         N            4.129038571975    -0.859070232713    -0.214501011465    14.003074004430
         C           -0.664489428025    -0.416004232713     0.737986988535    12.000000000000
         C           -0.171821428025    -0.690252232713    -0.677214011465    12.000000000000
         C           -2.193646428025    -0.376164232713     0.840871988535    12.000000000000
         C            1.336173571975    -0.899115232713    -0.719862011465    12.000000000000
         C           -2.789113428025     0.651539767287    -0.097598011465    12.000000000000
         C            3.268031571975     0.212151767287     0.031688988535    12.000000000000
         H           -0.240514428025     0.524064767287     1.100683988535     1.007825032230
         H           -0.313454428025    -1.211256232713     1.410437988535     1.007825032230
         H           -0.684480428025    -1.572225232713    -1.075473011465     1.007825032230
         H           -0.416340428025     0.162003767287    -1.322185011465     1.007825032230
         H           -2.458172428025    -0.022851232713     1.854379988535     1.007825032230
         H            1.583425571975    -1.788166232713    -0.110969011465     1.007825032230
         H            1.644710571975    -1.125120232713    -1.752586011465     1.007825032230
         H           -3.732275428025    -1.567021232713     0.222721988535     1.007825032230
         H           -2.752744428025    -2.273197232713     1.341372988535     1.007825032230
         H           -2.647761428025     2.454169767287    -0.589810011465     1.007825032230
         H            3.323885271975     2.077846967287     0.659883988535     1.007825032230
         H            4.803191571975     1.522551767287     0.161914988535     1.007825032230
         H            4.836575571975    -0.977308232713     0.503176988535     1.007825032230
         H            3.660650571975    -1.731268232713    -0.429481011465     1.007825032230

  Basis Set: AUG-CC-PVTZ
    Blend: AUG-CC-PVTZ
  Basis Set: (AUG-CC-PVTZ AUX)
    Blend: AUG-CC-PVTZ-JKFIT
	 Reference Energy          =    -603.1285048416744985 [Eh]
	 Singles Energy            =      -0.0000000000000000 [Eh]
	 Same-Spin Energy          =      -0.6199982634091219 [Eh]
	 Opposite-Spin Energy      =      -1.9534472867315089 [Eh]
	 Correlation Energy        =      -2.5734455501406308 [Eh]
	 Total Energy              =    -605.7019503918151031 [Eh]

	 ================> DF-SCS-MP2 Energies <==================
	-----------------------------------------------------------
	 SCS Same-Spin Scale       =       0.3333333333333333 [-]
	 SCS Opposite-Spin Scale   =       1.2000000000000000 [-]
	 SCS Same-Spin Energy      =      -0.2066660878030406 [Eh]
	 SCS Opposite-Spin Energy  =      -2.3441367440778107 [Eh]
	 SCS Correlation Energy    =      -2.5508028318808513 [Eh]
	 SCS Total Energy          =    -605.6793076735553996 [Eh]
	-----------------------------------------------------------

  Dipole Moment: [D]
     X:     2.5235      Y:    -0.3063      Z:     1.6835     Total:     3.0489

*** Psi4 exiting successfully. Buy a developer a beer!
