                               Psi4 1.3.2 release

  ==> Input File <==

--------------------------------------------------------------------------
#psi4
#
memory 32 gb

molecule  {
0 1
  O       -2.2266400     1.8867650    -0.0032170
  O       -3.7615920     0.4694410    -0.8736430
  N       -2.7859400    -1.6499310     0.5252010
  N        1.9794570     0.3457110    -0.2591130
  N        3.8978530     1.3104060     0.6447910
  N        4.0160410    -0.8946960    -0.1223760
  C       -0.6937690    -0.3717720     0.7299070
  C       -0.1993830    -0.6671070    -0.6806480
  C       -2.2227870    -0.3377670     0.8339710
  C        1.4016884    -0.6998968    -0.6538972
  C       -2.8261080     0.6730930    -0.1173080
  C        3.2319800     0.2459460     0.0175660
  H       -0.2748670     0.5765650     1.0765220
  H       -0.3365530    -1.1529370     1.4152070
  H       -0.7054620    -1.5600450    -1.0625750
  H       -0.4516800     0.1714660    -1.3406670
  H       -2.4873830     0.0287790     1.8430020
  H        1.5813230    -1.7317920    -0.0895090
  H        1.6134840    -1.1144100    -1.7484380
  H       -3.7640510    -1.5477110     0.2601170
  H       -2.7467370    -2.2384130     1.3547150
  H       -2.6964570     2.4686380    -0.6361950
  H        3.2621090     2.1005400     0.7117460
  H        4.7565350     1.5848730     0.1747350
  H        5.0073770    -0.7866830     0.0488590
  H        3.7976690    -1.4866510    -0.9131750
units angstrom
no_reorient  #important for SAPT in psi4, default
symmetry c1  #important for SAPT in psi4, default
}

set PROPERTIES_ORIGIN ["COM"]
properties('MP2/aug-cc-pvtz', properties = ['dipole'])
--------------------------------------------------------------------------

    Molecular point group: c1
  Charge       = 0
  Multiplicity = 1
  Basis Set: AUG-CC-PVTZ
    Blend: AUG-CC-PVTZ
  Basis Set: (AUG-CC-PVTZ AUX)
    Blend: AUG-CC-PVTZ-JKFIT

    Orbital Energies [Eh]
    ---------------------

    Doubly Occupied:

       1A    -20.608228     2A    -20.545116     3A    -15.592947
       4A    -15.580168     5A    -15.537681     6A    -15.515340
       7A    -11.380388     8A    -11.356419     9A    -11.268096
      10A    -11.245650    11A    -11.208815    12A    -11.199719
      13A     -1.453733    14A     -1.350439    15A     -1.320737
      16A     -1.209105    17A     -1.186753    18A     -1.176052
      19A     -1.040198    20A     -0.964126    21A     -0.895088
      22A     -0.831263    23A     -0.782599    24A     -0.765229
      25A     -0.735769    26A     -0.706987    27A     -0.700027
      28A     -0.688487    29A     -0.653709    30A     -0.651960
      31A     -0.636380    32A     -0.616773    33A     -0.613860
      34A     -0.596273    35A     -0.565382    36A     -0.554391
      37A     -0.549458    38A     -0.513409    39A     -0.492991
      40A     -0.474720    41A     -0.472690    42A     -0.465323
      43A     -0.442688    44A     -0.438306    45A     -0.393584
      46A     -0.375306    47A     -0.334883

  @DF-RHF Final Energy:  -603.07852765975406

   => Energetics <=

    Nuclear Repulsion Energy =            728.1662080324215367
    One-Electron Energy =               -2269.1149844961560120
    Two-Electron Energy =                 937.8702488039804166
    Total Energy =                       -603.0785276597540587
  Basis Set: (AUG-CC-PVTZ AUX)
    Blend: AUG-CC-PVTZ-RI
    Molecular point group: c1

    Geometry (in Angstrom), charge = 0, multiplicity = 1:

       Center              X                  Y                   Z               Mass
    ------------   -----------------  -----------------  -----------------  -----------------
         O           -2.195914903369     1.848680627725    -0.001345568385    15.994914619570
         O           -3.730866903369     0.431356627725    -0.871771568385    15.994914619570
         N           -2.755214903369    -1.688015372275     0.527072431615    14.003074004430
         N            2.010182096631     0.307626627725    -0.257241568385    14.003074004430
         N            3.928578096631     1.272321627725     0.646662431615    14.003074004430
         N            4.046766096631    -0.932780372275    -0.120504568385    14.003074004430
         C           -0.663043903369    -0.409856372275     0.731778431615    12.000000000000
         C           -0.168657903369    -0.705191372275    -0.678776568385    12.000000000000
         C           -2.192061903369    -0.375851372275     0.835842431615    12.000000000000
         C            1.432413496631    -0.737981172275    -0.652025768385    12.000000000000
         C           -2.795382903369     0.635008627725    -0.115436568385    12.000000000000
         C            3.262705096631     0.207861627725     0.019437431615    12.000000000000
         H           -0.244141903369     0.538480627725     1.078393431615     1.007825032230
         H           -0.305827903369    -1.191021372275     1.417078431615     1.007825032230
         H           -0.674736903369    -1.598129372275    -1.060703568385     1.007825032230
         H           -0.420954903369     0.133381627725    -1.338795568385     1.007825032230
         H           -2.456657903369    -0.009305372275     1.844873431615     1.007825032230
         H            1.612048096631    -1.769876372275    -0.087637568385     1.007825032230
         H            1.644209096631    -1.152494372275    -1.746566568385     1.007825032230
         H           -3.733325903369    -1.585795372275     0.261988431615     1.007825032230
         H           -2.716011903369    -2.276497372275     1.356586431615     1.007825032230
         H           -2.665731903369     2.430553627725    -0.634323568385     1.007825032230
         H            3.292834096631     2.062455627725     0.713617431615     1.007825032230
         H            4.787260096631     1.546788627725     0.176606431615     1.007825032230
         H            5.038102096631    -0.824767372275     0.050730431615     1.007825032230
         H            3.828394096631    -1.524735372275    -0.911303568385     1.007825032230

  Basis Set: AUG-CC-PVTZ
    Blend: AUG-CC-PVTZ
  Basis Set: (AUG-CC-PVTZ AUX)
    Blend: AUG-CC-PVTZ-JKFIT
	 Reference Energy          =    -603.0785276597540587 [Eh]
	 Singles Energy            =      -0.0000000000000000 [Eh]
	 Same-Spin Energy          =      -0.6232658756815892 [Eh]
	 Opposite-Spin Energy      =      -1.9559041423803984 [Eh]
	 Correlation Energy        =      -2.5791700180619879 [Eh]
	 Total Energy              =    -605.6576976778160315 [Eh]

	 ================> DF-SCS-MP2 Energies <==================
	-----------------------------------------------------------
	 SCS Same-Spin Scale       =       0.3333333333333333 [-]
	 SCS Opposite-Spin Scale   =       1.2000000000000000 [-]
	 SCS Same-Spin Energy      =      -0.2077552918938630 [Eh]
	 SCS Opposite-Spin Energy  =      -2.3470849708564780 [Eh]
	 SCS Correlation Energy    =      -2.5548402627503410 [Eh]
	 SCS Total Energy          =    -605.6333679225043625 [Eh]
	-----------------------------------------------------------

  Dipole Moment: [D]
     X:     3.9900      Y:     0.7311      Z:     0.5638     Total:     4.0955

*** Psi4 exiting successfully. Buy a developer a beer!
