                               Psi4 1.4a3.dev225

  ==> Input File <==

--------------------------------------------------------------------------
#psi4
#
memory 32 gb

molecule  {
0 1
  O       -2.2193770     1.8892330     0.0268230
  O       -3.7558620     0.4909310    -0.8718590
  N       -2.7972650    -1.6524490     0.5031070
  N        1.9782870     0.3250840    -0.2428510
  N        3.8986140     1.3191370     0.6232000
  N        4.0945810    -0.8301440    -0.2248910
  C       -0.6989470    -0.3870780     0.7275970
  C       -0.2062790    -0.6613260    -0.6876040
  C       -2.2281040    -0.3472380     0.8304820
  C        1.3017160    -0.8701890    -0.7302520
  C       -2.8235710     0.6804660    -0.1079880
  C        3.2240898     0.2257037     0.0127152
  H       -0.2749720     0.5529910     1.0902940
  H       -0.3479120    -1.1823300     1.4000480
  H       -0.7189380    -1.5432990    -1.0858630
  H       -0.4507980     0.1909300    -1.3325750
  H       -2.4926300     0.0060750     1.8439900
  H        1.5489680    -1.7592400    -0.1213590
  H        1.6102530    -1.0961940    -1.7629760
  H       -3.7667330    -1.5380950     0.2123320
  H       -2.7872020    -2.2442710     1.3309830
  H       -2.6822190     2.4830960    -0.6002000
  H        3.2771960     2.1225880     0.6500220
  H        4.7687340     1.5514780     0.1515250
  H        4.8021180    -0.9483820     0.4927870
  H        3.6261930    -1.7023420    -0.4398710
units angstrom
no_reorient  #important for SAPT in psi4, default
symmetry c1  #important for SAPT in psi4, default
}

set PROPERTIES_ORIGIN ["COM"]
properties('MP2/aug-cc-pvtz', properties = ['dipole'])
--------------------------------------------------------------------------

    Molecular point group: c1
  Charge       = 0
  Multiplicity = 1
  Basis Set: AUG-CC-PVTZ
    Blend: AUG-CC-PVTZ
  Basis Set: (AUG-CC-PVTZ AUX)
    Blend: AUG-CC-PVTZ-JKFIT

    Orbital Energies [Eh]
    ---------------------

    Doubly Occupied:

       1A    -20.611870     2A    -20.549179     3A    -15.583481
       4A    -15.566546     5A    -15.541674     6A    -15.519423
       7A    -11.384518     8A    -11.340587     9A    -11.273361
      10A    -11.244244    11A    -11.215763    12A    -11.205196
      13A     -1.457610    14A     -1.354427    15A     -1.295420
      16A     -1.191755    17A     -1.166736    18A     -1.159045
      19A     -1.050740    20A     -0.977853    21A     -0.895956
      22A     -0.823196    23A     -0.783759    24A     -0.766538
      25A     -0.717522    26A     -0.704456    27A     -0.701390
      28A     -0.691127    29A     -0.658191    30A     -0.637270
      31A     -0.621335    32A     -0.618960    33A     -0.605823
      34A     -0.598770    35A     -0.573332    36A     -0.557637
      37A     -0.543559    38A     -0.526248    39A     -0.494064
      40A     -0.479397    41A     -0.473916    42A     -0.470426
      43A     -0.442634    44A     -0.435005    45A     -0.402553
      46A     -0.393665    47A     -0.354073

  @DF-RHF Final Energy:  -603.12797151205802

   => Energetics <=

    Nuclear Repulsion Energy =            725.4992899936321464
    One-Electron Energy =               -2263.9340655602163679
    Two-Electron Energy =                 935.3068040545261965
    Total Energy =                       -603.1279715120580249
  Basis Set: (AUG-CC-PVTZ AUX)
    Blend: AUG-CC-PVTZ-RI
    Molecular point group: c1

    Geometry (in Angstrom), charge = 0, multiplicity = 1:

       Center              X                  Y                   Z               Mass
    ------------   -----------------  -----------------  -----------------  -----------------
         O           -2.184194963035     1.861274841645     0.037801538774    15.994914619570
         O           -3.720679963035     0.462972841645    -0.860880461226    15.994914619570
         N           -2.762082963035    -1.680407158355     0.514085538774    14.003074004430
         N            2.013469036965     0.297125841645    -0.231872461226    14.003074004430
         N            3.933796036965     1.291178841645     0.634178538774    14.003074004430
         N            4.129763036965    -0.858102158355    -0.213912461226    14.003074004430
         C           -0.663764963035    -0.415036158355     0.738575538774    12.000000000000
         C           -0.171096963035    -0.689284158355    -0.676625461226    12.000000000000
         C           -2.192921963035    -0.375196158355     0.841460538774    12.000000000000
         C            1.336898036965    -0.898147158355    -0.719273461226    12.000000000000
         C           -2.788388963035     0.652507841645    -0.097009461226    12.000000000000
         C            3.259271836965     0.197745541645     0.023693738774    12.000000000000
         H           -0.239789963035     0.525032841645     1.101272538774     1.007825032230
         H           -0.312729963035    -1.210288158355     1.411026538774     1.007825032230
         H           -0.683755963035    -1.571257158355    -1.074884461226     1.007825032230
         H           -0.415615963035     0.162971841645    -1.321596461226     1.007825032230
         H           -2.457447963035    -0.021883158355     1.854968538774     1.007825032230
         H            1.584150036965    -1.787198158355    -0.110380461226     1.007825032230
         H            1.645435036965    -1.124152158355    -1.751997461226     1.007825032230
         H           -3.731550963035    -1.566053158355     0.223310538774     1.007825032230
         H           -2.752019963035    -2.272229158355     1.341961538774     1.007825032230
         H           -2.647036963035     2.455137841645    -0.589221461226     1.007825032230
         H            3.312378036965     2.094629841645     0.661000538774     1.007825032230
         H            4.803916036965     1.523519841645     0.162503538774     1.007825032230
         H            4.837300036965    -0.976340158355     0.503765538774     1.007825032230
         H            3.661375036965    -1.730300158355    -0.428892461226     1.007825032230

  Basis Set: AUG-CC-PVTZ
    Blend: AUG-CC-PVTZ
  Basis Set: (AUG-CC-PVTZ AUX)
    Blend: AUG-CC-PVTZ-JKFIT
	 Reference Energy          =    -603.1279715120580249 [Eh]
	 Singles Energy            =      -0.0000000000000000 [Eh]
	 Same-Spin Energy          =      -0.6199746918309548 [Eh]
	 Opposite-Spin Energy      =      -1.9536665814831533 [Eh]
	 Correlation Energy        =      -2.5736412733141081 [Eh]
	 Total Energy              =    -605.7016127853721628 [Eh]

	 ================> DF-SCS-MP2 Energies <==================
	-----------------------------------------------------------
	 SCS Same-Spin Scale       =       0.3333333333333333 [-]
	 SCS Opposite-Spin Scale   =       1.2000000000000000 [-]
	 SCS Same-Spin Energy      =      -0.2066582306103182 [Eh]
	 SCS Opposite-Spin Energy  =      -2.3443998977797840 [Eh]
	 SCS Correlation Energy    =      -2.5510581283901024 [Eh]
	 SCS Total Energy          =    -605.6790296404481069 [Eh]
	-----------------------------------------------------------

  Dipole Moment: [D]
     X:     2.4291      Y:    -0.4049      Z:     1.6301     Total:     2.9532

*** Psi4 exiting successfully. Buy a developer a beer!
