                               Psi4 1.3.2 release

  ==> Input File <==

--------------------------------------------------------------------------
#psi4
#
memory 32 gb

molecule  {
0 1
  O       -2.2266400     1.8867650    -0.0032170
  O       -3.7615920     0.4694410    -0.8736430
  N       -2.7859400    -1.6499310     0.5252010
  N        1.9794570     0.3457110    -0.2591130
  N        3.8978530     1.3104060     0.6447910
  N        4.0160410    -0.8946960    -0.1223760
  C       -0.6937690    -0.3717720     0.7299070
  C       -0.2499775    -0.6700218    -0.6967681
  C       -2.2227870    -0.3377670     0.8339710
  C        1.3098450    -0.8661090    -0.7166530
  C       -2.8261080     0.6730930    -0.1173080
  C        3.2319800     0.2459460     0.0175660
  H       -0.2748670     0.5765650     1.0765220
  H       -0.3365530    -1.1529370     1.4152070
  H       -0.7054620    -1.5600450    -1.0625750
  H       -0.4516800     0.1714660    -1.3406670
  H       -2.4873830     0.0287790     1.8430020
  H        1.5813230    -1.7317920    -0.0895090
  H        1.6134840    -1.1144100    -1.7484380
  H       -3.7640510    -1.5477110     0.2601170
  H       -2.7467370    -2.2384130     1.3547150
  H       -2.6964570     2.4686380    -0.6361950
  H        3.2621090     2.1005400     0.7117460
  H        4.7565350     1.5848730     0.1747350
  H        5.0073770    -0.7866830     0.0488590
  H        3.7976690    -1.4866510    -0.9131750
units angstrom
no_reorient  #important for SAPT in psi4, default
symmetry c1  #important for SAPT in psi4, default
}

set PROPERTIES_ORIGIN ["COM"]
properties('MP2/aug-cc-pvtz', properties = ['dipole'])
--------------------------------------------------------------------------

    Molecular point group: c1
  Charge       = 0
  Multiplicity = 1
  Basis Set: AUG-CC-PVTZ
    Blend: AUG-CC-PVTZ
  Basis Set: (AUG-CC-PVTZ AUX)
    Blend: AUG-CC-PVTZ-JKFIT

    Orbital Energies [Eh]
    ---------------------

    Doubly Occupied:

       1A    -20.609770     2A    -20.546861     3A    -15.583235
       4A    -15.571527     5A    -15.539268     6A    -15.515597
       7A    -11.382097     8A    -11.341509     9A    -11.269685
      10A    -11.240000    11A    -11.212686    12A    -11.200396
      13A     -1.455377    14A     -1.352094    15A     -1.294946
      16A     -1.189304    17A     -1.167423    18A     -1.156047
      19A     -1.045767    20A     -0.970155    21A     -0.890801
      22A     -0.824388    23A     -0.783788    24A     -0.766639
      25A     -0.718617    26A     -0.702480    27A     -0.699959
      28A     -0.689980    29A     -0.655220    30A     -0.638183
      31A     -0.632035    32A     -0.617600    33A     -0.605904
      34A     -0.591783    35A     -0.568719    36A     -0.550827
      37A     -0.544098    38A     -0.521567    39A     -0.488530
      40A     -0.481585    41A     -0.473416    42A     -0.465021
      43A     -0.441149    44A     -0.436877    45A     -0.396736
      46A     -0.389484    47A     -0.346292

  @DF-RHF Final Energy:  -603.12353831882956

   => Energetics <=

    Nuclear Repulsion Energy =            725.4608430565647268
    One-Electron Energy =               -2264.0379115991390790
    Two-Electron Energy =                 935.4535302237447922
    Total Energy =                       -603.1235383188295600
  Basis Set: (AUG-CC-PVTZ AUX)
    Blend: AUG-CC-PVTZ-RI
    Molecular point group: c1

    Geometry (in Angstrom), charge = 0, multiplicity = 1:

       Center              X                  Y                   Z               Mass
    ------------   -----------------  -----------------  -----------------  -----------------
         O           -2.186097900615     1.860337077482     0.004090659807    15.994914619570
         O           -3.721049900615     0.443013077482    -0.866335340193    15.994914619570
         N           -2.745397900615    -1.676358922518     0.532508659807    14.003074004430
         N            2.019999099385     0.319283077482    -0.251805340193    14.003074004430
         N            3.938395099385     1.283978077482     0.652098659807    14.003074004430
         N            4.056583099385    -0.921123922518    -0.115068340193    14.003074004430
         C           -0.653226900615    -0.398199922518     0.737214659807    12.000000000000
         C           -0.209435400615    -0.696449722518    -0.689460440193    12.000000000000
         C           -2.182244900615    -0.364194922518     0.841278659807    12.000000000000
         C            1.350387099385    -0.892536922518    -0.709345340193    12.000000000000
         C           -2.785565900615     0.646665077482    -0.110000340193    12.000000000000
         C            3.272522099385     0.219518077482     0.024873659807    12.000000000000
         H           -0.234324900615     0.550137077482     1.083829659807     1.007825032230
         H           -0.296010900615    -1.179364922518     1.422514659807     1.007825032230
         H           -0.664919900615    -1.586472922518    -1.055267340193     1.007825032230
         H           -0.411137900615     0.145038077482    -1.333359340193     1.007825032230
         H           -2.446840900615     0.002351077482     1.850309659807     1.007825032230
         H            1.621865099385    -1.758219922518    -0.082201340193     1.007825032230
         H            1.654026099385    -1.140837922518    -1.741130340193     1.007825032230
         H           -3.723508900615    -1.574138922518     0.267424659807     1.007825032230
         H           -2.706194900615    -2.264840922518     1.362022659807     1.007825032230
         H           -2.655914900615     2.442210077482    -0.628887340193     1.007825032230
         H            3.302651099385     2.074112077482     0.719053659807     1.007825032230
         H            4.797077099385     1.558445077482     0.182042659807     1.007825032230
         H            5.047919099385    -0.813110922518     0.056166659807     1.007825032230
         H            3.838211099385    -1.513078922518    -0.905867340193     1.007825032230

  Basis Set: AUG-CC-PVTZ
    Blend: AUG-CC-PVTZ
  Basis Set: (AUG-CC-PVTZ AUX)
    Blend: AUG-CC-PVTZ-JKFIT
	 Reference Energy          =    -603.1235383188295600 [Eh]
	 Singles Energy            =      -0.0000000000000000 [Eh]
	 Same-Spin Energy          =      -0.6201947611384122 [Eh]
	 Opposite-Spin Energy      =      -1.9538760656562419 [Eh]
	 Correlation Energy        =      -2.5740708267946539 [Eh]
	 Total Energy              =    -605.6976091456242557 [Eh]

	 ================> DF-SCS-MP2 Energies <==================
	-----------------------------------------------------------
	 SCS Same-Spin Scale       =       0.3333333333333333 [-]
	 SCS Opposite-Spin Scale   =       1.2000000000000000 [-]
	 SCS Same-Spin Energy      =      -0.2067315870461374 [Eh]
	 SCS Opposite-Spin Energy  =      -2.3446512787874902 [Eh]
	 SCS Correlation Energy    =      -2.5513828658336277 [Eh]
	 SCS Total Energy          =    -605.6749211846631624 [Eh]
	-----------------------------------------------------------

  Dipole Moment: [D]
     X:     3.4212      Y:     0.2861      Z:     0.3379     Total:     3.4497

*** Psi4 exiting successfully. Buy a developer a beer!
