                               Psi4 1.3.2 release

  ==> Input File <==

--------------------------------------------------------------------------
#psi4
#
memory 32 gb

molecule  {
0 1
  O       -2.2266400     1.8867650    -0.0032170
  O       -3.7615920     0.4694410    -0.8736430
  N       -2.7859400    -1.6499310     0.5252010
  N        1.9794570     0.3457110    -0.2591130
  N        3.8978530     1.3104060     0.6447910
  N        4.0160410    -0.8946960    -0.1223760
  C       -0.6937690    -0.3717720     0.7299070
  C       -0.1993830    -0.6671070    -0.6806480
  C       -2.2227870    -0.3377670     0.8339710
  C        1.3098450    -0.8661090    -0.7166530
  C       -2.8261080     0.6730930    -0.1173080
  C        3.2319800     0.2459460     0.0175660
  H       -0.2748670     0.5765650     1.0765220
  H       -0.3365530    -1.1529370     1.4152070
  H       -0.7054620    -1.5600450    -1.0625750
  H       -0.4516800     0.1714660    -1.3406670
  H       -2.4873830     0.0287790     1.8430020
  H        1.5813230    -1.7317920    -0.0895090
  H        1.6134840    -1.1144100    -1.7484380
  H       -3.7640510    -1.5477110     0.2601170
  H       -2.7467370    -2.2384130     1.3547150
  H       -2.6964570     2.4686380    -0.6361950
  H        3.2503506     2.0901762     0.7200517
  H        4.7565350     1.5848730     0.1747350
  H        5.0073770    -0.7866830     0.0488590
  H        3.7976690    -1.4866510    -0.9131750
units angstrom
no_reorient  #important for SAPT in psi4, default
symmetry c1  #important for SAPT in psi4, default
}

set PROPERTIES_ORIGIN ["COM"]
properties('MP2/aug-cc-pvtz', properties = ['dipole'])
--------------------------------------------------------------------------

    Molecular point group: c1
  Charge       = 0
  Multiplicity = 1
  Basis Set: AUG-CC-PVTZ
    Blend: AUG-CC-PVTZ
  Basis Set: (AUG-CC-PVTZ AUX)
    Blend: AUG-CC-PVTZ-JKFIT

    Orbital Energies [Eh]
    ---------------------

    Doubly Occupied:

       1A    -20.609849     2A    -20.547053     3A    -15.583435
       4A    -15.571527     5A    -15.539503     6A    -15.515349
       7A    -11.382347     8A    -11.341480     9A    -11.270829
      10A    -11.238497    11A    -11.212488    12A    -11.201745
      13A     -1.455493    14A     -1.352237    15A     -1.295275
      16A     -1.189438    17A     -1.167540    18A     -1.157782
      19A     -1.046962    20A     -0.974211    21A     -0.892568
      22A     -0.821358    23A     -0.784282    24A     -0.764942
      25A     -0.719086    26A     -0.703104    27A     -0.700834
      28A     -0.690087    29A     -0.655816    30A     -0.638689
      31A     -0.631583    32A     -0.617715    33A     -0.607016
      34A     -0.593336    35A     -0.569277    36A     -0.550740
      37A     -0.541091    38A     -0.521566    39A     -0.491565
      40A     -0.477198    41A     -0.469914    42A     -0.467737
      43A     -0.440292    44A     -0.438172    45A     -0.398005
      46A     -0.391064    47A     -0.346880

  @DF-RHF Final Energy:  -603.12600439376831

   => Energetics <=

    Nuclear Repulsion Energy =            725.7746270541679223
    One-Electron Energy =               -2264.6473506104421176
    Two-Electron Energy =                 935.7467191625058831
    Total Energy =                       -603.1260043937683122
  Basis Set: (AUG-CC-PVTZ AUX)
    Blend: AUG-CC-PVTZ-RI
    Molecular point group: c1

    Geometry (in Angstrom), charge = 0, multiplicity = 1:

       Center              X                  Y                   Z               Mass
    ------------   -----------------  -----------------  -----------------  -----------------
         O           -2.189516876325     1.860196175370     0.002931565269    15.994914619570
         O           -3.724468876325     0.442872175370    -0.867494434731    15.994914619570
         N           -2.748816876325    -1.676499824630     0.531349565269    14.003074004430
         N            2.016580123675     0.319142175370    -0.252964434731    14.003074004430
         N            3.934976123675     1.283837175370     0.650939565269    14.003074004430
         N            4.053164123675    -0.921264824630    -0.116227434731    14.003074004430
         C           -0.656645876325    -0.398340824630     0.736055565269    12.000000000000
         C           -0.162259876325    -0.693675824630    -0.674499434731    12.000000000000
         C           -2.185663876325    -0.364335824630     0.840119565269    12.000000000000
         C            1.346968123675    -0.892677824630    -0.710504434731    12.000000000000
         C           -2.788984876325     0.646524175370    -0.111159434731    12.000000000000
         C            3.269103123675     0.219377175370     0.023714565269    12.000000000000
         H           -0.237743876325     0.549996175370     1.082670565269     1.007825032230
         H           -0.299429876325    -1.179505824630     1.421355565269     1.007825032230
         H           -0.668338876325    -1.586613824630    -1.056426434731     1.007825032230
         H           -0.414556876325     0.144897175370    -1.334518434731     1.007825032230
         H           -2.450259876325     0.002210175370     1.849150565269     1.007825032230
         H            1.618446123675    -1.758360824630    -0.083360434731     1.007825032230
         H            1.650607123675    -1.140978824630    -1.742289434731     1.007825032230
         H           -3.726927876325    -1.574279824630     0.266265565269     1.007825032230
         H           -2.709613876325    -2.264981824630     1.360863565269     1.007825032230
         H           -2.659333876325     2.442069175370    -0.630046434731     1.007825032230
         H            3.287473723675     2.063607375370     0.726200265269     1.007825032230
         H            4.793658123675     1.558304175370     0.180883565269     1.007825032230
         H            5.044500123675    -0.813251824630     0.055007565269     1.007825032230
         H            3.834792123675    -1.513219824630    -0.907026434731     1.007825032230

  Basis Set: AUG-CC-PVTZ
    Blend: AUG-CC-PVTZ
  Basis Set: (AUG-CC-PVTZ AUX)
    Blend: AUG-CC-PVTZ-JKFIT
	 Reference Energy          =    -603.1260043937683122 [Eh]
	 Singles Energy            =      -0.0000000000000000 [Eh]
	 Same-Spin Energy          =      -0.6202959393932350 [Eh]
	 Opposite-Spin Energy      =      -1.9538123911230065 [Eh]
	 Correlation Energy        =      -2.5741083305162418 [Eh]
	 Total Energy              =    -605.7001127242845087 [Eh]

	 ================> DF-SCS-MP2 Energies <==================
	-----------------------------------------------------------
	 SCS Same-Spin Scale       =       0.3333333333333333 [-]
	 SCS Opposite-Spin Scale   =       1.2000000000000000 [-]
	 SCS Same-Spin Energy      =      -0.2067653131310783 [Eh]
	 SCS Opposite-Spin Energy  =      -2.3445748693476078 [Eh]
	 SCS Correlation Energy    =      -2.5513401824786861 [Eh]
	 SCS Total Energy          =    -605.6773445762470374 [Eh]
	-----------------------------------------------------------

  Dipole Moment: [D]
     X:     3.4086      Y:     0.2806      Z:     0.3531     Total:     3.4383

*** Psi4 exiting successfully. Buy a developer a beer!
