                               Psi4 1.3.2 release

  ==> Input File <==

--------------------------------------------------------------------------
#psi4
#
memory 32 gb

molecule  {
0 1
  O       -2.2266400     1.8867650    -0.0032170
  O       -3.7615920     0.4694410    -0.8736430
  N       -2.7859400    -1.6499310     0.5252010
  N        1.9794570     0.3457110    -0.2591130
  N        3.9376835     1.2821354     0.6485709
  N        4.0160410    -0.8946960    -0.1223760
  C       -0.6937690    -0.3717720     0.7299070
  C       -0.1993830    -0.6671070    -0.6806480
  C       -2.2227870    -0.3377670     0.8339710
  C        1.3098450    -0.8661090    -0.7166530
  C       -2.8261080     0.6730930    -0.1173080
  C        3.2319800     0.2459460     0.0175660
  H       -0.2748670     0.5765650     1.0765220
  H       -0.3365530    -1.1529370     1.4152070
  H       -0.7054620    -1.5600450    -1.0625750
  H       -0.4516800     0.1714660    -1.3406670
  H       -2.4873830     0.0287790     1.8430020
  H        1.5813230    -1.7317920    -0.0895090
  H        1.6134840    -1.1144100    -1.7484380
  H       -3.7640510    -1.5477110     0.2601170
  H       -2.7467370    -2.2384130     1.3547150
  H       -2.6964570     2.4686380    -0.6361950
  H        3.2621090     2.1005400     0.7117460
  H        4.7565350     1.5848730     0.1747350
  H        5.0073770    -0.7866830     0.0488590
  H        3.7976690    -1.4866510    -0.9131750
units angstrom
no_reorient  #important for SAPT in psi4, default
symmetry c1  #important for SAPT in psi4, default
}

set PROPERTIES_ORIGIN ["COM"]
properties('MP2/aug-cc-pvtz', properties = ['dipole'])
--------------------------------------------------------------------------

    Molecular point group: c1
  Charge       = 0
  Multiplicity = 1
  Basis Set: AUG-CC-PVTZ
    Blend: AUG-CC-PVTZ
  Basis Set: (AUG-CC-PVTZ AUX)
    Blend: AUG-CC-PVTZ-JKFIT

    Orbital Energies [Eh]
    ---------------------

    Doubly Occupied:

       1A    -20.610102     2A    -20.547303     3A    -15.581430
       4A    -15.574090     5A    -15.539753     6A    -15.517411
       7A    -11.382599     8A    -11.342129     9A    -11.271118
      10A    -11.239640    11A    -11.212873    12A    -11.202333
      13A     -1.455745    14A     -1.352485    15A     -1.295512
      16A     -1.189723    17A     -1.164407    18A     -1.159651
      19A     -1.047620    20A     -0.974854    21A     -0.893220
      22A     -0.821969    23A     -0.783458    24A     -0.764698
      25A     -0.717495    26A     -0.704507    27A     -0.701417
      28A     -0.690962    29A     -0.656041    30A     -0.636760
      31A     -0.626625    32A     -0.617923    33A     -0.605130
      34A     -0.591832    35A     -0.569325    36A     -0.550124
      37A     -0.542012    38A     -0.521765    39A     -0.492294
      40A     -0.477578    41A     -0.470526    42A     -0.468414
      43A     -0.440584    44A     -0.438586    45A     -0.398829
      46A     -0.391577    47A     -0.348838

  @DF-RHF Final Energy:  -603.12219094874479

   => Energetics <=

    Nuclear Repulsion Energy =            725.5311575740573744
    One-Electron Energy =               -2264.1401627571431163
    Two-Electron Energy =                 935.4868142343408408
    Total Energy =                       -603.1221909487447874
  Basis Set: (AUG-CC-PVTZ AUX)
    Blend: AUG-CC-PVTZ-RI
    Molecular point group: c1

    Geometry (in Angstrom), charge = 0, multiplicity = 1:

       Center              X                  Y                   Z               Mass
    ------------   -----------------  -----------------  -----------------  -----------------
         O           -2.192788339004     1.862409871868     0.002675640289    15.994914619570
         O           -3.727740339004     0.445085871868    -0.867750359711    15.994914619570
         N           -2.752088339004    -1.674286128132     0.531093640289    14.003074004430
         N            2.013308660996     0.321355871868    -0.253220359711    14.003074004430
         N            3.971535160996     1.257780271868     0.654463540289    14.003074004430
         N            4.049892660996    -0.919051128132    -0.116483359711    14.003074004430
         C           -0.659917339004    -0.396127128132     0.735799640289    12.000000000000
         C           -0.165531339004    -0.691462128132    -0.674755359711    12.000000000000
         C           -2.188935339004    -0.362122128132     0.839863640289    12.000000000000
         C            1.343696660996    -0.890464128132    -0.710760359711    12.000000000000
         C           -2.792256339004     0.648737871868    -0.111415359711    12.000000000000
         C            3.265831660996     0.221590871868     0.023458640289    12.000000000000
         H           -0.241015339004     0.552209871868     1.082414640289     1.007825032230
         H           -0.302701339004    -1.177292128132     1.421099640289     1.007825032230
         H           -0.671610339004    -1.584400128132    -1.056682359711     1.007825032230
         H           -0.417828339004     0.147110871868    -1.334774359711     1.007825032230
         H           -2.453531339004     0.004423871868     1.848894640289     1.007825032230
         H            1.615174660996    -1.756147128132    -0.083616359711     1.007825032230
         H            1.647335660996    -1.138765128132    -1.742545359711     1.007825032230
         H           -3.730199339004    -1.572066128132     0.266009640289     1.007825032230
         H           -2.712885339004    -2.262768128132     1.360607640289     1.007825032230
         H           -2.662605339004     2.444282871868    -0.630302359711     1.007825032230
         H            3.295960660996     2.076184871868     0.717638640289     1.007825032230
         H            4.790386660996     1.560517871868     0.180627640289     1.007825032230
         H            5.041228660996    -0.811038128132     0.054751640289     1.007825032230
         H            3.831520660996    -1.511006128132    -0.907282359711     1.007825032230

  Basis Set: AUG-CC-PVTZ
    Blend: AUG-CC-PVTZ
  Basis Set: (AUG-CC-PVTZ AUX)
    Blend: AUG-CC-PVTZ-JKFIT
	 Reference Energy          =    -603.1221909487447874 [Eh]
	 Singles Energy            =      -0.0000000000000000 [Eh]
	 Same-Spin Energy          =      -0.6205443974469989 [Eh]
	 Opposite-Spin Energy      =      -1.9545251149570324 [Eh]
	 Correlation Energy        =      -2.5750695124040313 [Eh]
	 Total Energy              =    -605.6972604611488578 [Eh]

	 ================> DF-SCS-MP2 Energies <==================
	-----------------------------------------------------------
	 SCS Same-Spin Scale       =       0.3333333333333333 [-]
	 SCS Opposite-Spin Scale   =       1.2000000000000000 [-]
	 SCS Same-Spin Energy      =      -0.2068481324823329 [Eh]
	 SCS Opposite-Spin Energy  =      -2.3454301379484388 [Eh]
	 SCS Correlation Energy    =      -2.5522782704307718 [Eh]
	 SCS Total Energy          =    -605.6744692191755348 [Eh]
	-----------------------------------------------------------

  Dipole Moment: [D]
     X:     3.3166      Y:     0.3146      Z:     0.3084     Total:     3.3457

*** Psi4 exiting successfully. Buy a developer a beer!
