                               Psi4 1.3.2 release

  ==> Input File <==

--------------------------------------------------------------------------
#psi4
#
memory 32 gb

molecule  {
0 1
  O       -2.2266400     1.8867650    -0.0032170
  O       -3.7615920     0.4694410    -0.8736430
  N       -2.7859400    -1.6499310     0.5252010
  N        1.9794570     0.3457110    -0.2591130
  N        3.8978530     1.3104060     0.6447910
  N        4.0160410    -0.8946960    -0.1223760
  C       -0.6937690    -0.3717720     0.7299070
  C       -0.1993830    -0.6671070    -0.6806480
  C       -2.2227870    -0.3377670     0.8339710
  C        1.3098450    -0.8661090    -0.7166530
  C       -2.8261080     0.6730930    -0.1173080
  C        3.2319800     0.2459460     0.0175660
  H       -0.2748670     0.5765650     1.0765220
  H       -0.3365530    -1.1529370     1.4152070
  H       -0.7054620    -1.5600450    -1.0625750
  H       -0.4516800     0.1714660    -1.3406670
  H       -2.4873830     0.0287790     1.8430020
  H        1.5813230    -1.7317920    -0.0895090
  H        1.6134840    -1.1144100    -1.7484380
  H       -3.7640510    -1.5477110     0.2601170
  H       -2.7467370    -2.2384130     1.3547150
  H       -2.6964570     2.4686380    -0.6361950
  H        3.2740610     2.1106631     0.7034199
  H        4.7565350     1.5848730     0.1747350
  H        5.0073770    -0.7866830     0.0488590
  H        3.7976690    -1.4866510    -0.9131750
units angstrom
no_reorient  #important for SAPT in psi4, default
symmetry c1  #important for SAPT in psi4, default
}

set PROPERTIES_ORIGIN ["COM"]
properties('MP2/aug-cc-pvtz', properties = ['dipole'])
--------------------------------------------------------------------------

    Molecular point group: c1
  Charge       = 0
  Multiplicity = 1
  Basis Set: AUG-CC-PVTZ
    Blend: AUG-CC-PVTZ
  Basis Set: (AUG-CC-PVTZ AUX)
    Blend: AUG-CC-PVTZ-JKFIT

    Orbital Energies [Eh]
    ---------------------

    Doubly Occupied:

       1A    -20.609790     2A    -20.547000     3A    -15.583584
       4A    -15.571799     5A    -15.539445     6A    -15.515326
       7A    -11.382290     8A    -11.341777     9A    -11.270758
      10A    -11.238440    11A    -11.212388    12A    -11.201682
      13A     -1.455436    14A     -1.352182    15A     -1.295251
      16A     -1.189378    17A     -1.167740    18A     -1.157887
      19A     -1.046922    20A     -0.974203    21A     -0.892619
      22A     -0.821792    23A     -0.784687    24A     -0.764867
      25A     -0.719295    26A     -0.702587    27A     -0.700140
      28A     -0.689376    29A     -0.655756    30A     -0.637520
      31A     -0.631998    32A     -0.617670    33A     -0.607650
      34A     -0.593249    35A     -0.569295    36A     -0.550938
      37A     -0.541174    38A     -0.521658    39A     -0.491505
      40A     -0.477142    41A     -0.469892    42A     -0.467678
      43A     -0.440231    44A     -0.438495    45A     -0.397908
      46A     -0.390995    47A     -0.346910

  @DF-RHF Final Energy:  -603.12606676367727

   => Energetics <=

    Nuclear Repulsion Energy =            725.7200400225019621
    One-Electron Energy =               -2264.5396019044796958
    Two-Electron Energy =                 935.6934951183004614
    Total Energy =                       -603.1260667636772723
  Basis Set: (AUG-CC-PVTZ AUX)
    Blend: AUG-CC-PVTZ-RI
    Molecular point group: c1

    Geometry (in Angstrom), charge = 0, multiplicity = 1:

       Center              X                  Y                   Z               Mass
    ------------   -----------------  -----------------  -----------------  -----------------
         O           -2.189654121197     1.860077589350     0.003027836494    15.994914619570
         O           -3.724606121197     0.442753589350    -0.867398163506    15.994914619570
         N           -2.748954121197    -1.676618410650     0.531445836494    14.003074004430
         N            2.016442878803     0.319023589350    -0.252868163506    14.003074004430
         N            3.934838878803     1.283718589350     0.651035836494    14.003074004430
         N            4.053026878803    -0.921383410650    -0.116131163506    14.003074004430
         C           -0.656783121197    -0.398459410650     0.736151836494    12.000000000000
         C           -0.162397121197    -0.693794410650    -0.674403163506    12.000000000000
         C           -2.185801121197    -0.364454410650     0.840215836494    12.000000000000
         C            1.346830878803    -0.892796410650    -0.710408163506    12.000000000000
         C           -2.789122121197     0.646405589350    -0.111063163506    12.000000000000
         C            3.268965878803     0.219258589350     0.023810836494    12.000000000000
         H           -0.237881121197     0.549877589350     1.082766836494     1.007825032230
         H           -0.299567121197    -1.179624410650     1.421451836494     1.007825032230
         H           -0.668476121197    -1.586732410650    -1.056330163506     1.007825032230
         H           -0.414694121197     0.144778589350    -1.334422163506     1.007825032230
         H           -2.450397121197     0.002091589350     1.849246836494     1.007825032230
         H            1.618308878803    -1.758479410650    -0.083264163506     1.007825032230
         H            1.650469878803    -1.141097410650    -1.742193163506     1.007825032230
         H           -3.727065121197    -1.574398410650     0.266361836494     1.007825032230
         H           -2.709751121197    -2.265100410650     1.360959836494     1.007825032230
         H           -2.659471121197     2.441950589350    -0.629950163506     1.007825032230
         H            3.311046878803     2.083975689350     0.709664736494     1.007825032230
         H            4.793520878803     1.558185589350     0.180979836494     1.007825032230
         H            5.044362878803    -0.813370410650     0.055103836494     1.007825032230
         H            3.834654878803    -1.513338410650    -0.906930163506     1.007825032230

  Basis Set: AUG-CC-PVTZ
    Blend: AUG-CC-PVTZ
  Basis Set: (AUG-CC-PVTZ AUX)
    Blend: AUG-CC-PVTZ-JKFIT
	 Reference Energy          =    -603.1260667636772723 [Eh]
	 Singles Energy            =      -0.0000000000000000 [Eh]
	 Same-Spin Energy          =      -0.6202563018849074 [Eh]
	 Opposite-Spin Energy      =      -1.9537893589127604 [Eh]
	 Correlation Energy        =      -2.5740456607976681 [Eh]
	 Total Energy              =    -605.7001124244749235 [Eh]

	 ================> DF-SCS-MP2 Energies <==================
	-----------------------------------------------------------
	 SCS Same-Spin Scale       =       0.3333333333333333 [-]
	 SCS Opposite-Spin Scale   =       1.2000000000000000 [-]
	 SCS Same-Spin Energy      =      -0.2067521006283025 [Eh]
	 SCS Opposite-Spin Energy  =      -2.3445472306953126 [Eh]
	 SCS Correlation Energy    =      -2.5512993313236150 [Eh]
	 SCS Total Energy          =    -605.6773660950009344 [Eh]
	-----------------------------------------------------------

  Dipole Moment: [D]
     X:     3.4244      Y:     0.2956      Z:     0.3332     Total:     3.4532

*** Psi4 exiting successfully. Buy a developer a beer!
