                               Psi4 1.3.2 release

  ==> Input File <==

--------------------------------------------------------------------------
#psi4
#
memory 32 gb

molecule  {
0 1
  O       -2.2266400     1.8867650    -0.0032170
  O       -3.7615920     0.4694410    -0.8736430
  N       -2.7859400    -1.6499310     0.5252010
  N        1.9845315     0.4688815    -0.2048979
  N        3.8978530     1.3104060     0.6447910
  N        4.0160410    -0.8946960    -0.1223760
  C       -0.6937690    -0.3717720     0.7299070
  C       -0.1993830    -0.6671070    -0.6806480
  C       -2.2227870    -0.3377670     0.8339710
  C        1.3098450    -0.8661090    -0.7166530
  C       -2.8261080     0.6730930    -0.1173080
  C        3.2319800     0.2459460     0.0175660
  H       -0.2748670     0.5765650     1.0765220
  H       -0.3365530    -1.1529370     1.4152070
  H       -0.7054620    -1.5600450    -1.0625750
  H       -0.4516800     0.1714660    -1.3406670
  H       -2.4873830     0.0287790     1.8430020
  H        1.5813230    -1.7317920    -0.0895090
  H        1.6134840    -1.1144100    -1.7484380
  H       -3.7640510    -1.5477110     0.2601170
  H       -2.7467370    -2.2384130     1.3547150
  H       -2.6964570     2.4686380    -0.6361950
  H        3.2621090     2.1005400     0.7117460
  H        4.7565350     1.5848730     0.1747350
  H        5.0073770    -0.7866830     0.0488590
  H        3.7976690    -1.4866510    -0.9131750
units angstrom
no_reorient  #important for SAPT in psi4, default
symmetry c1  #important for SAPT in psi4, default
}

set PROPERTIES_ORIGIN ["COM"]
properties('MP2/aug-cc-pvtz', properties = ['dipole'])
--------------------------------------------------------------------------

    Molecular point group: c1
  Charge       = 0
  Multiplicity = 1
  Basis Set: AUG-CC-PVTZ
    Blend: AUG-CC-PVTZ
  Basis Set: (AUG-CC-PVTZ AUX)
    Blend: AUG-CC-PVTZ-JKFIT

    Orbital Energies [Eh]
    ---------------------

    Doubly Occupied:

       1A    -20.609854     2A    -20.547226     3A    -15.588711
       4A    -15.563501     5A    -15.539887     6A    -15.525832
       7A    -11.382504     8A    -11.340095     9A    -11.271048
      10A    -11.245970    11A    -11.212847    12A    -11.203853
      13A     -1.455563    14A     -1.352356    15A     -1.293274
      16A     -1.189692    17A     -1.170175    18A     -1.137564
      19A     -1.048112    20A     -0.974334    21A     -0.889297
      22A     -0.815240    23A     -0.788281    24A     -0.765825
      25A     -0.717512    26A     -0.702523    27A     -0.697923
      28A     -0.687799    29A     -0.656059    30A     -0.633391
      31A     -0.628851    32A     -0.617784    33A     -0.597250
      34A     -0.588957    35A     -0.569061    36A     -0.550781
      37A     -0.535332    38A     -0.519006    39A     -0.488092
      40A     -0.478377    41A     -0.469300    42A     -0.465344
      43A     -0.440862    44A     -0.440166    45A     -0.404361
      46A     -0.391807    47A     -0.352158

  @DF-RHF Final Energy:  -603.11176169389614

   => Energetics <=

    Nuclear Repulsion Energy =            724.1678976435318873
    One-Electron Energy =               -2261.4718406122483429
    Two-Electron Energy =                 934.1921812748203138
    Total Energy =                       -603.1117616938961419
  Basis Set: (AUG-CC-PVTZ AUX)
    Blend: AUG-CC-PVTZ-RI
    Molecular point group: c1

    Geometry (in Angstrom), charge = 0, multiplicity = 1:

       Center              X                  Y                   Z               Mass
    ------------   -----------------  -----------------  -----------------  -----------------
         O           -2.189993059261     1.850230097468    -0.001380651945    15.994914619570
         O           -3.724945059261     0.432906097468    -0.871806651945    15.994914619570
         N           -2.749293059261    -1.686465902532     0.527037348055    14.003074004430
         N            2.021178440739     0.432346597468    -0.203061551945    14.003074004430
         N            3.934499940739     1.273871097468     0.646627348055    14.003074004430
         N            4.052687940739    -0.931230902532    -0.120539651945    14.003074004430
         C           -0.657122059261    -0.408306902532     0.731743348055    12.000000000000
         C           -0.162736059261    -0.703641902532    -0.678811651945    12.000000000000
         C           -2.186140059261    -0.374301902532     0.835807348055    12.000000000000
         C            1.346491940739    -0.902643902532    -0.714816651945    12.000000000000
         C           -2.789461059261     0.636558097468    -0.115471651945    12.000000000000
         C            3.268626940739     0.209411097468     0.019402348055    12.000000000000
         H           -0.238220059261     0.540030097468     1.078358348055     1.007825032230
         H           -0.299906059261    -1.189471902532     1.417043348055     1.007825032230
         H           -0.668815059261    -1.596579902532    -1.060738651945     1.007825032230
         H           -0.415033059261     0.134931097468    -1.338830651945     1.007825032230
         H           -2.450736059261    -0.007755902532     1.844838348055     1.007825032230
         H            1.617969940739    -1.768326902532    -0.087672651945     1.007825032230
         H            1.650130940739    -1.150944902532    -1.746601651945     1.007825032230
         H           -3.727404059261    -1.584245902532     0.261953348055     1.007825032230
         H           -2.710090059261    -2.274947902532     1.356551348055     1.007825032230
         H           -2.659810059261     2.432103097468    -0.634358651945     1.007825032230
         H            3.298755940739     2.064005097468     0.713582348055     1.007825032230
         H            4.793181940739     1.548338097468     0.176571348055     1.007825032230
         H            5.044023940739    -0.823217902532     0.050695348055     1.007825032230
         H            3.834315940739    -1.523185902532    -0.911338651945     1.007825032230

  Basis Set: AUG-CC-PVTZ
    Blend: AUG-CC-PVTZ
  Basis Set: (AUG-CC-PVTZ AUX)
    Blend: AUG-CC-PVTZ-JKFIT
	 Reference Energy          =    -603.1117616938961419 [Eh]
	 Singles Energy            =      -0.0000000000000000 [Eh]
	 Same-Spin Energy          =      -0.6205983748512292 [Eh]
	 Opposite-Spin Energy      =      -1.9564241792907686 [Eh]
	 Correlation Energy        =      -2.5770225541419975 [Eh]
	 Total Energy              =    -605.6887842480381323 [Eh]

	 ================> DF-SCS-MP2 Energies <==================
	-----------------------------------------------------------
	 SCS Same-Spin Scale       =       0.3333333333333333 [-]
	 SCS Opposite-Spin Scale   =       1.2000000000000000 [-]
	 SCS Same-Spin Energy      =      -0.2068661249504097 [Eh]
	 SCS Opposite-Spin Energy  =      -2.3477090151489222 [Eh]
	 SCS Correlation Energy    =      -2.5545751400993320 [Eh]
	 SCS Total Energy          =    -605.6663368339955014 [Eh]
	-----------------------------------------------------------

  Dipole Moment: [D]
     X:     3.3317      Y:    -0.0466      Z:     0.2011     Total:     3.3381

*** Psi4 exiting successfully. Buy a developer a beer!
