                               Psi4 1.3.2 release

  ==> Input File <==

--------------------------------------------------------------------------
#psi4
#
memory 32 gb

molecule  {
0 1
  O       -2.2266400     1.8867650    -0.0032170
  O       -3.7615920     0.4694410    -0.8736430
  N       -2.7859400    -1.6499310     0.5252010
  N        1.9794570     0.3457110    -0.2591130
  N        3.8978530     1.3104060     0.6447910
  N        4.0160410    -0.8946960    -0.1223760
  C       -0.6937690    -0.3717720     0.7299070
  C       -0.1993830    -0.6671070    -0.6806480
  C       -2.2227870    -0.3377670     0.8339710
  C        1.3098450    -0.8661090    -0.7166530
  C       -2.8261080     0.6730930    -0.1173080
  C        3.2319800     0.2459460     0.0175660
  H       -0.2748670     0.5765650     1.0765220
  H       -0.3365530    -1.1529370     1.4152070
  H       -0.7054620    -1.5600450    -1.0625750
  H       -0.4516800     0.1714660    -1.3406670
  H       -2.4873830     0.0287790     1.8430020
  H        1.5813230    -1.7317920    -0.0895090
  H        1.6134840    -1.1144100    -1.7484380
  H       -3.7640510    -1.5477110     0.2601170
  H       -2.7467370    -2.2384130     1.3547150
  H       -2.6964570     2.4686380    -0.6361950
  H        3.2387895     2.0795750     0.7283344
  H        4.7565350     1.5848730     0.1747350
  H        5.0073770    -0.7866830     0.0488590
  H        3.7976690    -1.4866510    -0.9131750
units angstrom
no_reorient  #important for SAPT in psi4, default
symmetry c1  #important for SAPT in psi4, default
}

set PROPERTIES_ORIGIN ["COM"]
properties('MP2/aug-cc-pvtz', properties = ['dipole'])
--------------------------------------------------------------------------

    Molecular point group: c1
  Charge       = 0
  Multiplicity = 1
  Basis Set: AUG-CC-PVTZ
    Blend: AUG-CC-PVTZ
  Basis Set: (AUG-CC-PVTZ AUX)
    Blend: AUG-CC-PVTZ-JKFIT

    Orbital Energies [Eh]
    ---------------------

    Doubly Occupied:

       1A    -20.609878     2A    -20.547081     3A    -15.583359
       4A    -15.571382     5A    -15.539533     6A    -15.515367
       7A    -11.382376     8A    -11.341336     9A    -11.270866
      10A    -11.238529    11A    -11.212540    12A    -11.201778
      13A     -1.455521    14A     -1.352264    15A     -1.295294
      16A     -1.189470    17A     -1.167450    18A     -1.157732
      19A     -1.046985    20A     -0.974217    21A     -0.892546
      22A     -0.821152    23A     -0.784077    24A     -0.764981
      25A     -0.718997    26A     -0.703504    27A     -0.701107
      28A     -0.690413    29A     -0.655847    30A     -0.639211
      31A     -0.631377    32A     -0.617738    33A     -0.606687
      34A     -0.593367    35A     -0.569268    36A     -0.550636
      37A     -0.541043    38A     -0.521513    39A     -0.491597
      40A     -0.477226    41A     -0.469926    42A     -0.467767
      43A     -0.440324    44A     -0.438008    45A     -0.398058
      46A     -0.391100    47A     -0.346872

  @DF-RHF Final Energy:  -603.12587282802701

   => Energetics <=

    Nuclear Repulsion Energy =            725.8023798252213510
    One-Electron Energy =               -2264.7019066631996793
    Two-Electron Energy =                 935.7736540099513149
    Total Energy =                       -603.1258728280270134
  Basis Set: (AUG-CC-PVTZ AUX)
    Blend: AUG-CC-PVTZ-RI
    Molecular point group: c1

    Geometry (in Angstrom), charge = 0, multiplicity = 1:

       Center              X                  Y                   Z               Mass
    ------------   -----------------  -----------------  -----------------  -----------------
         O           -2.189449956252     1.860257539174     0.002883621830    15.994914619570
         O           -3.724401956252     0.442933539174    -0.867542378170    15.994914619570
         N           -2.748749956252    -1.676438460826     0.531301621830    14.003074004430
         N            2.016647043748     0.319203539174    -0.253012378170    14.003074004430
         N            3.935043043748     1.283898539174     0.650891621830    14.003074004430
         N            4.053231043748    -0.921203460826    -0.116275378170    14.003074004430
         C           -0.656578956252    -0.398279460826     0.736007621830    12.000000000000
         C           -0.162192956252    -0.693614460826    -0.674547378170    12.000000000000
         C           -2.185596956252    -0.364274460826     0.840071621830    12.000000000000
         C            1.347035043748    -0.892616460826    -0.710552378170    12.000000000000
         C           -2.788917956252     0.646585539174    -0.111207378170    12.000000000000
         C            3.269170043748     0.219438539174     0.023666621830    12.000000000000
         H           -0.237676956252     0.550057539174     1.082622621830     1.007825032230
         H           -0.299362956252    -1.179444460826     1.421307621830     1.007825032230
         H           -0.668271956252    -1.586552460826    -1.056474378170     1.007825032230
         H           -0.414489956252     0.144958539174    -1.334566378170     1.007825032230
         H           -2.450192956252     0.002271539174     1.849102621830     1.007825032230
         H            1.618513043748    -1.758299460826    -0.083408378170     1.007825032230
         H            1.650674043748    -1.140917460826    -1.742337378170     1.007825032230
         H           -3.726860956252    -1.574218460826     0.266217621830     1.007825032230
         H           -2.709546956252    -2.264920460826     1.360815621830     1.007825032230
         H           -2.659266956252     2.442130539174    -0.630094378170     1.007825032230
         H            3.275979543748     2.053067539174     0.734435021830     1.007825032230
         H            4.793725043748     1.558365539174     0.180835621830     1.007825032230
         H            5.044567043748    -0.813190460826     0.054959621830     1.007825032230
         H            3.834859043748    -1.513158460826    -0.907074378170     1.007825032230

  Basis Set: AUG-CC-PVTZ
    Blend: AUG-CC-PVTZ
  Basis Set: (AUG-CC-PVTZ AUX)
    Blend: AUG-CC-PVTZ-JKFIT
	 Reference Energy          =    -603.1258728280270134 [Eh]
	 Singles Energy            =      -0.0000000000000000 [Eh]
	 Same-Spin Energy          =      -0.6203206901014604 [Eh]
	 Opposite-Spin Energy      =      -1.9538311116752962 [Eh]
	 Correlation Energy        =      -2.5741518017767566 [Eh]
	 Total Energy              =    -605.7000246298038064 [Eh]

	 ================> DF-SCS-MP2 Energies <==================
	-----------------------------------------------------------
	 SCS Same-Spin Scale       =       0.3333333333333333 [-]
	 SCS Opposite-Spin Scale   =       1.2000000000000000 [-]
	 SCS Same-Spin Energy      =      -0.2067735633671535 [Eh]
	 SCS Opposite-Spin Energy  =      -2.3445973340103552 [Eh]
	 SCS Correlation Energy    =      -2.5513708973775087 [Eh]
	 SCS Total Energy          =    -605.6772437254045371 [Eh]
	-----------------------------------------------------------

  Dipole Moment: [D]
     X:     3.4009      Y:     0.2726      Z:     0.3629     Total:     3.4310

*** Psi4 exiting successfully. Buy a developer a beer!
