                               Psi4 1.3.2 release

  ==> Input File <==

--------------------------------------------------------------------------
#psi4
#
memory 32 gb

molecule  {
0 1
  O       -2.2266400     1.8867650    -0.0032170
  O       -3.7615920     0.4694410    -0.8736430
  N       -2.7859400    -1.6499310     0.5252010
  N        1.9794570     0.3457110    -0.2591130
  N        3.8978530     1.3104060     0.6447910
  N        4.0160410    -0.8946960    -0.1223760
  C       -0.6937690    -0.3717720     0.7299070
  C       -0.1993830    -0.6671070    -0.6806480
  C       -2.2227870    -0.3377670     0.8339710
  C        1.3098450    -0.8661090    -0.7166530
  C       -2.8261080     0.6730930    -0.1173080
  C        3.2319800     0.2459460     0.0175660
  H       -0.2748670     0.5765650     1.0765220
  H       -0.3365530    -1.1529370     1.4152070
  H       -0.7054620    -1.5600450    -1.0625750
  H       -0.4516800     0.1714660    -1.3406670
  H       -2.4873830     0.0287790     1.8430020
  H        1.5813230    -1.7317920    -0.0895090
  H        1.6134840    -1.1144100    -1.7484380
  H       -3.7640510    -1.5477110     0.2601170
  H       -2.7467370    -2.2384130     1.3547150
  H       -2.6964570     2.4686380    -0.6361950
  H        3.1995573     2.1782824     0.7183338
  H        4.7565350     1.5848730     0.1747350
  H        5.0073770    -0.7866830     0.0488590
  H        3.7976690    -1.4866510    -0.9131750
units angstrom
no_reorient  #important for SAPT in psi4, default
symmetry c1  #important for SAPT in psi4, default
}

set PROPERTIES_ORIGIN ["COM"]
properties('MP2/aug-cc-pvtz', properties = ['dipole'])
--------------------------------------------------------------------------

    Molecular point group: c1
  Charge       = 0
  Multiplicity = 1
  Basis Set: AUG-CC-PVTZ
    Blend: AUG-CC-PVTZ
  Basis Set: (AUG-CC-PVTZ AUX)
    Blend: AUG-CC-PVTZ-JKFIT

    Orbital Energies [Eh]
    ---------------------

    Doubly Occupied:

       1A    -20.609905     2A    -20.547066     3A    -15.583679
       4A    -15.580042     5A    -15.539465     6A    -15.514779
       7A    -11.382359     8A    -11.341363     9A    -11.270794
      10A    -11.238085    11A    -11.212408    12A    -11.201597
      13A     -1.455531    14A     -1.352263    15A     -1.292462
      16A     -1.189387    17A     -1.161197    18A     -1.153541
      19A     -1.046614    20A     -0.973831    21A     -0.892057
      22A     -0.819755    23A     -0.780952    24A     -0.763704
      25A     -0.716888    26A     -0.702355    27A     -0.698873
      28A     -0.687974    29A     -0.655728    30A     -0.633493
      31A     -0.624608    32A     -0.617679    33A     -0.604128
      34A     -0.590376    35A     -0.568907    36A     -0.549235
      37A     -0.540732    38A     -0.520408    39A     -0.491425
      40A     -0.477115    41A     -0.469627    42A     -0.467579
      43A     -0.440268    44A     -0.437294    45A     -0.397513
      46A     -0.390833    47A     -0.346311

  @DF-RHF Final Energy:  -603.11595388730393

   => Energetics <=

    Nuclear Repulsion Energy =            725.3022193968732836
    One-Electron Energy =               -2263.7719718686294073
    Two-Electron Energy =                 935.3537985844523064
    Total Energy =                       -603.1159538873039310
  Basis Set: (AUG-CC-PVTZ AUX)
    Blend: AUG-CC-PVTZ-RI
    Molecular point group: c1

    Geometry (in Angstrom), charge = 0, multiplicity = 1:

       Center              X                  Y                   Z               Mass
    ------------   -----------------  -----------------  -----------------  -----------------
         O           -2.189222865260     1.859686182955     0.002941509132    15.994914619570
         O           -3.724174865260     0.442362182955    -0.867484490868    15.994914619570
         N           -2.748522865260    -1.677009817045     0.531359509132    14.003074004430
         N            2.016874134740     0.318632182955    -0.252954490868    14.003074004430
         N            3.935270134740     1.283327182955     0.650949509132    14.003074004430
         N            4.053458134740    -0.921774817045    -0.116217490868    14.003074004430
         C           -0.656351865260    -0.398850817045     0.736065509132    12.000000000000
         C           -0.161965865260    -0.694185817045    -0.674489490868    12.000000000000
         C           -2.185369865260    -0.364845817045     0.840129509132    12.000000000000
         C            1.347262134740    -0.893187817045    -0.710494490868    12.000000000000
         C           -2.788690865260     0.646014182955    -0.111149490868    12.000000000000
         C            3.269397134740     0.218867182955     0.023724509132    12.000000000000
         H           -0.237449865260     0.549486182955     1.082680509132     1.007825032230
         H           -0.299135865260    -1.180015817045     1.421365509132     1.007825032230
         H           -0.668044865260    -1.587123817045    -1.056416490868     1.007825032230
         H           -0.414262865260     0.144387182955    -1.334508490868     1.007825032230
         H           -2.449965865260     0.001700182955     1.849160509132     1.007825032230
         H            1.618740134740    -1.758870817045    -0.083350490868     1.007825032230
         H            1.650901134740    -1.141488817045    -1.742279490868     1.007825032230
         H           -3.726633865260    -1.574789817045     0.266275509132     1.007825032230
         H           -2.709319865260    -2.265491817045     1.360873509132     1.007825032230
         H           -2.659039865260     2.441559182955    -0.630036490868     1.007825032230
         H            3.236974434740     2.151203582955     0.724492309132     1.007825032230
         H            4.793952134740     1.557794182955     0.180893509132     1.007825032230
         H            5.044794134740    -0.813761817045     0.055017509132     1.007825032230
         H            3.835086134740    -1.513729817045    -0.907016490868     1.007825032230

  Basis Set: AUG-CC-PVTZ
    Blend: AUG-CC-PVTZ
  Basis Set: (AUG-CC-PVTZ AUX)
    Blend: AUG-CC-PVTZ-JKFIT
	 Reference Energy          =    -603.1159538873039310 [Eh]
	 Singles Energy            =      -0.0000000000000000 [Eh]
	 Same-Spin Energy          =      -0.6209009024019337 [Eh]
	 Opposite-Spin Energy      =      -1.9556482189664837 [Eh]
	 Correlation Energy        =      -2.5765491213684175 [Eh]
	 Total Energy              =    -605.6925030086723609 [Eh]

	 ================> DF-SCS-MP2 Energies <==================
	-----------------------------------------------------------
	 SCS Same-Spin Scale       =       0.3333333333333333 [-]
	 SCS Opposite-Spin Scale   =       1.2000000000000000 [-]
	 SCS Same-Spin Energy      =      -0.2069669674673112 [Eh]
	 SCS Opposite-Spin Energy  =      -2.3467778627597804 [Eh]
	 SCS Correlation Energy    =      -2.5537448302270915 [Eh]
	 SCS Total Energy          =    -605.6696987175309914 [Eh]
	-----------------------------------------------------------

  Dipole Moment: [D]
     X:     3.3695      Y:     0.3355      Z:     0.3547     Total:     3.4047

*** Psi4 exiting successfully. Buy a developer a beer!
