                               Psi4 1.3.2 release

  ==> Input File <==

--------------------------------------------------------------------------
#psi4
#
memory 32 gb

molecule  {
0 1
  O       -2.2266400     1.8867650    -0.0032170
  O       -3.7615920     0.4694410    -0.8736430
  N       -2.7859400    -1.6499310     0.5252010
  N        1.9794570     0.3457110    -0.2591130
  N        3.8978530     1.3104060     0.6447910
  N        4.0160410    -0.8946960    -0.1223760
  C       -0.6937690    -0.3717720     0.7299070
  C       -0.3527262    -0.6747581    -0.7237762
  C       -2.2227870    -0.3377670     0.8339710
  C        1.3098450    -0.8661090    -0.7166530
  C       -2.8261080     0.6730930    -0.1173080
  C        3.2319800     0.2459460     0.0175660
  H       -0.2748670     0.5765650     1.0765220
  H       -0.3365530    -1.1529370     1.4152070
  H       -0.7054620    -1.5600450    -1.0625750
  H       -0.4516800     0.1714660    -1.3406670
  H       -2.4873830     0.0287790     1.8430020
  H        1.5813230    -1.7317920    -0.0895090
  H        1.6134840    -1.1144100    -1.7484380
  H       -3.7640510    -1.5477110     0.2601170
  H       -2.7467370    -2.2384130     1.3547150
  H       -2.6964570     2.4686380    -0.6361950
  H        3.2621090     2.1005400     0.7117460
  H        4.7565350     1.5848730     0.1747350
  H        5.0073770    -0.7866830     0.0488590
  H        3.7976690    -1.4866510    -0.9131750
units angstrom
no_reorient  #important for SAPT in psi4, default
symmetry c1  #important for SAPT in psi4, default
}

set PROPERTIES_ORIGIN ["COM"]
properties('MP2/aug-cc-pvtz', properties = ['dipole'])
--------------------------------------------------------------------------

    Molecular point group: c1
  Charge       = 0
  Multiplicity = 1
  Basis Set: AUG-CC-PVTZ
    Blend: AUG-CC-PVTZ
  Basis Set: (AUG-CC-PVTZ AUX)
    Blend: AUG-CC-PVTZ-JKFIT

    Orbital Energies [Eh]
    ---------------------

    Doubly Occupied:

       1A    -20.609730     2A    -20.546644     3A    -15.582720
       4A    -15.571291     5A    -15.538996     6A    -15.516092
       7A    -11.381793     8A    -11.341324     9A    -11.267843
      10A    -11.242327    11A    -11.214141    12A    -11.200123
      13A     -1.455294    14A     -1.351962    15A     -1.294421
      16A     -1.189436    17A     -1.167037    18A     -1.153387
      19A     -1.044837    20A     -0.963375    21A     -0.887739
      22A     -0.830279    23A     -0.782596    24A     -0.769260
      25A     -0.717691    26A     -0.702326    27A     -0.698933
      28A     -0.690295    29A     -0.654920    30A     -0.640038
      31A     -0.632795    32A     -0.617537    33A     -0.603833
      34A     -0.589159    35A     -0.570119    36A     -0.556977
      37A     -0.544102    38A     -0.522063    39A     -0.497657
      40A     -0.485862    41A     -0.475108    42A     -0.452879
      43A     -0.442204    44A     -0.431062    45A     -0.394638
      46A     -0.382068    47A     -0.344780

  @DF-RHF Final Energy:  -603.10361883131372

   => Energetics <=

    Nuclear Repulsion Energy =            725.0008604027475485
    One-Electron Energy =               -2263.1095710054755727
    Two-Electron Energy =                 935.0050917714142997
    Total Energy =                       -603.1036188313137245
  Basis Set: (AUG-CC-PVTZ AUX)
    Blend: AUG-CC-PVTZ-RI
    Molecular point group: c1

    Geometry (in Angstrom), charge = 0, multiplicity = 1:

       Center              X                  Y                   Z               Mass
    ------------   -----------------  -----------------  -----------------  -----------------
         O           -2.179016328428     1.860663509353     0.005952092699    15.994914619570
         O           -3.713968328428     0.443339509353    -0.864473907301    15.994914619570
         N           -2.738316328428    -1.676032490647     0.534370092699    14.003074004430
         N            2.027080671572     0.319609509353    -0.249943907301    14.003074004430
         N            3.945476671572     1.284304509353     0.653960092699    14.003074004430
         N            4.063664671572    -0.920797490647    -0.113206907301    14.003074004430
         C           -0.646145328428    -0.397873490647     0.739076092699    12.000000000000
         C           -0.305102528428    -0.700859590647    -0.714607107301    12.000000000000
         C           -2.175163328428    -0.363868490647     0.843140092699    12.000000000000
         C            1.357468671572    -0.892210490647    -0.707483907301    12.000000000000
         C           -2.778484328428     0.646991509353    -0.108138907301    12.000000000000
         C            3.279603671572     0.219844509353     0.026735092699    12.000000000000
         H           -0.227243328428     0.550463509353     1.085691092699     1.007825032230
         H           -0.288929328428    -1.179038490647     1.424376092699     1.007825032230
         H           -0.657838328428    -1.586146490647    -1.053405907301     1.007825032230
         H           -0.404056328428     0.145364509353    -1.331497907301     1.007825032230
         H           -2.439759328428     0.002677509353     1.852171092699     1.007825032230
         H            1.628946671572    -1.757893490647    -0.080339907301     1.007825032230
         H            1.661107671572    -1.140511490647    -1.739268907301     1.007825032230
         H           -3.716427328428    -1.573812490647     0.269286092699     1.007825032230
         H           -2.699113328428    -2.264514490647     1.363884092699     1.007825032230
         H           -2.648833328428     2.442536509353    -0.627025907301     1.007825032230
         H            3.309732671572     2.074438509353     0.720915092699     1.007825032230
         H            4.804158671572     1.558771509353     0.183904092699     1.007825032230
         H            5.055000671572    -0.812784490647     0.058028092699     1.007825032230
         H            3.845292671572    -1.512752490647    -0.904005907301     1.007825032230

  Basis Set: AUG-CC-PVTZ
    Blend: AUG-CC-PVTZ
  Basis Set: (AUG-CC-PVTZ AUX)
    Blend: AUG-CC-PVTZ-JKFIT
	 Reference Energy          =    -603.1036188313137245 [Eh]
	 Singles Energy            =      -0.0000000000000000 [Eh]
	 Same-Spin Energy          =      -0.6207058829663411 [Eh]
	 Opposite-Spin Energy      =      -1.9553283161111497 [Eh]
	 Correlation Energy        =      -2.5760341990774909 [Eh]
	 Total Energy              =    -605.6796530303912505 [Eh]

	 ================> DF-SCS-MP2 Energies <==================
	-----------------------------------------------------------
	 SCS Same-Spin Scale       =       0.3333333333333333 [-]
	 SCS Opposite-Spin Scale   =       1.2000000000000000 [-]
	 SCS Same-Spin Energy      =      -0.2069019609887804 [Eh]
	 SCS Opposite-Spin Energy  =      -2.3463939793333797 [Eh]
	 SCS Correlation Energy    =      -2.5532959403221600 [Eh]
	 SCS Total Energy          =    -605.6569147716359112 [Eh]
	-----------------------------------------------------------

  Dipole Moment: [D]
     X:     3.4425      Y:     0.2848      Z:     0.3357     Total:     3.4706

*** Psi4 exiting successfully. Buy a developer a beer!
