                               Psi4 1.3.2 release

  ==> Input File <==

--------------------------------------------------------------------------
#psi4
#
memory 32 gb

molecule  {
0 1
  O       -2.2266400     1.8867650    -0.0032170
  O       -3.7615920     0.4694410    -0.8736430
  N       -2.7859400    -1.6499310     0.5252010
  N        1.9338579     0.3672877    -0.2523565
  N        3.8978530     1.3104060     0.6447910
  N        4.0160410    -0.8946960    -0.1223760
  C       -0.6937690    -0.3717720     0.7299070
  C       -0.1993830    -0.6671070    -0.6806480
  C       -2.2227870    -0.3377670     0.8339710
  C        1.3098450    -0.8661090    -0.7166530
  C       -2.8261080     0.6730930    -0.1173080
  C        3.2319800     0.2459460     0.0175660
  H       -0.2748670     0.5765650     1.0765220
  H       -0.3365530    -1.1529370     1.4152070
  H       -0.7054620    -1.5600450    -1.0625750
  H       -0.4516800     0.1714660    -1.3406670
  H       -2.4873830     0.0287790     1.8430020
  H        1.5813230    -1.7317920    -0.0895090
  H        1.6134840    -1.1144100    -1.7484380
  H       -3.7640510    -1.5477110     0.2601170
  H       -2.7467370    -2.2384130     1.3547150
  H       -2.6964570     2.4686380    -0.6361950
  H        3.2621090     2.1005400     0.7117460
  H        4.7565350     1.5848730     0.1747350
  H        5.0073770    -0.7866830     0.0488590
  H        3.7976690    -1.4866510    -0.9131750
units angstrom
no_reorient  #important for SAPT in psi4, default
symmetry c1  #important for SAPT in psi4, default
}

set PROPERTIES_ORIGIN ["COM"]
properties('MP2/aug-cc-pvtz', properties = ['dipole'])
--------------------------------------------------------------------------

    Molecular point group: c1
  Charge       = 0
  Multiplicity = 1
  Basis Set: AUG-CC-PVTZ
    Blend: AUG-CC-PVTZ
  Basis Set: (AUG-CC-PVTZ AUX)
    Blend: AUG-CC-PVTZ-JKFIT

    Orbital Energies [Eh]
    ---------------------

    Doubly Occupied:

       1A    -20.608628     2A    -20.545849     3A    -15.589869
       4A    -15.575545     5A    -15.538198     6A    -15.520000
       7A    -11.381114     8A    -11.350912     9A    -11.269347
      10A    -11.235304    11A    -11.210399    12A    -11.199013
      13A     -1.454272    14A     -1.351037    15A     -1.292383
      16A     -1.188070    17A     -1.171350    18A     -1.152163
      19A     -1.042754    20A     -0.970055    21A     -0.888934
      22A     -0.820680    23A     -0.786270    24A     -0.763275
      25A     -0.723304    26A     -0.702704    27A     -0.699922
      28A     -0.688999    29A     -0.654777    30A     -0.637646
      31A     -0.630383    32A     -0.616475    33A     -0.605643
      34A     -0.591059    35A     -0.567820    36A     -0.549608
      37A     -0.537741    38A     -0.519967    39A     -0.489438
      40A     -0.475894    41A     -0.467921    42A     -0.464553
      43A     -0.439630    44A     -0.438658    45A     -0.401927
      46A     -0.390612    47A     -0.340502

  @DF-RHF Final Energy:  -603.11909640071724

   => Energetics <=

    Nuclear Repulsion Energy =            725.2784255394120692
    One-Electron Energy =               -2263.7138332487752450
    Two-Electron Energy =                 935.3163113086458225
    Total Energy =                       -603.1190964007172397
  Basis Set: (AUG-CC-PVTZ AUX)
    Blend: AUG-CC-PVTZ-RI
    Molecular point group: c1

    Geometry (in Angstrom), charge = 0, multiplicity = 1:

       Center              X                  Y                   Z               Mass
    ------------   -----------------  -----------------  -----------------  -----------------
         O           -2.185917593512     1.858400861973     0.002436244798    15.994914619570
         O           -3.720869593512     0.441076861973    -0.867989755202    15.994914619570
         N           -2.745217593512    -1.678295138027     0.530854244798    14.003074004430
         N            1.974580306488     0.338923561973    -0.246703255202    14.003074004430
         N            3.938575406488     1.282041861973     0.650444244798    14.003074004430
         N            4.056763406488    -0.923060138027    -0.116722755202    14.003074004430
         C           -0.653046593512    -0.400136138027     0.735560244798    12.000000000000
         C           -0.158660593512    -0.695471138027    -0.674994755202    12.000000000000
         C           -2.182064593512    -0.366131138027     0.839624244798    12.000000000000
         C            1.350567406488    -0.894473138027    -0.710999755202    12.000000000000
         C           -2.785385593512     0.644728861973    -0.111654755202    12.000000000000
         C            3.272702406488     0.217581861973     0.023219244798    12.000000000000
         H           -0.234144593512     0.548200861973     1.082175244798     1.007825032230
         H           -0.295830593512    -1.181301138027     1.420860244798     1.007825032230
         H           -0.664739593512    -1.588409138027    -1.056921755202     1.007825032230
         H           -0.410957593512     0.143101861973    -1.335013755202     1.007825032230
         H           -2.446660593512     0.000414861973     1.848655244798     1.007825032230
         H            1.622045406488    -1.760156138027    -0.083855755202     1.007825032230
         H            1.654206406488    -1.142774138027    -1.742784755202     1.007825032230
         H           -3.723328593512    -1.576075138027     0.265770244798     1.007825032230
         H           -2.706014593512    -2.266777138027     1.360368244798     1.007825032230
         H           -2.655734593512     2.440273861973    -0.630541755202     1.007825032230
         H            3.302831406488     2.072175861973     0.717399244798     1.007825032230
         H            4.797257406488     1.556508861973     0.180388244798     1.007825032230
         H            5.048099406488    -0.815047138027     0.054512244798     1.007825032230
         H            3.838391406488    -1.515015138027    -0.907521755202     1.007825032230

  Basis Set: AUG-CC-PVTZ
    Blend: AUG-CC-PVTZ
  Basis Set: (AUG-CC-PVTZ AUX)
    Blend: AUG-CC-PVTZ-JKFIT
	 Reference Energy          =    -603.1190964007172397 [Eh]
	 Singles Energy            =      -0.0000000000000000 [Eh]
	 Same-Spin Energy          =      -0.6213180872719281 [Eh]
	 Opposite-Spin Energy      =      -1.9560478552209977 [Eh]
	 Correlation Energy        =      -2.5773659424929258 [Eh]
	 Total Energy              =    -605.6964623432102144 [Eh]

	 ================> DF-SCS-MP2 Energies <==================
	-----------------------------------------------------------
	 SCS Same-Spin Scale       =       0.3333333333333333 [-]
	 SCS Opposite-Spin Scale   =       1.2000000000000000 [-]
	 SCS Same-Spin Energy      =      -0.2071060290906427 [Eh]
	 SCS Opposite-Spin Energy  =      -2.3472574262651973 [Eh]
	 SCS Correlation Energy    =      -2.5543634553558401 [Eh]
	 SCS Total Energy          =    -605.6734598560731229 [Eh]
	-----------------------------------------------------------

  Dipole Moment: [D]
     X:     3.6820      Y:     0.2641      Z:     0.3728     Total:     3.7102

*** Psi4 exiting successfully. Buy a developer a beer!
