                               Psi4 1.4a3.dev225

  ==> Input File <==

--------------------------------------------------------------------------
#psi4
#
memory 32 gb

molecule  {
0 1
  O       -2.2193770     1.8892330     0.0268230
  O       -3.7558620     0.4909310    -0.8718590
  N       -2.7972650    -1.6524490     0.5031070
  N        1.9782870     0.3250840    -0.2428510
  N        3.8986140     1.3191370     0.6232000
  N        4.0945810    -0.8301440    -0.2248910
  C       -0.6989470    -0.3870780     0.7275970
  C       -0.2062790    -0.6613260    -0.6876040
  C       -2.2281040    -0.3472380     0.8304820
  C        1.3017160    -0.8701890    -0.7302520
  C       -2.8235710     0.6804660    -0.1079880
  C        3.2335740     0.2410780     0.0212990
  H       -0.2749720     0.5529910     1.0902940
  H       -0.3479120    -1.1823300     1.4000480
  H       -0.7189380    -1.5432990    -1.0858630
  H       -0.4507980     0.1909300    -1.3325750
  H       -2.4926300     0.0060750     1.8439900
  H        1.5489680    -1.7592400    -0.1213590
  H        1.6102530    -1.0961940    -1.7629760
  H       -3.7667330    -1.5380950     0.2123320
  H       -2.7872020    -2.2442710     1.3309830
  H       -2.6822190     2.4830960    -0.6002000
  H        3.3077753     2.0830511     0.6487021
  H        4.7687340     1.5514780     0.1515250
  H        4.8021180    -0.9483820     0.4927870
  H        3.6261930    -1.7023420    -0.4398710
units angstrom
no_reorient  #important for SAPT in psi4, default
symmetry c1  #important for SAPT in psi4, default
}

set PROPERTIES_ORIGIN ["COM"]
properties('MP2/aug-cc-pvtz', properties = ['dipole'])
--------------------------------------------------------------------------

    Molecular point group: c1
  Charge       = 0
  Multiplicity = 1
  Basis Set: AUG-CC-PVTZ
    Blend: AUG-CC-PVTZ
  Basis Set: (AUG-CC-PVTZ AUX)
    Blend: AUG-CC-PVTZ-JKFIT

    Orbital Energies [Eh]
    ---------------------

    Doubly Occupied:

       1A    -20.611511     2A    -20.548831     3A    -15.582533
       4A    -15.564826     5A    -15.541316     6A    -15.518633
       7A    -11.384161     8A    -11.341804     9A    -11.272935
      10A    -11.243562    11A    -11.215170    12A    -11.204585
      13A     -1.457254    14A     -1.354079    15A     -1.297522
      16A     -1.191371    17A     -1.171690    18A     -1.161008
      19A     -1.049829    20A     -0.977118    21A     -0.895602
      22A     -0.824559    23A     -0.786991    24A     -0.767151
      25A     -0.717646    26A     -0.704981    27A     -0.702898
      28A     -0.692717    29A     -0.657627    30A     -0.638914
      31A     -0.625054    32A     -0.619204    33A     -0.610938
      34A     -0.598555    35A     -0.573063    36A     -0.557677
      37A     -0.543706    38A     -0.526477    39A     -0.493598
      40A     -0.478996    41A     -0.473553    42A     -0.470063
      43A     -0.442252    44A     -0.437201    45A     -0.400333
      46A     -0.392894    47A     -0.351515

  @DF-RHF Final Energy:  -603.12760831449884

   => Energetics <=

    Nuclear Repulsion Energy =            725.6220888164280041
    One-Electron Energy =               -2264.1515911394080831
    Two-Electron Energy =                 935.4018940084812357
    Total Energy =                       -603.1276083144988434
  Basis Set: (AUG-CC-PVTZ AUX)
    Blend: AUG-CC-PVTZ-RI
    Molecular point group: c1

    Geometry (in Angstrom), charge = 0, multiplicity = 1:

       Center              X                  Y                   Z               Mass
    ------------   -----------------  -----------------  -----------------  -----------------
         O           -2.185025630958     1.860444079883     0.037217572355    15.994914619570
         O           -3.721510630958     0.462142079883    -0.861464427645    15.994914619570
         N           -2.762913630958    -1.681237920117     0.513501572355    14.003074004430
         N            2.012638369042     0.296295079883    -0.232456427645    14.003074004430
         N            3.932965369042     1.290348079883     0.633594572355    14.003074004430
         N            4.128932369042    -0.858932920117    -0.214496427645    14.003074004430
         C           -0.664595630958    -0.415866920117     0.737991572355    12.000000000000
         C           -0.171927630958    -0.690114920117    -0.677209427645    12.000000000000
         C           -2.193752630958    -0.376026920117     0.840876572355    12.000000000000
         C            1.336067369042    -0.898977920117    -0.719857427645    12.000000000000
         C           -2.789219630958     0.651677079883    -0.097593427645    12.000000000000
         C            3.267925369042     0.212289079883     0.031693572355    12.000000000000
         H           -0.240620630958     0.524202079883     1.100688572355     1.007825032230
         H           -0.313560630958    -1.211118920117     1.410442572355     1.007825032230
         H           -0.684586630958    -1.572087920117    -1.075468427645     1.007825032230
         H           -0.416446630958     0.162141079883    -1.322180427645     1.007825032230
         H           -2.458278630958    -0.022713920117     1.854384572355     1.007825032230
         H            1.583319369042    -1.788028920117    -0.110964427645     1.007825032230
         H            1.644604369042    -1.124982920117    -1.752581427645     1.007825032230
         H           -3.732381630958    -1.566883920117     0.222726572355     1.007825032230
         H           -2.752850630958    -2.273059920117     1.341377572355     1.007825032230
         H           -2.647867630958     2.454307079883    -0.589805427645     1.007825032230
         H            3.342126669042     2.054262179883     0.659096672355     1.007825032230
         H            4.803085369042     1.522689079883     0.161919572355     1.007825032230
         H            4.836469369042    -0.977170920117     0.503181572355     1.007825032230
         H            3.660544369042    -1.731130920117    -0.429476427645     1.007825032230

  Basis Set: AUG-CC-PVTZ
    Blend: AUG-CC-PVTZ
  Basis Set: (AUG-CC-PVTZ AUX)
    Blend: AUG-CC-PVTZ-JKFIT
	 Reference Energy          =    -603.1276083144988434 [Eh]
	 Singles Energy            =      -0.0000000000000000 [Eh]
	 Same-Spin Energy          =      -0.6198218842810496 [Eh]
	 Opposite-Spin Energy      =      -1.9529778491344465 [Eh]
	 Correlation Energy        =      -2.5727997334154962 [Eh]
	 Total Energy              =    -605.7004080479143795 [Eh]

	 ================> DF-SCS-MP2 Energies <==================
	-----------------------------------------------------------
	 SCS Same-Spin Scale       =       0.3333333333333333 [-]
	 SCS Opposite-Spin Scale   =       1.2000000000000000 [-]
	 SCS Same-Spin Energy      =      -0.2066072947603498 [Eh]
	 SCS Opposite-Spin Energy  =      -2.3435734189613355 [Eh]
	 SCS Correlation Energy    =      -2.5501807137216854 [Eh]
	 SCS Total Energy          =    -605.6777890282205590 [Eh]
	-----------------------------------------------------------

  Dipole Moment: [D]
     X:     2.5361      Y:    -0.3222      Z:     1.6801     Total:     3.0592

*** Psi4 exiting successfully. Buy a developer a beer!
