                               Psi4 1.3.2 release

  ==> Input File <==

--------------------------------------------------------------------------
#psi4
#
memory 32 gb

molecule  {
0 1
  O       -2.2266400     1.8867650    -0.0032170
  O       -3.7615920     0.4694410    -0.8736430
  N       -2.7859400    -1.6499310     0.5252010
  N        1.9794570     0.3457110    -0.2591130
  N        3.8978530     1.3104060     0.6447910
  N        4.0160410    -0.8946960    -0.1223760
  C       -0.6937690    -0.3717720     0.7299070
  C       -0.1993830    -0.6671070    -0.6806480
  C       -2.2227870    -0.3377670     0.8339710
  C        1.3098450    -0.8661090    -0.7166530
  C       -2.8261080     0.6730930    -0.1173080
  C        3.2319800     0.2459460     0.0175660
  H       -0.2748670     0.5765650     1.0765220
  H       -0.3365530    -1.1529370     1.4152070
  H       -0.7054620    -1.5600450    -1.0625750
  H       -0.4516800     0.1714660    -1.3406670
  H       -2.4873830     0.0287790     1.8430020
  H        1.5813230    -1.7317920    -0.0895090
  H        1.6134840    -1.1144100    -1.7484380
  H       -3.7640510    -1.5477110     0.2601170
  H       -2.7467370    -2.2384130     1.3547150
  H       -2.6964570     2.4686380    -0.6361950
  H        3.3110424     2.1395577     0.6783448
  H        4.7565350     1.5848730     0.1747350
  H        5.0073770    -0.7866830     0.0488590
  H        3.7976690    -1.4866510    -0.9131750
units angstrom
no_reorient  #important for SAPT in psi4, default
symmetry c1  #important for SAPT in psi4, default
}

set PROPERTIES_ORIGIN ["COM"]
properties('MP2/aug-cc-pvtz', properties = ['dipole'])
--------------------------------------------------------------------------

    Molecular point group: c1
  Charge       = 0
  Multiplicity = 1
  Basis Set: AUG-CC-PVTZ
    Blend: AUG-CC-PVTZ
  Basis Set: (AUG-CC-PVTZ AUX)
    Blend: AUG-CC-PVTZ-JKFIT

    Orbital Energies [Eh]
    ---------------------

    Doubly Occupied:

       1A    -20.609702     2A    -20.546921     3A    -15.583799
       4A    -15.572167     5A    -15.539363     6A    -15.515323
       7A    -11.382206     8A    -11.342237     9A    -11.270655
      10A    -11.238371    11A    -11.212245    12A    -11.201598
      13A     -1.455351    14A     -1.352101    15A     -1.295248
      16A     -1.189291    17A     -1.168097    18A     -1.158059
      19A     -1.046873    20A     -0.974205    21A     -0.892719
      22A     -0.822501    23A     -0.785282    24A     -0.764761
      25A     -0.719666    26A     -0.702220    27A     -0.699046
      28A     -0.688217    29A     -0.655667    30A     -0.635427
      31A     -0.632623    32A     -0.617605    33A     -0.608534
      34A     -0.593049    35A     -0.569318    36A     -0.551212
      37A     -0.541276    38A     -0.521760    39A     -0.491423
      40A     -0.477063    41A     -0.469867    42A     -0.467593
      43A     -0.440143    44A     -0.438965    45A     -0.397781
      46A     -0.390901    47A     -0.346983

  @DF-RHF Final Energy:  -603.12565572270614

   => Energetics <=

    Nuclear Repulsion Energy =            725.6405537809803263
    One-Electron Energy =               -2264.3815919555054279
    Two-Electron Energy =                 935.6153824518189595
    Total Energy =                       -603.1256557227061421
  Basis Set: (AUG-CC-PVTZ AUX)
    Blend: AUG-CC-PVTZ-RI
    Molecular point group: c1

    Geometry (in Angstrom), charge = 0, multiplicity = 1:

       Center              X                  Y                   Z               Mass
    ------------   -----------------  -----------------  -----------------  -----------------
         O           -2.189868183697     1.859910336344     0.003172980772    15.994914619570
         O           -3.724820183697     0.442586336344    -0.867253019228    15.994914619570
         N           -2.749168183697    -1.676785663656     0.531590980772    14.003074004430
         N            2.016228816303     0.318856336344    -0.252723019228    14.003074004430
         N            3.934624816303     1.283551336344     0.651180980772    14.003074004430
         N            4.052812816303    -0.921550663656    -0.115986019228    14.003074004430
         C           -0.656997183697    -0.398626663656     0.736296980772    12.000000000000
         C           -0.162611183697    -0.693961663656    -0.674258019228    12.000000000000
         C           -2.186015183697    -0.364621663656     0.840360980772    12.000000000000
         C            1.346616816303    -0.892963663656    -0.710263019228    12.000000000000
         C           -2.789336183697     0.646238336344    -0.110918019228    12.000000000000
         C            3.268751816303     0.219091336344     0.023955980772    12.000000000000
         H           -0.238095183697     0.549710336344     1.082911980772     1.007825032230
         H           -0.299781183697    -1.179791663656     1.421596980772     1.007825032230
         H           -0.668690183697    -1.586899663656    -1.056185019228     1.007825032230
         H           -0.414908183697     0.144611336344    -1.334277019228     1.007825032230
         H           -2.450611183697     0.001924336344     1.849391980772     1.007825032230
         H            1.618094816303    -1.758646663656    -0.083119019228     1.007825032230
         H            1.650255816303    -1.141264663656    -1.742048019228     1.007825032230
         H           -3.727279183697    -1.574565663656     0.266506980772     1.007825032230
         H           -2.709965183697    -2.265267663656     1.361104980772     1.007825032230
         H           -2.659685183697     2.441783336344    -0.629805019228     1.007825032230
         H            3.347814216303     2.112703036344     0.684734780772     1.007825032230
         H            4.793306816303     1.558018336344     0.181124980772     1.007825032230
         H            5.044148816303    -0.813537663656     0.055248980772     1.007825032230
         H            3.834440816303    -1.513505663656    -0.906785019228     1.007825032230

  Basis Set: AUG-CC-PVTZ
    Blend: AUG-CC-PVTZ
  Basis Set: (AUG-CC-PVTZ AUX)
    Blend: AUG-CC-PVTZ-JKFIT
	 Reference Energy          =    -603.1256557227061421 [Eh]
	 Singles Energy            =      -0.0000000000000000 [Eh]
	 Same-Spin Energy          =      -0.6202216282911814 [Eh]
	 Opposite-Spin Energy      =      -1.9537918020828369 [Eh]
	 Correlation Energy        =      -2.5740134303740181 [Eh]
	 Total Energy              =    -605.6996691530802082 [Eh]

	 ================> DF-SCS-MP2 Energies <==================
	-----------------------------------------------------------
	 SCS Same-Spin Scale       =       0.3333333333333333 [-]
	 SCS Opposite-Spin Scale   =       1.2000000000000000 [-]
	 SCS Same-Spin Energy      =      -0.2067405427637271 [Eh]
	 SCS Opposite-Spin Energy  =      -2.3445501624994041 [Eh]
	 SCS Correlation Energy    =      -2.5512907052631313 [Eh]
	 SCS Total Energy          =    -605.6769464279692556 [Eh]
	-----------------------------------------------------------

  Dipole Moment: [D]
     X:     3.4487      Y:     0.3159      Z:     0.3026     Total:     3.4763

*** Psi4 exiting successfully. Buy a developer a beer!
