                               Psi4 1.3.2 release

  ==> Input File <==

--------------------------------------------------------------------------
#psi4
#
memory 32 gb

molecule  {
0 1
  O       -2.2266400     1.8867650    -0.0032170
  O       -3.7615920     0.4694410    -0.8736430
  N       -2.7859400    -1.6499310     0.5252010
  N        1.9794570     0.3457110    -0.2591130
  N        3.8572112     1.3373797     0.6402469
  N        4.0160410    -0.8946960    -0.1223760
  C       -0.6937690    -0.3717720     0.7299070
  C       -0.1993830    -0.6671070    -0.6806480
  C       -2.2227870    -0.3377670     0.8339710
  C        1.3098450    -0.8661090    -0.7166530
  C       -2.8261080     0.6730930    -0.1173080
  C        3.2319800     0.2459460     0.0175660
  H       -0.2748670     0.5765650     1.0765220
  H       -0.3365530    -1.1529370     1.4152070
  H       -0.7054620    -1.5600450    -1.0625750
  H       -0.4516800     0.1714660    -1.3406670
  H       -2.4873830     0.0287790     1.8430020
  H        1.5813230    -1.7317920    -0.0895090
  H        1.6134840    -1.1144100    -1.7484380
  H       -3.7640510    -1.5477110     0.2601170
  H       -2.7467370    -2.2384130     1.3547150
  H       -2.6964570     2.4686380    -0.6361950
  H        3.2621090     2.1005400     0.7117460
  H        4.7565350     1.5848730     0.1747350
  H        5.0073770    -0.7866830     0.0488590
  H        3.7976690    -1.4866510    -0.9131750
units angstrom
no_reorient  #important for SAPT in psi4, default
symmetry c1  #important for SAPT in psi4, default
}

set PROPERTIES_ORIGIN ["COM"]
properties('MP2/aug-cc-pvtz', properties = ['dipole'])
--------------------------------------------------------------------------

    Molecular point group: c1
  Charge       = 0
  Multiplicity = 1
  Basis Set: AUG-CC-PVTZ
    Blend: AUG-CC-PVTZ
  Basis Set: (AUG-CC-PVTZ AUX)
    Blend: AUG-CC-PVTZ-JKFIT

    Orbital Energies [Eh]
    ---------------------

    Doubly Occupied:

       1A    -20.609550     2A    -20.546764     3A    -15.585718
       4A    -15.569339     5A    -15.539212     6A    -15.513384
       7A    -11.382051     8A    -11.341459     9A    -11.270487
      10A    -11.237326    11A    -11.212030    12A    -11.201128
      13A     -1.455196    14A     -1.351946    15A     -1.295367
      16A     -1.189114    17A     -1.171689    18A     -1.155988
      19A     -1.046329    20A     -0.973648    21A     -0.892147
      22A     -0.822132    23A     -0.786768    24A     -0.765141
      25A     -0.721512    26A     -0.701919    27A     -0.698319
      28A     -0.687381    29A     -0.655646    30A     -0.647355
      31A     -0.631303    32A     -0.617420    33A     -0.607958
      34A     -0.593303    35A     -0.569136    36A     -0.551213
      37A     -0.540201    38A     -0.521246    39A     -0.490787
      40A     -0.476785    41A     -0.469304    42A     -0.467017
      43A     -0.439970    44A     -0.438317    45A     -0.397150
      46A     -0.390466    47A     -0.344979

  @DF-RHF Final Energy:  -603.12404108143824

   => Energetics <=

    Nuclear Repulsion Energy =            725.9939142997168346
    One-Electron Energy =               -2265.0907110304829075
    Two-Electron Energy =                 935.9727556493278371
    Total Energy =                       -603.1240410814382358
  Basis Set: (AUG-CC-PVTZ AUX)
    Blend: AUG-CC-PVTZ-RI
    Molecular point group: c1

    Geometry (in Angstrom), charge = 0, multiplicity = 1:

       Center              X                  Y                   Z               Mass
    ------------   -----------------  -----------------  -----------------  -----------------
         O           -2.186316288421     1.857966803831     0.003345104801    15.994914619570
         O           -3.721268288421     0.440642803831    -0.867080895199    15.994914619570
         N           -2.745616288421    -1.678729196169     0.531763104801    14.003074004430
         N            2.019780711579     0.316912803831    -0.252550895199    14.003074004430
         N            3.897534911579     1.308581503831     0.646809004801    14.003074004430
         N            4.056364711579    -0.923494196169    -0.115813895199    14.003074004430
         C           -0.653445288421    -0.400570196169     0.736469104801    12.000000000000
         C           -0.159059288421    -0.695905196169    -0.674085895199    12.000000000000
         C           -2.182463288421    -0.366565196169     0.840533104801    12.000000000000
         C            1.350168711579    -0.894907196169    -0.710090895199    12.000000000000
         C           -2.785784288421     0.644294803831    -0.110745895199    12.000000000000
         C            3.272303711579     0.217147803831     0.024128104801    12.000000000000
         H           -0.234543288421     0.547766803831     1.083084104801     1.007825032230
         H           -0.296229288421    -1.181735196169     1.421769104801     1.007825032230
         H           -0.665138288421    -1.588843196169    -1.056012895199     1.007825032230
         H           -0.411356288421     0.142667803831    -1.334104895199     1.007825032230
         H           -2.447059288421    -0.000019196169     1.849564104801     1.007825032230
         H            1.621646711579    -1.760590196169    -0.082946895199     1.007825032230
         H            1.653807711579    -1.143208196169    -1.741875895199     1.007825032230
         H           -3.723727288421    -1.576509196169     0.266679104801     1.007825032230
         H           -2.706413288421    -2.267211196169     1.361277104801     1.007825032230
         H           -2.656133288421     2.439839803831    -0.629632895199     1.007825032230
         H            3.302432711579     2.071741803831     0.718308104801     1.007825032230
         H            4.796858711579     1.556074803831     0.181297104801     1.007825032230
         H            5.047700711579    -0.815481196169     0.055421104801     1.007825032230
         H            3.837992711579    -1.515449196169    -0.906612895199     1.007825032230

  Basis Set: AUG-CC-PVTZ
    Blend: AUG-CC-PVTZ
  Basis Set: (AUG-CC-PVTZ AUX)
    Blend: AUG-CC-PVTZ-JKFIT
	 Reference Energy          =    -603.1240410814382358 [Eh]
	 Singles Energy            =      -0.0000000000000000 [Eh]
	 Same-Spin Energy          =      -0.6200983327783602 [Eh]
	 Opposite-Spin Energy      =      -1.9533697253146607 [Eh]
	 Correlation Energy        =      -2.5734680580930211 [Eh]
	 Total Energy              =    -605.6975091395312347 [Eh]

	 ================> DF-SCS-MP2 Energies <==================
	-----------------------------------------------------------
	 SCS Same-Spin Scale       =       0.3333333333333333 [-]
	 SCS Opposite-Spin Scale   =       1.2000000000000000 [-]
	 SCS Same-Spin Energy      =      -0.2066994442594534 [Eh]
	 SCS Opposite-Spin Energy  =      -2.3440436703775926 [Eh]
	 SCS Correlation Energy    =      -2.5507431146370463 [Eh]
	 SCS Total Energy          =    -605.6747841960752794 [Eh]
	-----------------------------------------------------------

  Dipole Moment: [D]
     X:     3.5129      Y:     0.2540      Z:     0.3761     Total:     3.5421

*** Psi4 exiting successfully. Buy a developer a beer!
