                               Psi4 1.3.2 release

  ==> Input File <==

--------------------------------------------------------------------------
#psi4
#
memory 32 gb

molecule  {
0 1
  O       -2.2266400     1.8867650    -0.0032170
  O       -3.7615920     0.4694410    -0.8736430
  N       -2.7859400    -1.6499310     0.5252010
  N        1.9837006     0.2629061    -0.2936077
  N        3.8978530     1.3104060     0.6447910
  N        4.0160410    -0.8946960    -0.1223760
  C       -0.6937690    -0.3717720     0.7299070
  C       -0.1993830    -0.6671070    -0.6806480
  C       -2.2227870    -0.3377670     0.8339710
  C        1.3098450    -0.8661090    -0.7166530
  C       -2.8261080     0.6730930    -0.1173080
  C        3.2319800     0.2459460     0.0175660
  H       -0.2748670     0.5765650     1.0765220
  H       -0.3365530    -1.1529370     1.4152070
  H       -0.7054620    -1.5600450    -1.0625750
  H       -0.4516800     0.1714660    -1.3406670
  H       -2.4873830     0.0287790     1.8430020
  H        1.5813230    -1.7317920    -0.0895090
  H        1.6134840    -1.1144100    -1.7484380
  H       -3.7640510    -1.5477110     0.2601170
  H       -2.7467370    -2.2384130     1.3547150
  H       -2.6964570     2.4686380    -0.6361950
  H        3.2621090     2.1005400     0.7117460
  H        4.7565350     1.5848730     0.1747350
  H        5.0073770    -0.7866830     0.0488590
  H        3.7976690    -1.4866510    -0.9131750
units angstrom
no_reorient  #important for SAPT in psi4, default
symmetry c1  #important for SAPT in psi4, default
}

set PROPERTIES_ORIGIN ["COM"]
properties('MP2/aug-cc-pvtz', properties = ['dipole'])
--------------------------------------------------------------------------

    Molecular point group: c1
  Charge       = 0
  Multiplicity = 1
  Basis Set: AUG-CC-PVTZ
    Blend: AUG-CC-PVTZ
  Basis Set: (AUG-CC-PVTZ AUX)
    Blend: AUG-CC-PVTZ-JKFIT

    Orbital Energies [Eh]
    ---------------------

    Doubly Occupied:

       1A    -20.609900     2A    -20.546958     3A    -15.579950
       4A    -15.577135     5A    -15.539227     6A    -15.508620
       7A    -11.382265     8A    -11.343773     9A    -11.270707
      10A    -11.233358    11A    -11.212288    12A    -11.200123
      13A     -1.455487    14A     -1.352187    15A     -1.298084
      16A     -1.189466    17A     -1.175641    18A     -1.163922
      19A     -1.046177    20A     -0.974524    21A     -0.896602
      22A     -0.826806    23A     -0.782382    24A     -0.764574
      25A     -0.721255    26A     -0.703657    27A     -0.701341
      28A     -0.690515    29A     -0.655641    30A     -0.642411
      31A     -0.634820    32A     -0.617794    33A     -0.612799
      34A     -0.597105    35A     -0.569945    36A     -0.551037
      37A     -0.545948    38A     -0.522806    39A     -0.495008
      40A     -0.477109    41A     -0.471128    42A     -0.469099
      43A     -0.440274    44A     -0.438737    45A     -0.393320
      46A     -0.382618    47A     -0.341735

  @DF-RHF Final Energy:  -603.12187486282858

   => Energetics <=

    Nuclear Repulsion Energy =            726.8130199600036576
    One-Electron Energy =               -2266.6572793153854946
    Two-Electron Energy =                 936.7223844925532603
    Total Energy =                       -603.1218748628285766
  Basis Set: (AUG-CC-PVTZ AUX)
    Blend: AUG-CC-PVTZ-RI
    Molecular point group: c1

    Geometry (in Angstrom), charge = 0, multiplicity = 1:

       Center              X                  Y                   Z               Mass
    ------------   -----------------  -----------------  -----------------  -----------------
         O           -2.189926233448     1.866795837574     0.005753906317    15.994914619570
         O           -3.724878233448     0.449471837574    -0.864672093683    15.994914619570
         N           -2.749226233448    -1.669900162426     0.534171906317    14.003074004430
         N            2.020414366552     0.242936937574    -0.284636793683    14.003074004430
         N            3.934566766552     1.290436837574     0.653761906317    14.003074004430
         N            4.052754766552    -0.914665162426    -0.113405093683    14.003074004430
         C           -0.657055233448    -0.391741162426     0.738877906317    12.000000000000
         C           -0.162669233448    -0.687076162426    -0.671677093683    12.000000000000
         C           -2.186073233448    -0.357736162426     0.842941906317    12.000000000000
         C            1.346558766552    -0.886078162426    -0.707682093683    12.000000000000
         C           -2.789394233448     0.653123837574    -0.108337093683    12.000000000000
         C            3.268693766552     0.225976837574     0.026536906317    12.000000000000
         H           -0.238153233448     0.556595837574     1.085492906317     1.007825032230
         H           -0.299839233448    -1.172906162426     1.424177906317     1.007825032230
         H           -0.668748233448    -1.580014162426    -1.053604093683     1.007825032230
         H           -0.414966233448     0.151496837574    -1.331696093683     1.007825032230
         H           -2.450669233448     0.008809837574     1.851972906317     1.007825032230
         H            1.618036766552    -1.751761162426    -0.080538093683     1.007825032230
         H            1.650197766552    -1.134379162426    -1.739467093683     1.007825032230
         H           -3.727337233448    -1.567680162426     0.269087906317     1.007825032230
         H           -2.710023233448    -2.258382162426     1.363685906317     1.007825032230
         H           -2.659743233448     2.448668837574    -0.627224093683     1.007825032230
         H            3.298822766552     2.080570837574     0.720716906317     1.007825032230
         H            4.793248766552     1.564903837574     0.183705906317     1.007825032230
         H            5.044090766552    -0.806652162426     0.057829906317     1.007825032230
         H            3.834382766552    -1.506620162426    -0.904204093683     1.007825032230

  Basis Set: AUG-CC-PVTZ
    Blend: AUG-CC-PVTZ
  Basis Set: (AUG-CC-PVTZ AUX)
    Blend: AUG-CC-PVTZ-JKFIT
	 Reference Energy          =    -603.1218748628285766 [Eh]
	 Singles Energy            =      -0.0000000000000000 [Eh]
	 Same-Spin Energy          =      -0.6207678261834813 [Eh]
	 Opposite-Spin Energy      =      -1.9533433030972898 [Eh]
	 Correlation Energy        =      -2.5741111292807712 [Eh]
	 Total Energy              =    -605.6959859921093994 [Eh]

	 ================> DF-SCS-MP2 Energies <==================
	-----------------------------------------------------------
	 SCS Same-Spin Scale       =       0.3333333333333333 [-]
	 SCS Opposite-Spin Scale   =       1.2000000000000000 [-]
	 SCS Same-Spin Energy      =      -0.2069226087278271 [Eh]
	 SCS Opposite-Spin Energy  =      -2.3440119637167478 [Eh]
	 SCS Correlation Energy    =      -2.5509345724445751 [Eh]
	 SCS Total Energy          =    -605.6728094352731659 [Eh]
	-----------------------------------------------------------

  Dipole Moment: [D]
     X:     3.4546      Y:     0.5486      Z:     0.4431     Total:     3.5258

*** Psi4 exiting successfully. Buy a developer a beer!
