                               Psi4 1.3.2 release

  ==> Input File <==

--------------------------------------------------------------------------
#psi4
#
memory 32 gb

molecule  {
0 1
  O       -2.2266400     1.8867650    -0.0032170
  O       -3.7615920     0.4694410    -0.8736430
  N       -2.7859400    -1.6499310     0.5252010
  N        1.8874985     0.3873618    -0.2461657
  N        3.8978530     1.3104060     0.6447910
  N        4.0160410    -0.8946960    -0.1223760
  C       -0.6937690    -0.3717720     0.7299070
  C       -0.1993830    -0.6671070    -0.6806480
  C       -2.2227870    -0.3377670     0.8339710
  C        1.3098450    -0.8661090    -0.7166530
  C       -2.8261080     0.6730930    -0.1173080
  C        3.2319800     0.2459460     0.0175660
  H       -0.2748670     0.5765650     1.0765220
  H       -0.3365530    -1.1529370     1.4152070
  H       -0.7054620    -1.5600450    -1.0625750
  H       -0.4516800     0.1714660    -1.3406670
  H       -2.4873830     0.0287790     1.8430020
  H        1.5813230    -1.7317920    -0.0895090
  H        1.6134840    -1.1144100    -1.7484380
  H       -3.7640510    -1.5477110     0.2601170
  H       -2.7467370    -2.2384130     1.3547150
  H       -2.6964570     2.4686380    -0.6361950
  H        3.2621090     2.1005400     0.7117460
  H        4.7565350     1.5848730     0.1747350
  H        5.0073770    -0.7866830     0.0488590
  H        3.7976690    -1.4866510    -0.9131750
units angstrom
no_reorient  #important for SAPT in psi4, default
symmetry c1  #important for SAPT in psi4, default
}

set PROPERTIES_ORIGIN ["COM"]
properties('MP2/aug-cc-pvtz', properties = ['dipole'])
--------------------------------------------------------------------------

    Molecular point group: c1
  Charge       = 0
  Multiplicity = 1
  Basis Set: AUG-CC-PVTZ
    Blend: AUG-CC-PVTZ
  Basis Set: (AUG-CC-PVTZ AUX)
    Blend: AUG-CC-PVTZ-JKFIT

    Orbital Energies [Eh]
    ---------------------

    Doubly Occupied:

       1A    -20.607452     2A    -20.544682     3A    -15.595974
       4A    -15.579456     5A    -15.536925     6A    -15.523986
       7A    -11.379921     8A    -11.359645     9A    -11.267904
      10A    -11.232346    11A    -11.208367    12A    -11.196387
      13A     -1.453094    14A     -1.349877    15A     -1.290942
      16A     -1.186738    17A     -1.175000    18A     -1.146211
      19A     -1.038468    20A     -0.965748    21A     -0.885392
      22A     -0.820830    23A     -0.787240    24A     -0.761474
      25A     -0.727479    26A     -0.703359    27A     -0.699039
      28A     -0.688062    29A     -0.653748    30A     -0.638354
      31A     -0.628366    32A     -0.615261    33A     -0.603534
      34A     -0.588828    35A     -0.566362    36A     -0.548625
      37A     -0.534879    38A     -0.517972    39A     -0.487374
      40A     -0.474631    41A     -0.466178    42A     -0.461273
      43A     -0.439874    44A     -0.437271    45A     -0.405775
      46A     -0.389549    47A     -0.334243

  @DF-RHF Final Energy:  -603.10770085575257

   => Energetics <=

    Nuclear Repulsion Energy =            724.8569543228021530
    One-Electron Energy =               -2262.9211142436020054
    Two-Electron Energy =                 934.9564590650471700
    Total Energy =                       -603.1077008557525687
  Basis Set: (AUG-CC-PVTZ AUX)
    Blend: AUG-CC-PVTZ-RI
    Molecular point group: c1

    Geometry (in Angstrom), charge = 0, multiplicity = 1:

       Center              X                  Y                   Z               Mass
    ------------   -----------------  -----------------  -----------------  -----------------
         O           -2.182189100828     1.856786386053     0.001938344642    15.994914619570
         O           -3.717141100828     0.439462386053    -0.868487655358    15.994914619570
         N           -2.741489100828    -1.679909613947     0.530356344642    14.003074004430
         N            1.931949399172     0.357383186053    -0.241010355358    14.003074004430
         N            3.942303899172     1.280427386053     0.649946344642    14.003074004430
         N            4.060491899172    -0.924674613947    -0.117220655358    14.003074004430
         C           -0.649318100828    -0.401750613947     0.735062344642    12.000000000000
         C           -0.154932100828    -0.697085613947    -0.675492655358    12.000000000000
         C           -2.178336100828    -0.367745613947     0.839126344642    12.000000000000
         C            1.354295899172    -0.896087613947    -0.711497655358    12.000000000000
         C           -2.781657100828     0.643114386053    -0.112152655358    12.000000000000
         C            3.276430899172     0.215967386053     0.022721344642    12.000000000000
         H           -0.230416100828     0.546586386053     1.081677344642     1.007825032230
         H           -0.292102100828    -1.182915613947     1.420362344642     1.007825032230
         H           -0.661011100828    -1.590023613947    -1.057419655358     1.007825032230
         H           -0.407229100828     0.141487386053    -1.335511655358     1.007825032230
         H           -2.442932100828    -0.001199613947     1.848157344642     1.007825032230
         H            1.625773899172    -1.761770613947    -0.084353655358     1.007825032230
         H            1.657934899172    -1.144388613947    -1.743282655358     1.007825032230
         H           -3.719600100828    -1.577689613947     0.265272344642     1.007825032230
         H           -2.702286100828    -2.268391613947     1.359870344642     1.007825032230
         H           -2.652006100828     2.438659386053    -0.631039655358     1.007825032230
         H            3.306559899172     2.070561386053     0.716901344642     1.007825032230
         H            4.800985899172     1.554894386053     0.179890344642     1.007825032230
         H            5.051827899172    -0.816661613947     0.054014344642     1.007825032230
         H            3.842119899172    -1.516629613947    -0.908019655358     1.007825032230

  Basis Set: AUG-CC-PVTZ
    Blend: AUG-CC-PVTZ
  Basis Set: (AUG-CC-PVTZ AUX)
    Blend: AUG-CC-PVTZ-JKFIT
	 Reference Energy          =    -603.1077008557525687 [Eh]
	 Singles Energy            =      -0.0000000000000000 [Eh]
	 Same-Spin Energy          =      -0.6224721881038803 [Eh]
	 Opposite-Spin Energy      =      -1.9584385983730828 [Eh]
	 Correlation Energy        =      -2.5809107864769629 [Eh]
	 Total Energy              =    -605.6886116422294890 [Eh]

	 ================> DF-SCS-MP2 Energies <==================
	-----------------------------------------------------------
	 SCS Same-Spin Scale       =       0.3333333333333333 [-]
	 SCS Opposite-Spin Scale   =       1.2000000000000000 [-]
	 SCS Same-Spin Energy      =      -0.2074907293679601 [Eh]
	 SCS Opposite-Spin Energy  =      -2.3501263180476992 [Eh]
	 SCS Correlation Energy    =      -2.5576170474156594 [Eh]
	 SCS Total Energy          =    -605.6653179031682157 [Eh]
	-----------------------------------------------------------

  Dipole Moment: [D]
     X:     3.9230      Y:     0.2457      Z:     0.4009     Total:     3.9511

*** Psi4 exiting successfully. Buy a developer a beer!
