                               Psi4 1.3.2 release

  ==> Input File <==

--------------------------------------------------------------------------
#psi4
#
memory 32 gb

molecule  {
-1 1
  S        1.4290720    -0.0000060    -0.0599380
  C       -0.3526060    -0.0000140     0.3907100
  C       -1.0626159    -1.2433515    -0.1401329
  C       -1.0684970     1.2504130    -0.1151130
  H       -0.4163644     0.0164536     1.4875273
  H       -1.0294530    -1.2924530    -1.2089010
  H       -0.5973500    -2.1575670     0.2732900
  H       -2.1238830    -1.2544140     0.1901240
  H       -1.0294410     1.2924540    -1.2089060
  H       -0.5972720     2.1575400     0.2733260
  H       -2.1238650     1.2544300     0.1901270
units angstrom
no_reorient  #important for SAPT in psi4, default
symmetry c1  #important for SAPT in psi4, default
}

set PROPERTIES_ORIGIN ["COM"]
properties('MP2/aug-cc-pvtz', properties = ['dipole'])
--------------------------------------------------------------------------

    Molecular point group: c1
  Charge       = -1
  Multiplicity = 1
  Basis Set: AUG-CC-PVTZ
    Blend: AUG-CC-PVTZ
  Basis Set: (AUG-CC-PVTZ AUX)
    Blend: AUG-CC-PVTZ-JKFIT

    Orbital Energies [Eh]
    ---------------------

    Doubly Occupied:

       1A    -91.666816     2A    -11.069071     3A    -11.056355
       4A    -11.055455     5A     -8.666886     6A     -6.348428
       7A     -6.346791     8A     -6.346779     9A     -0.898163
      10A     -0.767964    11A     -0.681954    12A     -0.561887
      13A     -0.450790    14A     -0.412954    15A     -0.395990
      16A     -0.379029    17A     -0.319466    18A     -0.313153
      19A     -0.219470    20A     -0.092306    21A     -0.091470

  @DF-RHF Final Energy:  -515.27542702152516

   => Energetics <=

    Nuclear Repulsion Energy =            158.8674856032129981
    One-Electron Energy =               -1032.0034704696240624
    Two-Electron Energy =                 357.8605578448858751
    Total Energy =                       -515.2754270215251609
  Basis Set: (AUG-CC-PVTZ AUX)
    Blend: AUG-CC-PVTZ-RI
    Molecular point group: c1

    Geometry (in Angstrom), charge = -1, multiplicity = 1:

       Center              X                  Y                   Z               Mass
    ------------   -----------------  -----------------  -----------------  -----------------
         S            1.323693976275    -0.001351524224    -0.056016574262    31.972071174400
         C           -0.457984023725    -0.001359524224     0.394631425738    12.000000000000
         C           -1.167993923725    -1.244697024224    -0.136211474262    12.000000000000
         C           -1.173875023725     1.249067475776    -0.111191574262    12.000000000000
         H           -0.521742423725     0.015108075776     1.491448725738     1.007825032230
         H           -1.134831023725    -1.293798524224    -1.204979574262     1.007825032230
         H           -0.702728023725    -2.158912524224     0.277211425738     1.007825032230
         H           -2.229261023725    -1.255759524224     0.194045425738     1.007825032230
         H           -1.134819023725     1.291108475776    -1.204984574262     1.007825032230
         H           -0.702650023725     2.156194475776     0.277247425738     1.007825032230
         H           -2.229243023725     1.253084475776     0.194048425738     1.007825032230

  Basis Set: AUG-CC-PVTZ
    Blend: AUG-CC-PVTZ
  Basis Set: (AUG-CC-PVTZ AUX)
    Blend: AUG-CC-PVTZ-JKFIT
	 Reference Energy          =    -515.2754270215251609 [Eh]
	 Singles Energy            =      -0.0000000000000000 [Eh]
	 Same-Spin Energy          =      -0.1881239366889725 [Eh]
	 Opposite-Spin Energy      =      -0.6464848331739741 [Eh]
	 Correlation Energy        =      -0.8346087698629465 [Eh]
	 Total Energy              =    -516.1100357913880998 [Eh]

	 ================> DF-SCS-MP2 Energies <==================
	-----------------------------------------------------------
	 SCS Same-Spin Scale       =       0.3333333333333333 [-]
	 SCS Opposite-Spin Scale   =       1.2000000000000000 [-]
	 SCS Same-Spin Energy      =      -0.0627079788963242 [Eh]
	 SCS Opposite-Spin Energy  =      -0.7757817998087689 [Eh]
	 SCS Correlation Energy    =      -0.8384897787050931 [Eh]
	 SCS Total Energy          =    -516.1139168002302995 [Eh]
	-----------------------------------------------------------

  Dipole Moment: [D]
     X:    -5.1453      Y:    -0.0013      Z:     0.5327     Total:     5.1728

*** Psi4 exiting successfully. Buy a developer a beer!
