                               Psi4 1.3.2 release

  ==> Input File <==

--------------------------------------------------------------------------
#psi4
#
memory 32 gb

molecule  {
-1 1
  S        1.4290720    -0.0000060    -0.0599380
  C       -0.3526060    -0.0000140     0.3907100
  C       -1.0655911    -1.2469142    -0.1276417
  C       -1.0684970     1.2504130    -0.1151130
  H       -0.4212848     0.0082261     1.4873229
  H       -1.0294530    -1.2924530    -1.2089010
  H       -0.5973500    -2.1575670     0.2732900
  H       -2.1238830    -1.2544140     0.1901240
  H       -1.0294410     1.2924540    -1.2089060
  H       -0.5972720     2.1575400     0.2733260
  H       -2.1238650     1.2544300     0.1901270
units angstrom
no_reorient  #important for SAPT in psi4, default
symmetry c1  #important for SAPT in psi4, default
}

set PROPERTIES_ORIGIN ["COM"]
properties('MP2/aug-cc-pvtz', properties = ['dipole'])
--------------------------------------------------------------------------

    Molecular point group: c1
  Charge       = -1
  Multiplicity = 1
  Basis Set: AUG-CC-PVTZ
    Blend: AUG-CC-PVTZ
  Basis Set: (AUG-CC-PVTZ AUX)
    Blend: AUG-CC-PVTZ-JKFIT

    Orbital Energies [Eh]
    ---------------------

    Doubly Occupied:

       1A    -91.666959     2A    -11.068981     3A    -11.056030
       4A    -11.055612     5A     -8.667007     6A     -6.348550
       7A     -6.346913     8A     -6.346901     9A     -0.898011
      10A     -0.768043    11A     -0.681786    12A     -0.561730
      13A     -0.450506    14A     -0.413799    15A     -0.396286
      16A     -0.377997    17A     -0.317138    18A     -0.314701
      19A     -0.220074    20A     -0.092450    21A     -0.091520

  @DF-RHF Final Energy:  -515.27608009600272

   => Energetics <=

    Nuclear Repulsion Energy =            158.8284488239295058
    One-Electron Energy =               -1031.9270661406962972
    Two-Electron Energy =                 357.8225372207640476
    Total Energy =                       -515.2760800960027154
  Basis Set: (AUG-CC-PVTZ AUX)
    Blend: AUG-CC-PVTZ-RI
    Molecular point group: c1

    Geometry (in Angstrom), charge = -1, multiplicity = 1:

       Center              X                  Y                   Z               Mass
    ------------   -----------------  -----------------  -----------------  -----------------
         S            1.324235932978    -0.000671177349    -0.058011705441    31.972071174400
         C           -0.457442067022    -0.000679177349     0.392636294559    12.000000000000
         C           -1.170427167022    -1.247579377349    -0.125715405441    12.000000000000
         C           -1.173333067022     1.249747822651    -0.113186705441    12.000000000000
         H           -0.526120867022     0.007560922651     1.489249194559     1.007825032230
         H           -1.134289067022    -1.293118177349    -1.206974705441     1.007825032230
         H           -0.702186067022    -2.158232177349     0.275216294559     1.007825032230
         H           -2.228719067022    -1.255079177349     0.192050294559     1.007825032230
         H           -1.134277067022     1.291788822651    -1.206979705441     1.007825032230
         H           -0.702108067022     2.156874822651     0.275252294559     1.007825032230
         H           -2.228701067022     1.253764822651     0.192053294559     1.007825032230

  Basis Set: AUG-CC-PVTZ
    Blend: AUG-CC-PVTZ
  Basis Set: (AUG-CC-PVTZ AUX)
    Blend: AUG-CC-PVTZ-JKFIT
	 Reference Energy          =    -515.2760800960027154 [Eh]
	 Singles Energy            =      -0.0000000000000000 [Eh]
	 Same-Spin Energy          =      -0.1881134007854329 [Eh]
	 Opposite-Spin Energy      =      -0.6464566019837045 [Eh]
	 Correlation Energy        =      -0.8345700027691374 [Eh]
	 Total Energy              =    -516.1106500987718846 [Eh]

	 ================> DF-SCS-MP2 Energies <==================
	-----------------------------------------------------------
	 SCS Same-Spin Scale       =       0.3333333333333333 [-]
	 SCS Opposite-Spin Scale   =       1.2000000000000000 [-]
	 SCS Same-Spin Energy      =      -0.0627044669284776 [Eh]
	 SCS Opposite-Spin Energy  =      -0.7757479223804453 [Eh]
	 SCS Correlation Energy    =      -0.8384523893089230 [Eh]
	 SCS Total Energy          =    -516.1145324853116563 [Eh]
	-----------------------------------------------------------

  Dipole Moment: [D]
     X:    -5.1494      Y:    -0.0010      Z:     0.5482     Total:     5.1785

*** Psi4 exiting successfully. Buy a developer a beer!
