                               Psi4 1.3.2 release

  ==> Input File <==

--------------------------------------------------------------------------
#psi4
#
memory 32 gb

molecule  {
-1 1
  S        1.4205938    -0.0566158    -0.0888926
  C       -0.3526060    -0.0000140     0.3907100
  C       -1.0224383    -1.2671786    -0.1359921
  C       -1.0684970     1.2504130    -0.1151130
  H       -0.4262000    -0.0000020     1.4870350
  H       -1.0294530    -1.2924530    -1.2089010
  H       -0.5973500    -2.1575670     0.2732900
  H       -2.1238830    -1.2544140     0.1901240
  H       -1.0294410     1.2924540    -1.2089060
  H       -0.5972720     2.1575400     0.2733260
  H       -2.1238650     1.2544300     0.1901270
units angstrom
no_reorient  #important for SAPT in psi4, default
symmetry c1  #important for SAPT in psi4, default
}

set PROPERTIES_ORIGIN ["COM"]
properties('MP2/aug-cc-pvtz', properties = ['dipole'])
--------------------------------------------------------------------------

    Molecular point group: c1
  Charge       = -1
  Multiplicity = 1
  Basis Set: AUG-CC-PVTZ
    Blend: AUG-CC-PVTZ
  Basis Set: (AUG-CC-PVTZ AUX)
    Blend: AUG-CC-PVTZ-JKFIT

    Orbital Energies [Eh]
    ---------------------

    Doubly Occupied:

       1A    -91.666470     2A    -11.069590     3A    -11.057403
       4A    -11.055796     5A     -8.666633     6A     -6.348169
       7A     -6.346534     8A     -6.346521     9A     -0.898145
      10A     -0.769547    11A     -0.680323    12A     -0.563326
      13A     -0.454572    14A     -0.411370    15A     -0.397597
      16A     -0.370386    17A     -0.322829    18A     -0.318037
      19A     -0.217268    20A     -0.092361    21A     -0.090908

  @DF-RHF Final Energy:  -515.27305378377571

   => Energetics <=

    Nuclear Repulsion Energy =            159.0664607451798247
    One-Electron Energy =               -1032.3914588591969732
    Two-Electron Energy =                 358.0519443302414402
    Total Energy =                       -515.2730537837757083
  Basis Set: (AUG-CC-PVTZ AUX)
    Blend: AUG-CC-PVTZ-RI
    Molecular point group: c1

    Geometry (in Angstrom), charge = -1, multiplicity = 1:

       Center              X                  Y                   Z               Mass
    ------------   -----------------  -----------------  -----------------  -----------------
         S            1.312534695676    -0.029805507716    -0.073288088455    31.972071174400
         C           -0.460665104324     0.026796292284     0.406314511545    12.000000000000
         C           -1.130497404324    -1.240368307716    -0.120387588455    12.000000000000
         C           -1.176556104324     1.277223292284    -0.099508488455    12.000000000000
         H           -0.534259104324     0.026808292284     1.502639511545     1.007825032230
         H           -1.137512104324    -1.265642707716    -1.193296488455     1.007825032230
         H           -0.705409104324    -2.130756707716     0.288894511545     1.007825032230
         H           -2.231942104324    -1.227603707716     0.205728511545     1.007825032230
         H           -1.137500104324     1.319264292284    -1.193301488455     1.007825032230
         H           -0.705331104324     2.184350292284     0.288930511545     1.007825032230
         H           -2.231924104324     1.281240292284     0.205731511545     1.007825032230

  Basis Set: AUG-CC-PVTZ
    Blend: AUG-CC-PVTZ
  Basis Set: (AUG-CC-PVTZ AUX)
    Blend: AUG-CC-PVTZ-JKFIT
	 Reference Energy          =    -515.2730537837757083 [Eh]
	 Singles Energy            =      -0.0000000000000000 [Eh]
	 Same-Spin Energy          =      -0.1881790948716749 [Eh]
	 Opposite-Spin Energy      =      -0.6466038577244526 [Eh]
	 Correlation Energy        =      -0.8347829525961276 [Eh]
	 Total Energy              =    -516.1078367363718371 [Eh]

	 ================> DF-SCS-MP2 Energies <==================
	-----------------------------------------------------------
	 SCS Same-Spin Scale       =       0.3333333333333333 [-]
	 SCS Opposite-Spin Scale   =       1.2000000000000000 [-]
	 SCS Same-Spin Energy      =      -0.0627263649572250 [Eh]
	 SCS Opposite-Spin Energy  =      -0.7759246292693431 [Eh]
	 SCS Correlation Energy    =      -0.8386509942265681 [Eh]
	 SCS Total Energy          =    -516.1117047780022631 [Eh]
	-----------------------------------------------------------

  Dipole Moment: [D]
     X:    -5.0419      Y:     0.0883      Z:     0.5659     Total:     5.0743

*** Psi4 exiting successfully. Buy a developer a beer!
