                               Psi4 1.4a3.dev225

  ==> Input File <==

--------------------------------------------------------------------------
#psi4
#
memory 32 gb

molecule  {
-1 1
  S        0.8760760     1.1282850     0.0000000
  C       -0.5244280    -0.0603010     0.0000000
  C       -0.5244280    -0.9478721     1.2673189
  C       -0.5244280    -0.9363990    -1.2509370
  H       -1.4611330     0.5136640     0.0000000
  H        0.3938430    -1.5316650     1.2938450
  H       -0.5721740    -0.3268970     2.1577640
  H       -1.3798600    -1.6252560     1.2536820
  H        0.3938430    -1.5316650    -1.2938450
  H       -0.5721740    -0.3268970    -2.1577640
  H       -1.3798600    -1.6252560    -1.2536820
units angstrom
no_reorient  #important for SAPT in psi4, default
symmetry c1  #important for SAPT in psi4, default
}

set PROPERTIES_ORIGIN ["COM"]
properties('MP2/aug-cc-pvtz', properties = ['dipole'])
--------------------------------------------------------------------------

    Molecular point group: c1
  Charge       = -1
  Multiplicity = 1
  Basis Set: AUG-CC-PVTZ
    Blend: AUG-CC-PVTZ
  Basis Set: (AUG-CC-PVTZ AUX)
    Blend: AUG-CC-PVTZ-JKFIT

    Orbital Energies [Eh]
    ---------------------

    Doubly Occupied:

       1A    -91.667039     2A    -11.069972     3A    -11.055658
       4A    -11.054447     5A     -8.667071     6A     -6.348614
       7A     -6.346982     8A     -6.346971     9A     -0.895222
      10A     -0.768539    11A     -0.682092    12A     -0.560695
      13A     -0.449233    14A     -0.416252    15A     -0.396757
      16A     -0.378665    17A     -0.317328    18A     -0.311691
      19A     -0.220940    20A     -0.092365    21A     -0.091435

  @DF-RHF Final Energy:  -515.27616548134120

   => Energetics <=

    Nuclear Repulsion Energy =            158.5662216356013232
    One-Electron Energy =               -1031.4088354512789465
    Two-Electron Energy =                 357.5664483343364282
    Total Energy =                       -515.2761654813411951
  Basis Set: (AUG-CC-PVTZ AUX)
    Blend: AUG-CC-PVTZ-RI
    Molecular point group: c1

    Geometry (in Angstrom), charge = -1, multiplicity = 1:

       Center              X                  Y                   Z               Mass
    ------------   -----------------  -----------------  -----------------  -----------------
         S            0.815867924617     1.045191162457    -0.002620166106    31.972071174400
         C           -0.584636075383    -0.143394837543    -0.002620166106    12.000000000000
         C           -0.584636075383    -1.030965937543     1.264698733894    12.000000000000
         C           -0.584636075383    -1.019492837543    -1.253557166106    12.000000000000
         H           -1.521341075383     0.430570162457    -0.002620166106     1.007825032230
         H            0.333634924617    -1.614758837543     1.291224833894     1.007825032230
         H           -0.632382075383    -0.409990837543     2.155143833894     1.007825032230
         H           -1.440068075383    -1.708349837543     1.251061833894     1.007825032230
         H            0.333634924617    -1.614758837543    -1.296465166106     1.007825032230
         H           -0.632382075383    -0.409990837543    -2.160384166106     1.007825032230
         H           -1.440068075383    -1.708349837543    -1.256302166106     1.007825032230

  Basis Set: AUG-CC-PVTZ
    Blend: AUG-CC-PVTZ
  Basis Set: (AUG-CC-PVTZ AUX)
    Blend: AUG-CC-PVTZ-JKFIT
	 Reference Energy          =    -515.2761654813411951 [Eh]
	 Singles Energy            =      -0.0000000000000000 [Eh]
	 Same-Spin Energy          =      -0.1880361636495143 [Eh]
	 Opposite-Spin Energy      =      -0.6463765359909516 [Eh]
	 Correlation Energy        =      -0.8344126996404659 [Eh]
	 Total Energy              =    -516.1105781809816335 [Eh]

	 ================> DF-SCS-MP2 Energies <==================
	-----------------------------------------------------------
	 SCS Same-Spin Scale       =       0.3333333333333333 [-]
	 SCS Opposite-Spin Scale   =       1.2000000000000000 [-]
	 SCS Same-Spin Energy      =      -0.0626787212165048 [Eh]
	 SCS Opposite-Spin Energy  =      -0.7756518431891418 [Eh]
	 SCS Correlation Energy    =      -0.8383305644056466 [Eh]
	 SCS Total Energy          =    -516.1144960457468187 [Eh]
	-----------------------------------------------------------

  Dipole Moment: [D]
     X:    -3.4442      Y:    -3.8734      Z:    -0.0003     Total:     5.1832

*** Psi4 exiting successfully. Buy a developer a beer!
