                               Psi4 1.3.2 release

  ==> Input File <==

--------------------------------------------------------------------------
#psi4
#
memory 32 gb

molecule  {
-1 1
  S        1.4290720    -0.0000060    -0.0599380
  C       -0.3526060    -0.0000140     0.3907100
  C       -1.0713784    -1.2537545    -0.1025418
  C       -1.0684970     1.2504130    -0.1151130
  H       -0.4311096    -0.0082301     1.4866636
  H       -1.0294530    -1.2924530    -1.2089010
  H       -0.5973500    -2.1575670     0.2732900
  H       -2.1238830    -1.2544140     0.1901240
  H       -1.0294410     1.2924540    -1.2089060
  H       -0.5972720     2.1575400     0.2733260
  H       -2.1238650     1.2544300     0.1901270
units angstrom
no_reorient  #important for SAPT in psi4, default
symmetry c1  #important for SAPT in psi4, default
}

set PROPERTIES_ORIGIN ["COM"]
properties('MP2/aug-cc-pvtz', properties = ['dipole'])
--------------------------------------------------------------------------

    Molecular point group: c1
  Charge       = -1
  Multiplicity = 1
  Basis Set: AUG-CC-PVTZ
    Blend: AUG-CC-PVTZ
  Basis Set: (AUG-CC-PVTZ AUX)
    Blend: AUG-CC-PVTZ-JKFIT

    Orbital Energies [Eh]
    ---------------------

    Doubly Occupied:

       1A    -91.667278     2A    -11.068896     3A    -11.055956
       4A    -11.055603     5A     -8.667284     6A     -6.348827
       7A     -6.347188     8A     -6.347178     9A     -0.897812
      10A     -0.768345    11A     -0.681566    12A     -0.561617
      13A     -0.449862    14A     -0.416479    15A     -0.397544
      16A     -0.374862    17A     -0.318103    18A     -0.311495
      19A     -0.221265    20A     -0.092771    21A     -0.091636

  @DF-RHF Final Energy:  -515.27606831805156

   => Energetics <=

    Nuclear Repulsion Energy =            158.7530008462295541
    One-Electron Energy =               -1031.7750037471894302
    Two-Electron Energy =                 357.7459345829083190
    Total Energy =                       -515.2760683180515571
  Basis Set: (AUG-CC-PVTZ AUX)
    Blend: AUG-CC-PVTZ-RI
    Molecular point group: c1

    Geometry (in Angstrom), charge = -1, multiplicity = 1:

       Center              X                  Y                   Z               Mass
    ------------   -----------------  -----------------  -----------------  -----------------
         S            1.325293544795     0.000643932842    -0.062017396142    31.972071174400
         C           -0.456384455205     0.000635932842     0.388630603858    12.000000000000
         C           -1.175156855205    -1.253104567158    -0.104621196142    12.000000000000
         C           -1.172275455205     1.251062932842    -0.117192396142    12.000000000000
         H           -0.534888055205    -0.007580167158     1.484584203858     1.007825032230
         H           -1.133231455205    -1.291803067158    -1.210980396142     1.007825032230
         H           -0.701128455205    -2.156917067158     0.271210603858     1.007825032230
         H           -2.227661455205    -1.253764067158     0.188044603858     1.007825032230
         H           -1.133219455205     1.293103932842    -1.210985396142     1.007825032230
         H           -0.701050455205     2.158189932842     0.271246603858     1.007825032230
         H           -2.227643455205     1.255079932842     0.188047603858     1.007825032230

  Basis Set: AUG-CC-PVTZ
    Blend: AUG-CC-PVTZ
  Basis Set: (AUG-CC-PVTZ AUX)
    Blend: AUG-CC-PVTZ-JKFIT
	 Reference Energy          =    -515.2760683180515571 [Eh]
	 Singles Energy            =      -0.0000000000000000 [Eh]
	 Same-Spin Energy          =      -0.1881191850309867 [Eh]
	 Opposite-Spin Energy      =      -0.6464665931801027 [Eh]
	 Correlation Energy        =      -0.8345857782110894 [Eh]
	 Total Energy              =    -516.1106540962626923 [Eh]

	 ================> DF-SCS-MP2 Energies <==================
	-----------------------------------------------------------
	 SCS Same-Spin Scale       =       0.3333333333333333 [-]
	 SCS Opposite-Spin Scale   =       1.2000000000000000 [-]
	 SCS Same-Spin Energy      =      -0.0627063950103289 [Eh]
	 SCS Opposite-Spin Energy  =      -0.7757599118161232 [Eh]
	 SCS Correlation Energy    =      -0.8384663068264522 [Eh]
	 SCS Total Energy          =    -516.1145346248780470 [Eh]
	-----------------------------------------------------------

  Dipole Moment: [D]
     X:    -5.1548      Y:     0.0018      Z:     0.5810     Total:     5.1875

*** Psi4 exiting successfully. Buy a developer a beer!
