                               Psi4 1.3.2 release

  ==> Input File <==

--------------------------------------------------------------------------
#psi4
#
memory 32 gb

molecule  {
-1 1
  S        1.4290720    -0.0000060    -0.0599380
  C       -0.4049306     0.0441033     0.3493931
  C       -1.0685120    -1.2503820    -0.1151110
  C       -1.0684970     1.2504130    -0.1151130
  H       -0.4262000    -0.0000020     1.4870350
  H       -1.0294530    -1.2924530    -1.2089010
  H       -0.6362554    -2.1882474     0.2446059
  H       -2.1238830    -1.2544140     0.1901240
  H       -1.0294410     1.2924540    -1.2089060
  H       -0.5972720     2.1575400     0.2733260
  H       -2.1238650     1.2544300     0.1901270
units angstrom
no_reorient  #important for SAPT in psi4, default
symmetry c1  #important for SAPT in psi4, default
}

set PROPERTIES_ORIGIN ["COM"]
properties('MP2/aug-cc-pvtz', properties = ['dipole'])
--------------------------------------------------------------------------

    Molecular point group: c1
  Charge       = -1
  Multiplicity = 1
  Basis Set: AUG-CC-PVTZ
    Blend: AUG-CC-PVTZ
  Basis Set: (AUG-CC-PVTZ AUX)
    Blend: AUG-CC-PVTZ-JKFIT

    Orbital Energies [Eh]
    ---------------------

    Doubly Occupied:

       1A    -91.667719     2A    -11.070531     3A    -11.057525
       4A    -11.055601     5A     -8.667145     6A     -6.348585
       7A     -6.347011     8A     -6.346994     9A     -0.907909
      10A     -0.775499    11A     -0.673598    12A     -0.559755
      13A     -0.458363    14A     -0.420049    15A     -0.396793
      16A     -0.379006    17A     -0.339177    18A     -0.300784
      19A     -0.207884    20A     -0.092784    21A     -0.090087

  @DF-RHF Final Energy:  -515.26861382998311

   => Energetics <=

    Nuclear Repulsion Energy =            158.7760311458958711
    One-Electron Energy =               -1031.7636923988172839
    Two-Electron Energy =                 357.7190474229382744
    Total Energy =                       -515.2686138299831100
  Basis Set: (AUG-CC-PVTZ AUX)
    Blend: AUG-CC-PVTZ-RI
    Molecular point group: c1

    Geometry (in Angstrom), charge = -1, multiplicity = 1:

       Center              X                  Y                   Z               Mass
    ------------   -----------------  -----------------  -----------------  -----------------
         S            1.333660686004    -0.006650117705    -0.053018384719    31.972071174400
         C           -0.500341913996     0.037459182295     0.356312715281    12.000000000000
         C           -1.163923313996    -1.257026117705    -0.108191384719    12.000000000000
         C           -1.163908313996     1.243768882295    -0.108193384719    12.000000000000
         H           -0.521611313996    -0.006646117705     1.493954615281     1.007825032230
         H           -1.124864313996    -1.299097117705    -1.201981384719     1.007825032230
         H           -0.731666713996    -2.194891517705     0.251525515281     1.007825032230
         H           -2.219294313996    -1.261058117705     0.197043615281     1.007825032230
         H           -1.124852313996     1.285809882295    -1.201986384719     1.007825032230
         H           -0.692683313996     2.150895882295     0.280245615281     1.007825032230
         H           -2.219276313996     1.247785882295     0.197046615281     1.007825032230

  Basis Set: AUG-CC-PVTZ
    Blend: AUG-CC-PVTZ
  Basis Set: (AUG-CC-PVTZ AUX)
    Blend: AUG-CC-PVTZ-JKFIT
	 Reference Energy          =    -515.2686138299831100 [Eh]
	 Singles Energy            =      -0.0000000000000000 [Eh]
	 Same-Spin Energy          =      -0.1884728022343291 [Eh]
	 Opposite-Spin Energy      =      -0.6471060103918187 [Eh]
	 Correlation Energy        =      -0.8355788126261477 [Eh]
	 Total Energy              =    -516.1041926426092914 [Eh]

	 ================> DF-SCS-MP2 Energies <==================
	-----------------------------------------------------------
	 SCS Same-Spin Scale       =       0.3333333333333333 [-]
	 SCS Opposite-Spin Scale   =       1.2000000000000000 [-]
	 SCS Same-Spin Energy      =      -0.0628242674114430 [Eh]
	 SCS Opposite-Spin Energy  =      -0.7765272124701824 [Eh]
	 SCS Correlation Energy    =      -0.8393514798816254 [Eh]
	 SCS Total Energy          =    -516.1079653098647668 [Eh]
	-----------------------------------------------------------

  Dipole Moment: [D]
     X:    -5.2919      Y:     0.0366      Z:     0.5445     Total:     5.3199

*** Psi4 exiting successfully. Buy a developer a beer!
