                               Psi4 1.3.2 release

  ==> Input File <==

--------------------------------------------------------------------------
#psi4
#
memory 32 gb

molecule  {
-1 1
  S        1.4290720    -0.0000060    -0.0599380
  C       -0.3526060    -0.0000140     0.3907100
  C       -1.0685120    -1.2503820    -0.1151110
  C       -1.0684970     1.2504130    -0.1151130
  H       -0.4328977    -0.0000009     1.5868105
  H       -1.0294530    -1.2924530    -1.2089010
  H       -0.5973500    -2.1575670     0.2732900
  H       -2.1238830    -1.2544140     0.1901240
  H       -1.0294410     1.2924540    -1.2089060
  H       -0.5972720     2.1575400     0.2733260
  H       -2.1238650     1.2544300     0.1901270
units angstrom
no_reorient  #important for SAPT in psi4, default
symmetry c1  #important for SAPT in psi4, default
}

set PROPERTIES_ORIGIN ["COM"]
properties('MP2/aug-cc-pvtz', properties = ['dipole'])
--------------------------------------------------------------------------

    Molecular point group: c1
  Charge       = -1
  Multiplicity = 1
  Basis Set: AUG-CC-PVTZ
    Blend: AUG-CC-PVTZ
  Basis Set: (AUG-CC-PVTZ AUX)
    Blend: AUG-CC-PVTZ-JKFIT

    Orbital Energies [Eh]
    ---------------------

    Doubly Occupied:

       1A    -91.668459     2A    -11.081913     3A    -11.057043
       4A    -11.057024     5A     -8.668471     6A     -6.350007
       7A     -6.348365     8A     -6.348345     9A     -0.895488
      10A     -0.769115    11A     -0.680305    12A     -0.551306
      13A     -0.447200    14A     -0.415646    15A     -0.397767
      16A     -0.377273    17A     -0.318157    18A     -0.303484
      19A     -0.221448    20A     -0.093740    21A     -0.091923

  @DF-RHF Final Energy:  -515.27029934931647

   => Energetics <=

    Nuclear Repulsion Energy =            158.3240345444258708
    One-Electron Energy =               -1030.9037134393743145
    Two-Electron Energy =                 357.3093795456318844
    Total Energy =                       -515.2702993493164740
  Basis Set: (AUG-CC-PVTZ AUX)
    Blend: AUG-CC-PVTZ-RI
    Molecular point group: c1

    Geometry (in Angstrom), charge = -1, multiplicity = 1:

       Center              X                  Y                   Z               Mass
    ------------   -----------------  -----------------  -----------------  -----------------
         S            1.324859104197    -0.000006015758    -0.061352302917    31.972071174400
         C           -0.456818895803    -0.000014015758     0.389295697083    12.000000000000
         C           -1.172724895803    -1.250382015758    -0.116525302917    12.000000000000
         C           -1.172709895803     1.250412984242    -0.116527302917    12.000000000000
         H           -0.537110595803    -0.000000915758     1.585396197083     1.007825032230
         H           -1.133665895803    -1.292453015758    -1.210315302917     1.007825032230
         H           -0.701562895803    -2.157567015758     0.271875697083     1.007825032230
         H           -2.228095895803    -1.254414015758     0.188709697083     1.007825032230
         H           -1.133653895803     1.292453984242    -1.210320302917     1.007825032230
         H           -0.701484895803     2.157539984242     0.271911697083     1.007825032230
         H           -2.228077895803     1.254429984242     0.188712697083     1.007825032230

  Basis Set: AUG-CC-PVTZ
    Blend: AUG-CC-PVTZ
  Basis Set: (AUG-CC-PVTZ AUX)
    Blend: AUG-CC-PVTZ-JKFIT
	 Reference Energy          =    -515.2702993493164740 [Eh]
	 Singles Energy            =      -0.0000000000000000 [Eh]
	 Same-Spin Energy          =      -0.1881785581292102 [Eh]
	 Opposite-Spin Energy      =      -0.6471493114051692 [Eh]
	 Correlation Energy        =      -0.8353278695343793 [Eh]
	 Total Energy              =    -516.1056272188508274 [Eh]

	 ================> DF-SCS-MP2 Energies <==================
	-----------------------------------------------------------
	 SCS Same-Spin Scale       =       0.3333333333333333 [-]
	 SCS Opposite-Spin Scale   =       1.2000000000000000 [-]
	 SCS Same-Spin Energy      =      -0.0627261860430701 [Eh]
	 SCS Opposite-Spin Energy  =      -0.7765791736862030 [Eh]
	 SCS Correlation Energy    =      -0.8393053597292730 [Eh]
	 SCS Total Energy          =    -516.1096047090456977 [Eh]
	-----------------------------------------------------------

  Dipole Moment: [D]
     X:    -5.0639      Y:    -0.0000      Z:     0.4374     Total:     5.0828

*** Psi4 exiting successfully. Buy a developer a beer!
