                               Psi4 1.3.2 release

  ==> Input File <==

--------------------------------------------------------------------------
#psi4
#
memory 32 gb

molecule  {
-1 1
  S        1.4290720    -0.0000060    -0.0599380
  C       -0.3526060    -0.0000140     0.3907100
  C       -1.0565035    -1.2359423    -0.1649931
  C       -1.0684970     1.2504130    -0.1151130
  H       -0.4065093     0.0329042     1.4876856
  H       -1.0294530    -1.2924530    -1.2089010
  H       -0.5973500    -2.1575670     0.2732900
  H       -2.1238830    -1.2544140     0.1901240
  H       -1.0294410     1.2924540    -1.2089060
  H       -0.5972720     2.1575400     0.2733260
  H       -2.1238650     1.2544300     0.1901270
units angstrom
no_reorient  #important for SAPT in psi4, default
symmetry c1  #important for SAPT in psi4, default
}

set PROPERTIES_ORIGIN ["COM"]
properties('MP2/aug-cc-pvtz', properties = ['dipole'])
--------------------------------------------------------------------------

    Molecular point group: c1
  Charge       = -1
  Multiplicity = 1
  Basis Set: AUG-CC-PVTZ
    Blend: AUG-CC-PVTZ
  Basis Set: (AUG-CC-PVTZ AUX)
    Blend: AUG-CC-PVTZ-JKFIT

    Orbital Energies [Eh]
    ---------------------

    Doubly Occupied:

       1A    -91.666564     2A    -11.069343     3A    -11.057223
       4A    -11.055166     5A     -8.666678     6A     -6.348219
       7A     -6.346583     8A     -6.346569     9A     -0.898567
      10A     -0.767963    11A     -0.682415    12A     -0.562401
      13A     -0.451256    14A     -0.412496    15A     -0.396598
      16A     -0.379221    17A     -0.323778    18A     -0.309742
      19A     -0.218250    20A     -0.092054    21A     -0.091388

  @DF-RHF Final Energy:  -515.27273022203269

   => Energetics <=

    Nuclear Repulsion Energy =            158.9484036330774757
    One-Electron Energy =               -1032.1573183875716495
    Two-Electron Energy =                 357.9361845324613682
    Total Energy =                       -515.2727302220328056
  Basis Set: (AUG-CC-PVTZ AUX)
    Blend: AUG-CC-PVTZ-RI
    Molecular point group: c1

    Geometry (in Angstrom), charge = -1, multiplicity = 1:

       Center              X                  Y                   Z               Mass
    ------------   -----------------  -----------------  -----------------  -----------------
         S            1.322583960055    -0.002757550620    -0.052042491975    31.972071174400
         C           -0.459094039945    -0.002765550620     0.398605508025    12.000000000000
         C           -1.162991539945    -1.238693850620    -0.157097591975    12.000000000000
         C           -1.174985039945     1.247661449380    -0.107217491975    12.000000000000
         H           -0.512997339945     0.030152649380     1.495581108025     1.007825032230
         H           -1.135941039945    -1.295204550620    -1.201005491975     1.007825032230
         H           -0.703838039945    -2.160318550620     0.281185508025     1.007825032230
         H           -2.230371039945    -1.257165550620     0.198019508025     1.007825032230
         H           -1.135929039945     1.289702449380    -1.201010491975     1.007825032230
         H           -0.703760039945     2.154788449380     0.281221508025     1.007825032230
         H           -2.230353039945     1.251678449380     0.198022508025     1.007825032230

  Basis Set: AUG-CC-PVTZ
    Blend: AUG-CC-PVTZ
  Basis Set: (AUG-CC-PVTZ AUX)
    Blend: AUG-CC-PVTZ-JKFIT
	 Reference Energy          =    -515.2727302220326919 [Eh]
	 Singles Energy            =      -0.0000000000000000 [Eh]
	 Same-Spin Energy          =      -0.1881720562626971 [Eh]
	 Opposite-Spin Energy      =      -0.6466091902516000 [Eh]
	 Correlation Energy        =      -0.8347812465142972 [Eh]
	 Total Energy              =    -516.1075114685470453 [Eh]

	 ================> DF-SCS-MP2 Energies <==================
	-----------------------------------------------------------
	 SCS Same-Spin Scale       =       0.3333333333333333 [-]
	 SCS Opposite-Spin Scale   =       1.2000000000000000 [-]
	 SCS Same-Spin Energy      =      -0.0627240187542324 [Eh]
	 SCS Opposite-Spin Energy  =      -0.7759310283019200 [Eh]
	 SCS Correlation Energy    =      -0.8386550470561523 [Eh]
	 SCS Total Energy          =    -516.1113852690888280 [Eh]
	-----------------------------------------------------------

  Dipole Moment: [D]
     X:    -5.1340      Y:     0.0003      Z:     0.5034     Total:     5.1586

*** Psi4 exiting successfully. Buy a developer a beer!
