                               Psi4 1.3.2 release

  ==> Input File <==

--------------------------------------------------------------------------
#psi4
#
memory 32 gb

molecule  {
-1 1
  S        1.4308527     0.0141491    -0.0526122
  C       -0.3526060    -0.0000140     0.3907100
  C       -1.0798963    -1.2459440    -0.1097934
  C       -1.0684970     1.2504130    -0.1151130
  H       -0.4262000    -0.0000020     1.4870350
  H       -1.0294530    -1.2924530    -1.2089010
  H       -0.5973500    -2.1575670     0.2732900
  H       -2.1238830    -1.2544140     0.1901240
  H       -1.0294410     1.2924540    -1.2089060
  H       -0.5972720     2.1575400     0.2733260
  H       -2.1238650     1.2544300     0.1901270
units angstrom
no_reorient  #important for SAPT in psi4, default
symmetry c1  #important for SAPT in psi4, default
}

set PROPERTIES_ORIGIN ["COM"]
properties('MP2/aug-cc-pvtz', properties = ['dipole'])
--------------------------------------------------------------------------

    Molecular point group: c1
  Charge       = -1
  Multiplicity = 1
  Basis Set: AUG-CC-PVTZ
    Blend: AUG-CC-PVTZ
  Basis Set: (AUG-CC-PVTZ AUX)
    Blend: AUG-CC-PVTZ-JKFIT

    Orbital Energies [Eh]
    ---------------------

    Doubly Occupied:

       1A    -91.667344     2A    -11.068823     3A    -11.055965
       4A    -11.055388     5A     -8.667340     6A     -6.348884
       7A     -6.347244     8A     -6.347234     9A     -0.897922
      10A     -0.767949    11A     -0.682063    12A     -0.561296
      13A     -0.449549    14A     -0.416496    15A     -0.397311
      16A     -0.376549    17A     -0.315093    18A     -0.313101
      19A     -0.221470    20A     -0.092867    21A     -0.091594

  @DF-RHF Final Energy:  -515.27605164311115

   => Energetics <=

    Nuclear Repulsion Energy =            158.7305755950844741
    One-Electron Energy =               -1031.7302878167813560
    Two-Electron Energy =                 357.7236605785857364
    Total Energy =                       -515.2760516431111455
  Basis Set: (AUG-CC-PVTZ AUX)
    Blend: AUG-CC-PVTZ-RI
    Molecular point group: c1

    Geometry (in Angstrom), charge = -1, multiplicity = 1:

       Center              X                  Y                   Z               Mass
    ------------   -----------------  -----------------  -----------------  -----------------
         S            1.327611840563     0.007407194101    -0.056658573462    31.972071174400
         C           -0.455846859437    -0.006755905899     0.386663626538    12.000000000000
         C           -1.183137159437    -1.252685905899    -0.113839773462    12.000000000000
         C           -1.171737859437     1.243671094101    -0.119159373462    12.000000000000
         H           -0.529440859437    -0.006743905899     1.482988626538     1.007825032230
         H           -1.132693859437    -1.299194905899    -1.212947373462     1.007825032230
         H           -0.700590859437    -2.164308905899     0.269243626538     1.007825032230
         H           -2.227123859437    -1.261155905899     0.186077626538     1.007825032230
         H           -1.132681859437     1.285712094101    -1.212952373462     1.007825032230
         H           -0.700512859437     2.150798094101     0.269279626538     1.007825032230
         H           -2.227105859437     1.247688094101     0.186080626538     1.007825032230

  Basis Set: AUG-CC-PVTZ
    Blend: AUG-CC-PVTZ
  Basis Set: (AUG-CC-PVTZ AUX)
    Blend: AUG-CC-PVTZ-JKFIT
	 Reference Energy          =    -515.2760516431111455 [Eh]
	 Singles Energy            =      -0.0000000000000000 [Eh]
	 Same-Spin Energy          =      -0.1881195512522872 [Eh]
	 Opposite-Spin Energy      =      -0.6464692648511070 [Eh]
	 Correlation Energy        =      -0.8345888161033942 [Eh]
	 Total Energy              =    -516.1106404592145509 [Eh]

	 ================> DF-SCS-MP2 Energies <==================
	-----------------------------------------------------------
	 SCS Same-Spin Scale       =       0.3333333333333333 [-]
	 SCS Opposite-Spin Scale   =       1.2000000000000000 [-]
	 SCS Same-Spin Energy      =      -0.0627065170840957 [Eh]
	 SCS Opposite-Spin Energy  =      -0.7757631178213283 [Eh]
	 SCS Correlation Energy    =      -0.8384696349054240 [Eh]
	 SCS Total Energy          =    -516.1145212780165821 [Eh]
	-----------------------------------------------------------

  Dipole Moment: [D]
     X:    -5.1726      Y:    -0.0187      Z:     0.5634     Total:     5.2032

*** Psi4 exiting successfully. Buy a developer a beer!
