                               Psi4 1.3.2 release

  ==> Input File <==

--------------------------------------------------------------------------
#psi4
#
memory 32 gb

molecule  {
-1 1
  S        1.4290720    -0.0000060    -0.0599380
  C       -0.3526060    -0.0000140     0.3907100
  C       -1.0685120    -1.2503820    -0.1151110
  C       -1.0684970     1.2504130    -0.1151130
  H       -0.4128046    -0.0000042     1.2874841
  H       -1.0294530    -1.2924530    -1.2089010
  H       -0.5973500    -2.1575670     0.2732900
  H       -2.1238830    -1.2544140     0.1901240
  H       -1.0294410     1.2924540    -1.2089060
  H       -0.5972720     2.1575400     0.2733260
  H       -2.1238650     1.2544300     0.1901270
units angstrom
no_reorient  #important for SAPT in psi4, default
symmetry c1  #important for SAPT in psi4, default
}

set PROPERTIES_ORIGIN ["COM"]
properties('MP2/aug-cc-pvtz', properties = ['dipole'])
--------------------------------------------------------------------------

    Molecular point group: c1
  Charge       = -1
  Multiplicity = 1
  Basis Set: AUG-CC-PVTZ
    Blend: AUG-CC-PVTZ
  Basis Set: (AUG-CC-PVTZ AUX)
    Blend: AUG-CC-PVTZ-JKFIT

    Orbital Energies [Eh]
    ---------------------

    Doubly Occupied:

       1A    -91.665589     2A    -11.054272     3A    -11.054267
       4A    -11.042073     5A     -8.665610     6A     -6.347158
       7A     -6.345537     8A     -6.345533     9A     -0.908822
      10A     -0.767121    11A     -0.690171    12A     -0.590165
      13A     -0.455271    14A     -0.414383    15A     -0.395972
      16A     -0.375802    17A     -0.332549    18A     -0.314877
      19A     -0.219850    20A     -0.091662    21A     -0.091279

  @DF-RHF Final Energy:  -515.24398832379700

   => Energetics <=

    Nuclear Repulsion Energy =            159.9025161095200644
    One-Electron Energy =               -1033.9570811348617099
    Two-Electron Energy =                 358.8105767015446190
    Total Energy =                       -515.2439883237969980
  Basis Set: (AUG-CC-PVTZ AUX)
    Blend: AUG-CC-PVTZ-RI
    Molecular point group: c1

    Geometry (in Angstrom), charge = -1, multiplicity = 1:

       Center              X                  Y                   Z               Mass
    ------------   -----------------  -----------------  -----------------  -----------------
         S            1.324589196422    -0.000005971430    -0.057331493657    31.972071174400
         C           -0.457088803578    -0.000013971430     0.393316506343    12.000000000000
         C           -1.172994803578    -1.250381971430    -0.112504493657    12.000000000000
         C           -1.172979803578     1.250413028570    -0.112506493657    12.000000000000
         H           -0.517287403578    -0.000004171430     1.290090606343     1.007825032230
         H           -1.133935803578    -1.292452971430    -1.206294493657     1.007825032230
         H           -0.701832803578    -2.157566971430     0.275896506343     1.007825032230
         H           -2.228365803578    -1.254413971430     0.192730506343     1.007825032230
         H           -1.133923803578     1.292454028570    -1.206299493657     1.007825032230
         H           -0.701754803578     2.157540028570     0.275932506343     1.007825032230
         H           -2.228347803578     1.254430028570     0.192733506343     1.007825032230

  Basis Set: AUG-CC-PVTZ
    Blend: AUG-CC-PVTZ
  Basis Set: (AUG-CC-PVTZ AUX)
    Blend: AUG-CC-PVTZ-JKFIT
	 Reference Energy          =    -515.2439883237969980 [Eh]
	 Singles Energy            =      -0.0000000000000000 [Eh]
	 Same-Spin Energy          =      -0.1880384911890427 [Eh]
	 Opposite-Spin Energy      =      -0.6458728676787615 [Eh]
	 Correlation Energy        =      -0.8339113588678042 [Eh]
	 Total Energy              =    -516.0778996826647926 [Eh]

	 ================> DF-SCS-MP2 Energies <==================
	-----------------------------------------------------------
	 SCS Same-Spin Scale       =       0.3333333333333333 [-]
	 SCS Opposite-Spin Scale   =       1.2000000000000000 [-]
	 SCS Same-Spin Energy      =      -0.0626794970630142 [Eh]
	 SCS Opposite-Spin Energy  =      -0.7750474412145137 [Eh]
	 SCS Correlation Energy    =      -0.8377269382775280 [Eh]
	 SCS Total Energy          =    -516.0817152620745674 [Eh]
	-----------------------------------------------------------

  Dipole Moment: [D]
     X:    -5.2769      Y:    -0.0000      Z:     0.6734     Total:     5.3197

*** Psi4 exiting successfully. Buy a developer a beer!
