                               Psi4 1.3.2 release

  ==> Input File <==

--------------------------------------------------------------------------
#psi4
#
memory 32 gb

molecule  {
-1 1
  S        1.4290720    -0.0000060    -0.0599380
  C       -0.3526060    -0.0000140     0.3907100
  C       -1.0140862    -1.2945446    -0.0766559
  C       -1.0140685     1.2945749    -0.0766565
  H       -0.4262000    -0.0000020     1.4870350
  H       -1.0294530    -1.2924530    -1.2089010
  H       -0.5973500    -2.1575670     0.2732900
  H       -2.1238830    -1.2544140     0.1901240
  H       -1.0294410     1.2924540    -1.2089060
  H       -0.5972720     2.1575400     0.2733260
  H       -2.1238650     1.2544300     0.1901270
units angstrom
no_reorient  #important for SAPT in psi4, default
symmetry c1  #important for SAPT in psi4, default
}

set PROPERTIES_ORIGIN ["COM"]
properties('MP2/aug-cc-pvtz', properties = ['dipole'])
--------------------------------------------------------------------------

    Molecular point group: c1
  Charge       = -1
  Multiplicity = 1
  Basis Set: AUG-CC-PVTZ
    Blend: AUG-CC-PVTZ
  Basis Set: (AUG-CC-PVTZ AUX)
    Blend: AUG-CC-PVTZ-JKFIT

    Orbital Energies [Eh]
    ---------------------

    Doubly Occupied:

       1A    -91.666095     2A    -11.070640     3A    -11.060052
       4A    -11.060022     5A     -8.666295     6A     -6.347831
       7A     -6.346191     8A     -6.346188     9A     -0.897674
      10A     -0.775420    11A     -0.680077    12A     -0.563749
      13A     -0.465519    14A     -0.406677    15A     -0.401730
      16A     -0.357646    17A     -0.347688    18A     -0.302656
      19A     -0.215079    20A     -0.091811    21A     -0.090689

  @DF-RHF Final Energy:  -515.26088012626701

   => Energetics <=

    Nuclear Repulsion Energy =            158.8297710188201393
    One-Electron Energy =               -1031.8618484679366247
    Two-Electron Energy =                 357.7711973228495594
    Total Energy =                       -515.2608801262670113
  Basis Set: (AUG-CC-PVTZ AUX)
    Blend: AUG-CC-PVTZ-RI
    Molecular point group: c1

    Geometry (in Angstrom), charge = -1, multiplicity = 1:

       Center              X                  Y                   Z               Mass
    ------------   -----------------  -----------------  -----------------  -----------------
         S            1.307358679046    -0.000005889022    -0.072313485386    31.972071174400
         C           -0.474319320954    -0.000013889022     0.378334514614    12.000000000000
         C           -1.135799520954    -1.294544489022    -0.089031385386    12.000000000000
         C           -1.135781820954     1.294575010978    -0.089031985386    12.000000000000
         H           -0.547913320954    -0.000001889022     1.474659514614     1.007825032230
         H           -1.151166320954    -1.292452889022    -1.221276485386     1.007825032230
         H           -0.719063320954    -2.157566889022     0.260914514614     1.007825032230
         H           -2.245596320954    -1.254413889022     0.177748514614     1.007825032230
         H           -1.151154320954     1.292454110978    -1.221281485386     1.007825032230
         H           -0.718985320954     2.157540110978     0.260950514614     1.007825032230
         H           -2.245578320954     1.254430110978     0.177751514614     1.007825032230

  Basis Set: AUG-CC-PVTZ
    Blend: AUG-CC-PVTZ
  Basis Set: (AUG-CC-PVTZ AUX)
    Blend: AUG-CC-PVTZ-JKFIT
	 Reference Energy          =    -515.2608801262670113 [Eh]
	 Singles Energy            =      -0.0000000000000000 [Eh]
	 Same-Spin Energy          =      -0.1882777629519755 [Eh]
	 Opposite-Spin Energy      =      -0.6469910171362243 [Eh]
	 Correlation Energy        =      -0.8352687800881997 [Eh]
	 Total Energy              =    -516.0961489063552108 [Eh]

	 ================> DF-SCS-MP2 Energies <==================
	-----------------------------------------------------------
	 SCS Same-Spin Scale       =       0.3333333333333333 [-]
	 SCS Opposite-Spin Scale   =       1.2000000000000000 [-]
	 SCS Same-Spin Energy      =      -0.0627592543173252 [Eh]
	 SCS Opposite-Spin Energy  =      -0.7763892205634692 [Eh]
	 SCS Correlation Energy    =      -0.8391484748807942 [Eh]
	 SCS Total Energy          =    -516.1000286011477556 [Eh]
	-----------------------------------------------------------

  Dipole Moment: [D]
     X:    -4.9942      Y:    -0.0000      Z:     0.6377     Total:     5.0347

*** Psi4 exiting successfully. Buy a developer a beer!
