                               Psi4 1.3.2 release

  ==> Input File <==

--------------------------------------------------------------------------
#psi4
#
memory 32 gb

molecule  {
-1 1
  S        1.4290720    -0.0000060    -0.0599380
  C       -0.3526060    -0.0000140     0.3907100
  C       -1.0685120    -1.2503820    -0.1151110
  C       -1.0684970     1.2504130    -0.1151130
  H       -0.4262000    -0.0000020     1.4870350
  H       -1.0294530    -1.2924530    -1.2089010
  H       -0.5973500    -2.1575670     0.2732900
  H       -2.1238830    -1.2544140     0.1901240
  H       -1.0294410     1.2924540    -1.2089060
  H       -0.5972720     2.1575400     0.2733260
  H       -2.1238650     1.2544300     0.1901270
units angstrom
no_reorient  #important for SAPT in psi4, default
symmetry c1  #important for SAPT in psi4, default
}

set PROPERTIES_ORIGIN ["COM"]
properties('MP2/aug-cc-pvtz', properties = ['dipole'])
--------------------------------------------------------------------------

    Molecular point group: c1
  Charge       = -1
  Multiplicity = 1
  Basis Set: AUG-CC-PVTZ
    Blend: AUG-CC-PVTZ
  Basis Set: (AUG-CC-PVTZ AUX)
    Blend: AUG-CC-PVTZ-JKFIT

    Orbital Energies [Eh]
    ---------------------

    Doubly Occupied:

       1A    -91.667113     2A    -11.068923     3A    -11.055792
       4A    -11.055767     5A     -8.667140     6A     -6.348683
       7A     -6.347045     8A     -6.347034     9A     -0.897894
      10A     -0.768171    11A     -0.681657    12A     -0.561641
      13A     -0.450195    14A     -0.414988    15A     -0.396850
      16A     -0.376548    17A     -0.316648    18A     -0.314185
      19A     -0.220672    20A     -0.092605    21A     -0.091575

  @DF-RHF Final Energy:  -515.27628895857970

   => Energetics <=

    Nuclear Repulsion Energy =            158.7903017414896283
    One-Electron Energy =               -1031.8509296812844696
    Two-Electron Energy =                 357.7843389812151145
    Total Energy =                       -515.2762889585796984
  Basis Set: (AUG-CC-PVTZ AUX)
    Blend: AUG-CC-PVTZ-RI
    Molecular point group: c1

    Geometry (in Angstrom), charge = -1, multiplicity = 1:

       Center              X                  Y                   Z               Mass
    ------------   -----------------  -----------------  -----------------  -----------------
         S            1.324769134939    -0.000006000982    -0.060012032716    31.972071174400
         C           -0.456908865061    -0.000014000982     0.390635967284    12.000000000000
         C           -1.172814865061    -1.250382000982    -0.115185032716    12.000000000000
         C           -1.172799865061     1.250412999018    -0.115187032716    12.000000000000
         H           -0.530502865061    -0.000002000982     1.486960967284     1.007825032230
         H           -1.133755865061    -1.292453000982    -1.208975032716     1.007825032230
         H           -0.701652865061    -2.157567000982     0.273215967284     1.007825032230
         H           -2.228185865061    -1.254414000982     0.190049967284     1.007825032230
         H           -1.133743865061     1.292453999018    -1.208980032716     1.007825032230
         H           -0.701574865061     2.157539999018     0.273251967284     1.007825032230
         H           -2.228167865061     1.254429999018     0.190052967284     1.007825032230

  Basis Set: AUG-CC-PVTZ
    Blend: AUG-CC-PVTZ
  Basis Set: (AUG-CC-PVTZ AUX)
    Blend: AUG-CC-PVTZ-JKFIT
	 Reference Energy          =    -515.2762889585796984 [Eh]
	 Singles Energy            =      -0.0000000000000000 [Eh]
	 Same-Spin Energy          =      -0.1881118271796227 [Eh]
	 Opposite-Spin Energy      =      -0.6464506026121335 [Eh]
	 Correlation Energy        =      -0.8345624297917562 [Eh]
	 Total Energy              =    -516.1108513883714295 [Eh]

	 ================> DF-SCS-MP2 Energies <==================
	-----------------------------------------------------------
	 SCS Same-Spin Scale       =       0.3333333333333333 [-]
	 SCS Opposite-Spin Scale   =       1.2000000000000000 [-]
	 SCS Same-Spin Energy      =      -0.0627039423932075 [Eh]
	 SCS Opposite-Spin Energy  =      -0.7757407231345602 [Eh]
	 SCS Correlation Energy    =      -0.8384446655277678 [Eh]
	 SCS Total Energy          =    -516.1147336241074299 [Eh]
	-----------------------------------------------------------

  Dipole Moment: [D]
     X:    -5.1526      Y:    -0.0000      Z:     0.5643     Total:     5.1834

*** Psi4 exiting successfully. Buy a developer a beer!
