                               Psi4 1.3.2 release

  ==> Input File <==

--------------------------------------------------------------------------
#psi4
#
memory 32 gb

molecule  {
-1 1
  S        1.4290720    -0.0000060    -0.0599380
  C       -0.3526060    -0.0000140     0.3907100
  C       -1.0862251    -1.2348933    -0.1276264
  C       -1.0862110     1.2349245    -0.1276288
  H       -0.4262000    -0.0000020     1.4870350
  H       -1.0294530    -1.2924530    -1.2089010
  H       -0.5973500    -2.1575670     0.2732900
  H       -2.1238830    -1.2544140     0.1901240
  H       -1.0294410     1.2924540    -1.2089060
  H       -0.5972720     2.1575400     0.2733260
  H       -2.1238650     1.2544300     0.1901270
units angstrom
no_reorient  #important for SAPT in psi4, default
symmetry c1  #important for SAPT in psi4, default
}

set PROPERTIES_ORIGIN ["COM"]
properties('MP2/aug-cc-pvtz', properties = ['dipole'])
--------------------------------------------------------------------------

    Molecular point group: c1
  Charge       = -1
  Multiplicity = 1
  Basis Set: AUG-CC-PVTZ
    Blend: AUG-CC-PVTZ
  Basis Set: (AUG-CC-PVTZ AUX)
    Blend: AUG-CC-PVTZ-JKFIT

    Orbital Energies [Eh]
    ---------------------

    Doubly Occupied:

       1A    -91.667610     2A    -11.068830     3A    -11.055099
       4A    -11.055075     5A     -8.667583     6A     -6.349128
       7A     -6.347488     8A     -6.347475     9A     -0.898545
      10A     -0.766457    11A     -0.682755    12A     -0.561893
      13A     -0.449308    14A     -0.413955    15A     -0.395982
      16A     -0.382998    17A     -0.317385    18A     -0.305079
      19A     -0.222543    20A     -0.092985    21A     -0.092040

  @DF-RHF Final Energy:  -515.27462369562943

   => Energetics <=

    Nuclear Repulsion Energy =            158.7957459060758936
    One-Electron Energy =               -1031.8603171460395060
    Two-Electron Energy =                 357.7899475443342112
    Total Energy =                       -515.2746236956293160
  Basis Set: (AUG-CC-PVTZ AUX)
    Blend: AUG-CC-PVTZ-RI
    Molecular point group: c1

    Geometry (in Angstrom), charge = -1, multiplicity = 1:

       Center              X                  Y                   Z               Mass
    ------------   -----------------  -----------------  -----------------  -----------------
         S            1.330435442672    -0.000006032970    -0.056008473798    31.972071174400
         C           -0.451242557328    -0.000014032970     0.394639526202    12.000000000000
         C           -1.184861657328    -1.234893332970    -0.123696873798    12.000000000000
         C           -1.184847557328     1.234924467030    -0.123699273798    12.000000000000
         H           -0.524836557328    -0.000002032970     1.490964526202     1.007825032230
         H           -1.128089557328    -1.292453032970    -1.204971473798     1.007825032230
         H           -0.695986557328    -2.157567032970     0.277219526202     1.007825032230
         H           -2.222519557328    -1.254414032970     0.194053526202     1.007825032230
         H           -1.128077557328     1.292453967030    -1.204976473798     1.007825032230
         H           -0.695908557328     2.157539967030     0.277255526202     1.007825032230
         H           -2.222501557328     1.254429967030     0.194056526202     1.007825032230

  Basis Set: AUG-CC-PVTZ
    Blend: AUG-CC-PVTZ
  Basis Set: (AUG-CC-PVTZ AUX)
    Blend: AUG-CC-PVTZ-JKFIT
	 Reference Energy          =    -515.2746236956294297 [Eh]
	 Singles Energy            =      -0.0000000000000000 [Eh]
	 Same-Spin Energy          =      -0.1881832631431230 [Eh]
	 Opposite-Spin Energy      =      -0.6466137484231065 [Eh]
	 Correlation Energy        =      -0.8347970115662295 [Eh]
	 Total Energy              =    -516.1094207071956816 [Eh]

	 ================> DF-SCS-MP2 Energies <==================
	-----------------------------------------------------------
	 SCS Same-Spin Scale       =       0.3333333333333333 [-]
	 SCS Opposite-Spin Scale   =       1.2000000000000000 [-]
	 SCS Same-Spin Energy      =      -0.0627277543810410 [Eh]
	 SCS Opposite-Spin Energy  =      -0.7759364981077278 [Eh]
	 SCS Correlation Energy    =      -0.8386642524887689 [Eh]
	 SCS Total Energy          =    -516.1132879481182272 [Eh]
	-----------------------------------------------------------

  Dipole Moment: [D]
     X:    -5.1934      Y:    -0.0000      Z:     0.5384     Total:     5.2213

*** Psi4 exiting successfully. Buy a developer a beer!
