                               Psi4 1.4a3.dev225

  ==> Input File <==

--------------------------------------------------------------------------
#psi4
#
memory 32 gb

molecule  {
-1 1
  S        0.8760760     1.1282850     0.0000000
  C       -0.5091793    -0.0473597     0.0000000
  C       -0.5244280    -0.9363990     1.2509370
  C       -0.5244280    -0.9363990    -1.2509370
  H       -1.4611330     0.5136640     0.0000000
  H        0.3938430    -1.5316650     1.2938450
  H       -0.5721740    -0.3268970     2.1577640
  H       -1.3798600    -1.6252560     1.2536820
  H        0.3938430    -1.5316650    -1.2938450
  H       -0.5721740    -0.3268970    -2.1577640
  H       -1.3798600    -1.6252560    -1.2536820
units angstrom
no_reorient  #important for SAPT in psi4, default
symmetry c1  #important for SAPT in psi4, default
}

set PROPERTIES_ORIGIN ["COM"]
properties('MP2/aug-cc-pvtz', properties = ['dipole'])
--------------------------------------------------------------------------

    Molecular point group: c1
  Charge       = -1
  Multiplicity = 1
  Basis Set: AUG-CC-PVTZ
    Blend: AUG-CC-PVTZ
  Basis Set: (AUG-CC-PVTZ AUX)
    Blend: AUG-CC-PVTZ-JKFIT

    Orbital Energies [Eh]
    ---------------------

    Doubly Occupied:

       1A    -91.666914     2A    -11.069642     3A    -11.055433
       4A    -11.055410     5A     -8.667291     6A     -6.348890
       7A     -6.347205     8A     -6.347196     9A     -0.896383
      10A     -0.766759    11A     -0.685268    12A     -0.560144
      13A     -0.448467    14A     -0.414244    15A     -0.396515
      16A     -0.375875    17A     -0.313287    18A     -0.311697
      19A     -0.226424    20A     -0.092931    21A     -0.091802

  @DF-RHF Final Energy:  -515.27610197009051

   => Energetics <=

    Nuclear Repulsion Energy =            158.9905870269542163
    One-Electron Energy =               -1032.2578284344731401
    Two-Electron Energy =                 357.9911394374283304
    Total Energy =                       -515.2761019700906218
  Basis Set: (AUG-CC-PVTZ AUX)
    Blend: AUG-CC-PVTZ-RI
    Molecular point group: c1

    Geometry (in Angstrom), charge = -1, multiplicity = 1:

       Center              X                  Y                   Z               Mass
    ------------   -----------------  -----------------  -----------------  -----------------
         S            0.813429005633     1.041286256226     0.000000000000    31.972071174400
         C           -0.571826294367    -0.134358443774     0.000000000000    12.000000000000
         C           -0.587074994367    -1.023397743774     1.250937000000    12.000000000000
         C           -0.587074994367    -1.023397743774    -1.250937000000    12.000000000000
         H           -1.523779994367     0.426665256226     0.000000000000     1.007825032230
         H            0.331196005633    -1.618663743774     1.293845000000     1.007825032230
         H           -0.634820994367    -0.413895743774     2.157764000000     1.007825032230
         H           -1.442506994367    -1.712254743774     1.253682000000     1.007825032230
         H            0.331196005633    -1.618663743774    -1.293845000000     1.007825032230
         H           -0.634820994367    -0.413895743774    -2.157764000000     1.007825032230
         H           -1.442506994367    -1.712254743774    -1.253682000000     1.007825032230

  Basis Set: AUG-CC-PVTZ
    Blend: AUG-CC-PVTZ
  Basis Set: (AUG-CC-PVTZ AUX)
    Blend: AUG-CC-PVTZ-JKFIT
	 Reference Energy          =    -515.2761019700905081 [Eh]
	 Singles Energy            =      -0.0000000000000000 [Eh]
	 Same-Spin Energy          =      -0.1882407739567631 [Eh]
	 Opposite-Spin Energy      =      -0.6465227549509978 [Eh]
	 Correlation Energy        =      -0.8347635289077608 [Eh]
	 Total Energy              =    -516.1108654989982369 [Eh]

	 ================> DF-SCS-MP2 Energies <==================
	-----------------------------------------------------------
	 SCS Same-Spin Scale       =       0.3333333333333333 [-]
	 SCS Opposite-Spin Scale   =       1.2000000000000000 [-]
	 SCS Same-Spin Energy      =      -0.0627469246522544 [Eh]
	 SCS Opposite-Spin Energy  =      -0.7758273059411973 [Eh]
	 SCS Correlation Energy    =      -0.8385742305934517 [Eh]
	 SCS Total Energy          =    -516.1146762006840163 [Eh]
	-----------------------------------------------------------

  Dipole Moment: [D]
     X:    -3.3983      Y:    -3.8104      Z:     0.0000     Total:     5.1056

*** Psi4 exiting successfully. Buy a developer a beer!
