                               Psi4 1.3.2 release

  ==> Input File <==

--------------------------------------------------------------------------
#psi4
#
memory 32 gb

molecule  {
-1 1
  S        1.4290720    -0.0000060    -0.0599380
  C       -0.3526060    -0.0000140     0.3907100
  C       -1.0501767    -1.2281566    -0.1896841
  C       -1.0684970     1.2504130    -0.1151130
  H       -0.3966379     0.0493448     1.4875097
  H       -1.0294530    -1.2924530    -1.2089010
  H       -0.5973500    -2.1575670     0.2732900
  H       -2.1238830    -1.2544140     0.1901240
  H       -1.0294410     1.2924540    -1.2089060
  H       -0.5972720     2.1575400     0.2733260
  H       -2.1238650     1.2544300     0.1901270
units angstrom
no_reorient  #important for SAPT in psi4, default
symmetry c1  #important for SAPT in psi4, default
}

set PROPERTIES_ORIGIN ["COM"]
properties('MP2/aug-cc-pvtz', properties = ['dipole'])
--------------------------------------------------------------------------

    Molecular point group: c1
  Charge       = -1
  Multiplicity = 1
  Basis Set: AUG-CC-PVTZ
    Blend: AUG-CC-PVTZ
  Basis Set: (AUG-CC-PVTZ AUX)
    Blend: AUG-CC-PVTZ-JKFIT

    Orbital Energies [Eh]
    ---------------------

    Doubly Occupied:

       1A    -91.666358     2A    -11.069743     3A    -11.058378
       4A    -11.054913     5A     -8.666517     6A     -6.348056
       7A     -6.346421     8A     -6.346405     9A     -0.899104
      10A     -0.768190    11A     -0.683056    12A     -0.563182
      13A     -0.451560    14A     -0.414106    15A     -0.398195
      16A     -0.377040    17A     -0.327465    18A     -0.306136
      19A     -0.217014    20A     -0.091850    21A     -0.091325

  @DF-RHF Final Energy:  -515.26808446297798

   => Energetics <=

    Nuclear Repulsion Energy =            159.0333882134588634
    One-Electron Energy =               -1032.3129155715223533
    Two-Electron Energy =                 358.0114428950854517
    Total Energy =                       -515.2680844629779813
  Basis Set: (AUG-CC-PVTZ AUX)
    Blend: AUG-CC-PVTZ-RI
    Molecular point group: c1

    Geometry (in Angstrom), charge = -1, multiplicity = 1:

       Center              X                  Y                   Z               Mass
    ------------   -----------------  -----------------  -----------------  -----------------
         S            1.321439433154    -0.004223661133    -0.048090982740    31.972071174400
         C           -0.460238566846    -0.004231661133     0.402557017260    12.000000000000
         C           -1.157809266846    -1.232374261133    -0.177837082740    12.000000000000
         C           -1.176129566846     1.246195338867    -0.103265982740    12.000000000000
         H           -0.504270466846     0.045127138867     1.499356717260     1.007825032230
         H           -1.137085566846    -1.296670661133    -1.197053982740     1.007825032230
         H           -0.704982566846    -2.161784661133     0.285137017260     1.007825032230
         H           -2.231515566846    -1.258631661133     0.201971017260     1.007825032230
         H           -1.137073566846     1.288236338867    -1.197058982740     1.007825032230
         H           -0.704904566846     2.153322338867     0.285173017260     1.007825032230
         H           -2.231497566846     1.250212338867     0.201974017260     1.007825032230

  Basis Set: AUG-CC-PVTZ
    Blend: AUG-CC-PVTZ
  Basis Set: (AUG-CC-PVTZ AUX)
    Blend: AUG-CC-PVTZ-JKFIT
	 Reference Energy          =    -515.2680844629779813 [Eh]
	 Singles Energy            =      -0.0000000000000000 [Eh]
	 Same-Spin Energy          =      -0.1882565641329930 [Eh]
	 Opposite-Spin Energy      =      -0.6468265392135659 [Eh]
	 Correlation Energy        =      -0.8350831033465589 [Eh]
	 Total Energy              =    -516.1031675663244869 [Eh]

	 ================> DF-SCS-MP2 Energies <==================
	-----------------------------------------------------------
	 SCS Same-Spin Scale       =       0.3333333333333333 [-]
	 SCS Opposite-Spin Scale   =       1.2000000000000000 [-]
	 SCS Same-Spin Energy      =      -0.0627521880443310 [Eh]
	 SCS Opposite-Spin Energy  =      -0.7761918470562791 [Eh]
	 SCS Correlation Energy    =      -0.8389440351006101 [Eh]
	 SCS Total Energy          =    -516.1070284980785345 [Eh]
	-----------------------------------------------------------

  Dipole Moment: [D]
     X:    -5.1186      Y:     0.0051      Z:     0.4763     Total:     5.1407

*** Psi4 exiting successfully. Buy a developer a beer!
