                               Psi4 1.3.2 release

  ==> Input File <==

--------------------------------------------------------------------------
#psi4
#
memory 32 gb

molecule  {
-1 1
  S        1.4329368    -0.0000058    -0.0443730
  C       -0.3526060    -0.0000140     0.3907100
  C       -1.0685120    -1.2503820    -0.1151110
  C       -1.0684970     1.2504130    -0.1151130
  H       -0.4166301    -0.0000019     1.4876355
  H       -1.0294530    -1.2924530    -1.2089010
  H       -0.5973500    -2.1575670     0.2732900
  H       -2.1238830    -1.2544140     0.1901240
  H       -1.0294410     1.2924540    -1.2089060
  H       -0.5972720     2.1575400     0.2733260
  H       -2.1238650     1.2544300     0.1901270
units angstrom
no_reorient  #important for SAPT in psi4, default
symmetry c1  #important for SAPT in psi4, default
}

set PROPERTIES_ORIGIN ["COM"]
properties('MP2/aug-cc-pvtz', properties = ['dipole'])
--------------------------------------------------------------------------

    Molecular point group: c1
  Charge       = -1
  Multiplicity = 1
  Basis Set: AUG-CC-PVTZ
    Blend: AUG-CC-PVTZ
  Basis Set: (AUG-CC-PVTZ AUX)
    Blend: AUG-CC-PVTZ-JKFIT

    Orbital Energies [Eh]
    ---------------------

    Doubly Occupied:

       1A    -91.667030     2A    -11.068871     3A    -11.056030
       4A    -11.056004     5A     -8.667062     6A     -6.348605
       7A     -6.346965     8A     -6.346956     9A     -0.897849
      10A     -0.768331    11A     -0.682199    12A     -0.560949
      13A     -0.450465    14A     -0.415204    15A     -0.396996
      16A     -0.376732    17A     -0.316758    18A     -0.314910
      19A     -0.220250    20A     -0.092631    21A     -0.091295

  @DF-RHF Final Energy:  -515.27627401656594

   => Energetics <=

    Nuclear Repulsion Energy =            158.7328871428479999
    One-Electron Energy =               -1031.7341370934220777
    Two-Electron Energy =                 357.7249759340082278
    Total Energy =                       -515.2762740165658215
  Basis Set: (AUG-CC-PVTZ AUX)
    Blend: AUG-CC-PVTZ-RI
    Molecular point group: c1

    Geometry (in Angstrom), charge = -1, multiplicity = 1:

       Center              X                  Y                   Z               Mass
    ------------   -----------------  -----------------  -----------------  -----------------
         S            1.326858431211    -0.000005887554    -0.051087995393    31.972071174400
         C           -0.458684368789    -0.000014087554     0.383995004607    12.000000000000
         C           -1.174590368789    -1.250382087554    -0.121825995393    12.000000000000
         C           -1.174575368789     1.250412912446    -0.121827995393    12.000000000000
         H           -0.522708468789    -0.000001987554     1.480920504607     1.007825032230
         H           -1.135531368789    -1.292453087554    -1.215615995393     1.007825032230
         H           -0.703428368789    -2.157567087554     0.266575004607     1.007825032230
         H           -2.229961368789    -1.254414087554     0.183409004607     1.007825032230
         H           -1.135519368789     1.292453912446    -1.215620995393     1.007825032230
         H           -0.703350368789     2.157539912446     0.266611004607     1.007825032230
         H           -2.229943368789     1.254429912446     0.183412004607     1.007825032230

  Basis Set: AUG-CC-PVTZ
    Blend: AUG-CC-PVTZ
  Basis Set: (AUG-CC-PVTZ AUX)
    Blend: AUG-CC-PVTZ-JKFIT
	 Reference Energy          =    -515.2762740165659352 [Eh]
	 Singles Energy            =      -0.0000000000000000 [Eh]
	 Same-Spin Energy          =      -0.1880935617094334 [Eh]
	 Opposite-Spin Energy      =      -0.6464173097240791 [Eh]
	 Correlation Energy        =      -0.8345108714335125 [Eh]
	 Total Energy              =    -516.1107848879994435 [Eh]

	 ================> DF-SCS-MP2 Energies <==================
	-----------------------------------------------------------
	 SCS Same-Spin Scale       =       0.3333333333333333 [-]
	 SCS Opposite-Spin Scale   =       1.2000000000000000 [-]
	 SCS Same-Spin Energy      =      -0.0626978539031445 [Eh]
	 SCS Opposite-Spin Energy  =      -0.7757007716688948 [Eh]
	 SCS Correlation Energy    =      -0.8383986255720393 [Eh]
	 SCS Total Energy          =    -516.1146726421379753 [Eh]
	-----------------------------------------------------------

  Dipole Moment: [D]
     X:    -5.1698      Y:    -0.0000      Z:     0.5438     Total:     5.1983

*** Psi4 exiting successfully. Buy a developer a beer!
