                               Psi4 1.3.2 release

  ==> Input File <==

--------------------------------------------------------------------------
#psi4
#
memory 32 gb

molecule  {
-1 1
  S        1.4290720    -0.0000060    -0.0599380
  C       -0.3440722    -0.0077035     0.3974644
  C       -1.0685120    -1.2503820    -0.1151110
  C       -1.0684970     1.2504130    -0.1151130
  H       -0.4262000    -0.0000020     1.4870350
  H       -1.0294530    -1.2924530    -1.2089010
  H       -0.5909885    -2.1522095     0.2779693
  H       -2.1238830    -1.2544140     0.1901240
  H       -1.0294410     1.2924540    -1.2089060
  H       -0.5972720     2.1575400     0.2733260
  H       -2.1238650     1.2544300     0.1901270
units angstrom
no_reorient  #important for SAPT in psi4, default
symmetry c1  #important for SAPT in psi4, default
}

set PROPERTIES_ORIGIN ["COM"]
properties('MP2/aug-cc-pvtz', properties = ['dipole'])
--------------------------------------------------------------------------

    Molecular point group: c1
  Charge       = -1
  Multiplicity = 1
  Basis Set: AUG-CC-PVTZ
    Blend: AUG-CC-PVTZ
  Basis Set: (AUG-CC-PVTZ AUX)
    Blend: AUG-CC-PVTZ-JKFIT

    Orbital Energies [Eh]
    ---------------------

    Doubly Occupied:

       1A    -91.667075     2A    -11.068816     3A    -11.055719
       4A    -11.055582     5A     -8.667204     6A     -6.348764
       7A     -6.347113     8A     -6.347104     9A     -0.896579
      10A     -0.766995    11A     -0.682981    12A     -0.562145
      13A     -0.448800    14A     -0.414563    15A     -0.396772
      16A     -0.376148    17A     -0.316489    18A     -0.312416
      19A     -0.222707    20A     -0.092621    21A     -0.091783

  @DF-RHF Final Energy:  -515.27625792154470

   => Energetics <=

    Nuclear Repulsion Energy =            158.7945591220725419
    One-Electron Energy =               -1031.8648805483621800
    Two-Electron Energy =                 357.7940635047449405
    Total Energy =                       -515.2762579215446976
  Basis Set: (AUG-CC-PVTZ AUX)
    Blend: AUG-CC-PVTZ-RI
    Molecular point group: c1

    Geometry (in Angstrom), charge = -1, multiplicity = 1:

       Center              X                  Y                   Z               Mass
    ------------   -----------------  -----------------  -----------------  -----------------
         S            1.323318762383     0.001151912239    -0.061155206390    31.972071174400
         C           -0.449825437617    -0.006545587761     0.396247193610    12.000000000000
         C           -1.174265237617    -1.249224087761    -0.116328206390    12.000000000000
         C           -1.174250237617     1.251570912239    -0.116330206390    12.000000000000
         H           -0.531953237617     0.001155912239     1.485817793610     1.007825032230
         H           -1.135206237617    -1.291295087761    -1.210118206390     1.007825032230
         H           -0.696741737617    -2.151051587761     0.276752093610     1.007825032230
         H           -2.229636237617    -1.253256087761     0.188906793610     1.007825032230
         H           -1.135194237617     1.293611912239    -1.210123206390     1.007825032230
         H           -0.703025237617     2.158697912239     0.272108793610     1.007825032230
         H           -2.229618237617     1.255587912239     0.188909793610     1.007825032230

  Basis Set: AUG-CC-PVTZ
    Blend: AUG-CC-PVTZ
  Basis Set: (AUG-CC-PVTZ AUX)
    Blend: AUG-CC-PVTZ-JKFIT
	 Reference Energy          =    -515.2762579215446976 [Eh]
	 Singles Energy            =      -0.0000000000000000 [Eh]
	 Same-Spin Energy          =      -0.1881086502160947 [Eh]
	 Opposite-Spin Energy      =      -0.6464403605474066 [Eh]
	 Correlation Energy        =      -0.8345490107635013 [Eh]
	 Total Energy              =    -516.1108069323081509 [Eh]

	 ================> DF-SCS-MP2 Energies <==================
	-----------------------------------------------------------
	 SCS Same-Spin Scale       =       0.3333333333333333 [-]
	 SCS Opposite-Spin Scale   =       1.2000000000000000 [-]
	 SCS Same-Spin Energy      =      -0.0627028834053649 [Eh]
	 SCS Opposite-Spin Energy  =      -0.7757284326568880 [Eh]
	 SCS Correlation Energy    =      -0.8384313160622529 [Eh]
	 SCS Total Energy          =    -516.1146892376069673 [Eh]
	-----------------------------------------------------------

  Dipole Moment: [D]
     X:    -5.1266      Y:    -0.0077      Z:     0.5675     Total:     5.1579

*** Psi4 exiting successfully. Buy a developer a beer!
