                               Psi4 1.3.2 release

  ==> Input File <==

--------------------------------------------------------------------------
#psi4
#
memory 32 gb

molecule  {
-1 1
  S        1.4290720    -0.0000060    -0.0599380
  C       -0.5464999    -0.0000149     0.4397525
  C       -1.0685120    -1.2503820    -0.1151110
  C       -1.0684970     1.2504130    -0.1151130
  H       -0.4262000    -0.0000020     1.4870350
  H       -1.0294530    -1.2924530    -1.2089010
  H       -0.5973500    -2.1575670     0.2732900
  H       -2.1238830    -1.2544140     0.1901240
  H       -1.0294410     1.2924540    -1.2089060
  H       -0.5972720     2.1575400     0.2733260
  H       -2.1238650     1.2544300     0.1901270
units angstrom
no_reorient  #important for SAPT in psi4, default
symmetry c1  #important for SAPT in psi4, default
}

set PROPERTIES_ORIGIN ["COM"]
properties('MP2/aug-cc-pvtz', properties = ['dipole'])
--------------------------------------------------------------------------

    Molecular point group: c1
  Charge       = -1
  Multiplicity = 1
  Basis Set: AUG-CC-PVTZ
    Blend: AUG-CC-PVTZ
  Basis Set: (AUG-CC-PVTZ AUX)
    Blend: AUG-CC-PVTZ-JKFIT

    Orbital Energies [Eh]
    ---------------------

    Doubly Occupied:

       1A    -91.666756     2A    -11.068359     3A    -11.059767
       4A    -11.059717     5A     -8.664898     6A     -6.346058
       7A     -6.344638     8A     -6.344604     9A     -0.915893
      10A     -0.783169    11A     -0.655611    12A     -0.572999
      13A     -0.467742    14A     -0.423413    15A     -0.405419
      16A     -0.382832    17A     -0.345648    18A     -0.333835
      19A     -0.163428    20A     -0.088865    21A     -0.088618

  @DF-RHF Final Energy:  -515.25004386376099

   => Energetics <=

    Nuclear Repulsion Energy =            157.5185664041434563
    One-Electron Energy =               -1029.1726825573764472
    Two-Electron Energy =                 356.4040722894719693
    Total Energy =                       -515.2500438637609932
  Basis Set: (AUG-CC-PVTZ AUX)
    Blend: AUG-CC-PVTZ-RI
    Molecular point group: c1

    Geometry (in Angstrom), charge = -1, multiplicity = 1:

       Center              X                  Y                   Z               Mass
    ------------   -----------------  -----------------  -----------------  -----------------
         S            1.355781058159    -0.000005857033    -0.067856024943    31.972071174400
         C           -0.619790841841    -0.000014757033     0.431834475057    12.000000000000
         C           -1.141802941841    -1.250381857033    -0.123029024943    12.000000000000
         C           -1.141787941841     1.250413142967    -0.123031024943    12.000000000000
         H           -0.499490941841    -0.000001857033     1.479116975057     1.007825032230
         H           -1.102743941841    -1.292452857033    -1.216819024943     1.007825032230
         H           -0.670640941841    -2.157566857033     0.265371975057     1.007825032230
         H           -2.197173941841    -1.254413857033     0.182205975057     1.007825032230
         H           -1.102731941841     1.292454142967    -1.216824024943     1.007825032230
         H           -0.670562941841     2.157540142967     0.265407975057     1.007825032230
         H           -2.197155941841     1.254430142967     0.182208975057     1.007825032230

  Basis Set: AUG-CC-PVTZ
    Blend: AUG-CC-PVTZ
  Basis Set: (AUG-CC-PVTZ AUX)
    Blend: AUG-CC-PVTZ-JKFIT
	 Reference Energy          =    -515.2500438637609932 [Eh]
	 Singles Energy            =      -0.0000000000000000 [Eh]
	 Same-Spin Energy          =      -0.1890170780811159 [Eh]
	 Opposite-Spin Energy      =      -0.6487685157844275 [Eh]
	 Correlation Energy        =      -0.8377855938655434 [Eh]
	 Total Energy              =    -516.0878294576265262 [Eh]

	 ================> DF-SCS-MP2 Energies <==================
	-----------------------------------------------------------
	 SCS Same-Spin Scale       =       0.3333333333333333 [-]
	 SCS Opposite-Spin Scale   =       1.2000000000000000 [-]
	 SCS Same-Spin Energy      =      -0.0630056926937053 [Eh]
	 SCS Opposite-Spin Energy  =      -0.7785222189413130 [Eh]
	 SCS Correlation Energy    =      -0.8415279116350183 [Eh]
	 SCS Total Energy          =    -516.0915717753960053 [Eh]
	-----------------------------------------------------------

  Dipole Moment: [D]
     X:    -5.6697      Y:    -0.0000      Z:     0.5277     Total:     5.6942

*** Psi4 exiting successfully. Buy a developer a beer!
