                               Psi4 1.4a3.dev225

  ==> Input File <==

--------------------------------------------------------------------------
#psi4
#
memory 32 gb

molecule  {
-1 1
  S        0.8760760     1.1282850     0.0000000
  C       -0.5244280    -0.0603010     0.0000000
  C       -0.5244280    -0.9363990     1.2509370
  C       -0.5244280    -0.9363990    -1.2509370
  H       -1.4440798     0.5032147     0.0000000
  H        0.3938430    -1.5316650     1.2938450
  H       -0.5721740    -0.3268970     2.1577640
  H       -1.3798600    -1.6252560     1.2536820
  H        0.3938430    -1.5316650    -1.2938450
  H       -0.5721740    -0.3268970    -2.1577640
  H       -1.3798600    -1.6252560    -1.2536820
units angstrom
no_reorient  #important for SAPT in psi4, default
symmetry c1  #important for SAPT in psi4, default
}

set PROPERTIES_ORIGIN ["COM"]
properties('MP2/aug-cc-pvtz', properties = ['dipole'])
--------------------------------------------------------------------------

    Molecular point group: c1
  Charge       = -1
  Multiplicity = 1
  Basis Set: AUG-CC-PVTZ
    Blend: AUG-CC-PVTZ
  Basis Set: (AUG-CC-PVTZ AUX)
    Blend: AUG-CC-PVTZ-JKFIT

    Orbital Energies [Eh]
    ---------------------

    Doubly Occupied:

       1A    -91.666774     2A    -11.066159     3A    -11.055442
       4A    -11.055413     5A     -8.666830     6A     -6.348376
       7A     -6.346738     8A     -6.346728     9A     -0.898570
      10A     -0.767982    11A     -0.682085    12A     -0.564134
      13A     -0.450630    14A     -0.414943    15A     -0.396700
      16A     -0.376418    17A     -0.316382    18A     -0.316000
      19A     -0.220627    20A     -0.092347    21A     -0.091537

  @DF-RHF Final Energy:  -515.27631107652201

   => Energetics <=

    Nuclear Repulsion Energy =            158.9511647033642987
    One-Electron Energy =               -1032.1733236623097127
    Two-Electron Energy =                 357.9458478824233794
    Total Energy =                       -515.2763110765220063
  Basis Set: (AUG-CC-PVTZ AUX)
    Blend: AUG-CC-PVTZ-RI
    Molecular point group: c1

    Geometry (in Angstrom), charge = -1, multiplicity = 1:

       Center              X                  Y                   Z               Mass
    ------------   -----------------  -----------------  -----------------  -----------------
         S            0.815638851390     1.043496487285     0.000000000000    31.972071174400
         C           -0.584865148610    -0.145089512715     0.000000000000    12.000000000000
         C           -0.584865148610    -1.021187512715     1.250937000000    12.000000000000
         C           -0.584865148610    -1.021187512715    -1.250937000000    12.000000000000
         H           -1.504516948610     0.418426187285     0.000000000000     1.007825032230
         H            0.333405851390    -1.616453512715     1.293845000000     1.007825032230
         H           -0.632611148610    -0.411685512715     2.157764000000     1.007825032230
         H           -1.440297148610    -1.710044512715     1.253682000000     1.007825032230
         H            0.333405851390    -1.616453512715    -1.293845000000     1.007825032230
         H           -0.632611148610    -0.411685512715    -2.157764000000     1.007825032230
         H           -1.440297148610    -1.710044512715    -1.253682000000     1.007825032230

  Basis Set: AUG-CC-PVTZ
    Blend: AUG-CC-PVTZ
  Basis Set: (AUG-CC-PVTZ AUX)
    Blend: AUG-CC-PVTZ-JKFIT
	 Reference Energy          =    -515.2763110765220063 [Eh]
	 Singles Energy            =      -0.0000000000000000 [Eh]
	 Same-Spin Energy          =      -0.1881231823048974 [Eh]
	 Opposite-Spin Energy      =      -0.6463503239491926 [Eh]
	 Correlation Energy        =      -0.8344735062540900 [Eh]
	 Total Energy              =    -516.1107845827760912 [Eh]

	 ================> DF-SCS-MP2 Energies <==================
	-----------------------------------------------------------
	 SCS Same-Spin Scale       =       0.3333333333333333 [-]
	 SCS Opposite-Spin Scale   =       1.2000000000000000 [-]
	 SCS Same-Spin Energy      =      -0.0627077274349658 [Eh]
	 SCS Opposite-Spin Energy  =      -0.7756203887390311 [Eh]
	 SCS Correlation Energy    =      -0.8383281161739968 [Eh]
	 SCS Total Energy          =    -516.1146391926960177 [Eh]
	-----------------------------------------------------------

  Dipole Moment: [D]
     X:    -3.4641      Y:    -3.8698      Z:     0.0000     Total:     5.1938

*** Psi4 exiting successfully. Buy a developer a beer!
