                               Psi4 1.3.2 release

  ==> Input File <==

--------------------------------------------------------------------------
#psi4
#
memory 32 gb

molecule  {
-1 1
  S        1.4290720    -0.0000060    -0.0599380
  C       -0.3526060    -0.0000140     0.3907100
  C       -1.0848851    -1.2691802    -0.0391515
  C       -1.0684970     1.2504130    -0.1151130
  H       -0.4555604    -0.0493488     1.4835554
  H       -1.0294530    -1.2924530    -1.2089010
  H       -0.5973500    -2.1575670     0.2732900
  H       -2.1238830    -1.2544140     0.1901240
  H       -1.0294410     1.2924540    -1.2089060
  H       -0.5972720     2.1575400     0.2733260
  H       -2.1238650     1.2544300     0.1901270
units angstrom
no_reorient  #important for SAPT in psi4, default
symmetry c1  #important for SAPT in psi4, default
}

set PROPERTIES_ORIGIN ["COM"]
properties('MP2/aug-cc-pvtz', properties = ['dipole'])
--------------------------------------------------------------------------

    Molecular point group: c1
  Charge       = -1
  Multiplicity = 1
  Basis Set: AUG-CC-PVTZ
    Blend: AUG-CC-PVTZ
  Basis Set: (AUG-CC-PVTZ AUX)
    Blend: AUG-CC-PVTZ-JKFIT

    Orbital Energies [Eh]
    ---------------------

    Doubly Occupied:

       1A    -91.668270     2A    -11.069215     3A    -11.056963
       4A    -11.055893     5A     -8.668171     6A     -6.349716
       7A     -6.348072     8A     -6.348063     9A     -0.897924
      10A     -0.769824    11A     -0.681603    12A     -0.562449
      13A     -0.448220    14A     -0.426839    15A     -0.400844
      16A     -0.366346    17A     -0.325075    18A     -0.295042
      19A     -0.224115    20A     -0.093761    21A     -0.092021

  @DF-RHF Final Energy:  -515.26904699093313

   => Energetics <=

    Nuclear Repulsion Energy =            158.5775388974836630
    One-Electron Energy =               -1031.3963199862982947
    Two-Electron Energy =                 357.5497340978814123
    Total Energy =                       -515.2690469909332478
  Basis Set: (AUG-CC-PVTZ AUX)
    Blend: AUG-CC-PVTZ-RI
    Molecular point group: c1

    Geometry (in Angstrom), charge = -1, multiplicity = 1:

       Center              X                  Y                   Z               Mass
    ------------   -----------------  -----------------  -----------------  -----------------
         S            1.327782287656     0.003663503382    -0.072114462920    31.972071174400
         C           -0.453895712344     0.003655503382     0.378533537080    12.000000000000
         C           -1.186174812344    -1.265510696618    -0.051327962920    12.000000000000
         C           -1.169786712344     1.254082503382    -0.127289462920    12.000000000000
         H           -0.556850112344    -0.045679296618     1.471378937080     1.007825032230
         H           -1.130742712344    -1.288783496618    -1.221077462920     1.007825032230
         H           -0.698639712344    -2.153897496618     0.261113537080     1.007825032230
         H           -2.225172712344    -1.250744496618     0.177947537080     1.007825032230
         H           -1.130730712344     1.296123503382    -1.221082462920     1.007825032230
         H           -0.698561712344     2.161209503382     0.261149537080     1.007825032230
         H           -2.225154712344     1.258099503382     0.177950537080     1.007825032230

  Basis Set: AUG-CC-PVTZ
    Blend: AUG-CC-PVTZ
  Basis Set: (AUG-CC-PVTZ AUX)
    Blend: AUG-CC-PVTZ-JKFIT
	 Reference Energy          =    -515.2690469909331341 [Eh]
	 Singles Energy            =      -0.0000000000000000 [Eh]
	 Same-Spin Energy          =      -0.1882894469567886 [Eh]
	 Opposite-Spin Energy      =      -0.6468700959494578 [Eh]
	 Correlation Energy        =      -0.8351595429062464 [Eh]
	 Total Energy              =    -516.1042065338393741 [Eh]

	 ================> DF-SCS-MP2 Energies <==================
	-----------------------------------------------------------
	 SCS Same-Spin Scale       =       0.3333333333333333 [-]
	 SCS Opposite-Spin Scale   =       1.2000000000000000 [-]
	 SCS Same-Spin Energy      =      -0.0627631489855962 [Eh]
	 SCS Opposite-Spin Energy  =      -0.7762441151393493 [Eh]
	 SCS Correlation Energy    =      -0.8390072641249455 [Eh]
	 SCS Total Energy          =    -516.1080542550580503 [Eh]
	-----------------------------------------------------------

  Dipole Moment: [D]
     X:    -5.1513      Y:     0.0215      Z:     0.6736     Total:     5.1952

*** Psi4 exiting successfully. Buy a developer a beer!
