                               Psi4 1.3.2 release

  ==> Input File <==

--------------------------------------------------------------------------
#psi4
#
memory 32 gb

molecule  {
-1 1
  S        1.4290720    -0.0000060    -0.0599380
  C       -0.3526060    -0.0000140     0.3907100
  C       -1.0796483    -1.2632983    -0.0646126
  C       -1.0684970     1.2504130    -0.1151130
  H       -0.4458010    -0.0329082     1.4850487
  H       -1.0294530    -1.2924530    -1.2089010
  H       -0.5973500    -2.1575670     0.2732900
  H       -2.1238830    -1.2544140     0.1901240
  H       -1.0294410     1.2924540    -1.2089060
  H       -0.5972720     2.1575400     0.2733260
  H       -2.1238650     1.2544300     0.1901270
units angstrom
no_reorient  #important for SAPT in psi4, default
symmetry c1  #important for SAPT in psi4, default
}

set PROPERTIES_ORIGIN ["COM"]
properties('MP2/aug-cc-pvtz', properties = ['dipole'])
--------------------------------------------------------------------------

    Molecular point group: c1
  Charge       = -1
  Multiplicity = 1
  Basis Set: AUG-CC-PVTZ
    Blend: AUG-CC-PVTZ
  Basis Set: (AUG-CC-PVTZ AUX)
    Blend: AUG-CC-PVTZ-JKFIT

    Orbital Energies [Eh]
    ---------------------

    Doubly Occupied:

       1A    -91.667840     2A    -11.068997     3A    -11.056534
       4A    -11.055540     5A     -8.667782     6A     -6.349327
       7A     -6.347686     8A     -6.347677     9A     -0.897773
      10A     -0.769120    11A     -0.681497    12A     -0.561932
      13A     -0.448820    14A     -0.422309    15A     -0.399647
      16A     -0.369543    17A     -0.322449    18A     -0.302095
      19A     -0.223003    20A     -0.093333    21A     -0.091851

  @DF-RHF Final Energy:  -515.27297862051546

   => Energetics <=

    Nuclear Repulsion Energy =            158.6457054041470087
    One-Electron Energy =               -1031.5478569461922689
    Two-Electron Energy =                 357.6291729215297437
    Total Energy =                       -515.2729786205154596
  Basis Set: (AUG-CC-PVTZ AUX)
    Blend: AUG-CC-PVTZ-RI
    Molecular point group: c1

    Geometry (in Angstrom), charge = -1, multiplicity = 1:

       Center              X                  Y                   Z               Mass
    ------------   -----------------  -----------------  -----------------  -----------------
         S            1.326813602830     0.002501891874    -0.068062203903    31.972071174400
         C           -0.454864397170     0.002493891874     0.382585796097    12.000000000000
         C           -1.181906697170    -1.260790408126    -0.072736803903    12.000000000000
         C           -1.170755397170     1.252920891874    -0.123237203903    12.000000000000
         H           -0.548059397170    -0.030400308126     1.476924496097     1.007825032230
         H           -1.131711397170    -1.289945108126    -1.217025203903     1.007825032230
         H           -0.699608397170    -2.155059108126     0.265165796097     1.007825032230
         H           -2.226141397170    -1.251906108126     0.181999796097     1.007825032230
         H           -1.131699397170     1.294961891874    -1.217030203903     1.007825032230
         H           -0.699530397170     2.160047891874     0.265201796097     1.007825032230
         H           -2.226123397170     1.256937891874     0.182002796097     1.007825032230

  Basis Set: AUG-CC-PVTZ
    Blend: AUG-CC-PVTZ
  Basis Set: (AUG-CC-PVTZ AUX)
    Blend: AUG-CC-PVTZ-JKFIT
	 Reference Energy          =    -515.2729786205154596 [Eh]
	 Singles Energy            =      -0.0000000000000000 [Eh]
	 Same-Spin Energy          =      -0.1881946537888007 [Eh]
	 Opposite-Spin Energy      =      -0.6466446022902242 [Eh]
	 Correlation Energy        =      -0.8348392560790250 [Eh]
	 Total Energy              =    -516.1078178765944813 [Eh]

	 ================> DF-SCS-MP2 Energies <==================
	-----------------------------------------------------------
	 SCS Same-Spin Scale       =       0.3333333333333333 [-]
	 SCS Opposite-Spin Scale   =       1.2000000000000000 [-]
	 SCS Same-Spin Energy      =      -0.0627315512629336 [Eh]
	 SCS Opposite-Spin Energy  =      -0.7759735227482690 [Eh]
	 SCS Correlation Energy    =      -0.8387050740112025 [Eh]
	 SCS Total Energy          =    -516.1116836945266186 [Eh]
	-----------------------------------------------------------

  Dipole Moment: [D]
     X:    -5.1556      Y:     0.0114      Z:     0.6347     Total:     5.1946

*** Psi4 exiting successfully. Buy a developer a beer!
