                               Psi4 1.3.2 release

  ==> Input File <==

--------------------------------------------------------------------------
#psi4
#
memory 32 gb

molecule  {
-1 1
  S        1.4030452    -0.0000073    -0.1525662
  C       -0.3526060    -0.0000140     0.3907100
  C       -1.0685120    -1.2503820    -0.1151110
  C       -1.0684970     1.2504130    -0.1151130
  H       -0.4834764    -0.0000025     1.4816809
  H       -1.0294530    -1.2924530    -1.2089010
  H       -0.5973500    -2.1575670     0.2732900
  H       -2.1238830    -1.2544140     0.1901240
  H       -1.0294410     1.2924540    -1.2089060
  H       -0.5972720     2.1575400     0.2733260
  H       -2.1238650     1.2544300     0.1901270
units angstrom
no_reorient  #important for SAPT in psi4, default
symmetry c1  #important for SAPT in psi4, default
}

set PROPERTIES_ORIGIN ["COM"]
properties('MP2/aug-cc-pvtz', properties = ['dipole'])
--------------------------------------------------------------------------

    Molecular point group: c1
  Charge       = -1
  Multiplicity = 1
  Basis Set: AUG-CC-PVTZ
    Blend: AUG-CC-PVTZ
  Basis Set: (AUG-CC-PVTZ AUX)
    Blend: AUG-CC-PVTZ-JKFIT

    Orbital Energies [Eh]
    ---------------------

    Doubly Occupied:

       1A    -91.667765     2A    -11.069083     3A    -11.054317
       4A    -11.054293     5A     -8.667774     6A     -6.349314
       7A     -6.347679     8A     -6.347658     9A     -0.898241
      10A     -0.767181    11A     -0.678651    12A     -0.565706
      13A     -0.448458    14A     -0.413680    15A     -0.395935
      16A     -0.375415    17A     -0.315954    18A     -0.309801
      19A     -0.222902    20A     -0.093053    21A     -0.092570

  @DF-RHF Final Energy:  -515.27502700261721

   => Energetics <=

    Nuclear Repulsion Energy =            159.1636268036601223
    One-Electron Energy =               -1032.6064483112877497
    Two-Electron Energy =                 358.1677945050104199
    Total Energy =                       -515.2750270026172075
  Basis Set: (AUG-CC-PVTZ AUX)
    Blend: AUG-CC-PVTZ-RI
    Molecular point group: c1

    Geometry (in Angstrom), charge = -1, multiplicity = 1:

       Center              X                  Y                   Z               Mass
    ------------   -----------------  -----------------  -----------------  -----------------
         S            1.310602826675    -0.000006740281    -0.113095569152    31.972071174400
         C           -0.445048373325    -0.000013440281     0.430180630848    12.000000000000
         C           -1.160954373325    -1.250381440281    -0.075640369152    12.000000000000
         C           -1.160939373325     1.250413559719    -0.075642369152    12.000000000000
         H           -0.575918773325    -0.000001940281     1.521151530848     1.007825032230
         H           -1.121895373325    -1.292452440281    -1.169430369152     1.007825032230
         H           -0.689792373325    -2.157566440281     0.312760630848     1.007825032230
         H           -2.216325373325    -1.254413440281     0.229594630848     1.007825032230
         H           -1.121883373325     1.292454559719    -1.169435369152     1.007825032230
         H           -0.689714373325     2.157540559719     0.312796630848     1.007825032230
         H           -2.216307373325     1.254430559719     0.229597630848     1.007825032230

  Basis Set: AUG-CC-PVTZ
    Blend: AUG-CC-PVTZ
  Basis Set: (AUG-CC-PVTZ AUX)
    Blend: AUG-CC-PVTZ-JKFIT
	 Reference Energy          =    -515.2750270026172075 [Eh]
	 Singles Energy            =      -0.0000000000000000 [Eh]
	 Same-Spin Energy          =      -0.1883015322737202 [Eh]
	 Opposite-Spin Energy      =      -0.6467759313817945 [Eh]
	 Correlation Energy        =      -0.8350774636555147 [Eh]
	 Total Energy              =    -516.1101044662726736 [Eh]

	 ================> DF-SCS-MP2 Energies <==================
	-----------------------------------------------------------
	 SCS Same-Spin Scale       =       0.3333333333333333 [-]
	 SCS Opposite-Spin Scale   =       1.2000000000000000 [-]
	 SCS Same-Spin Energy      =      -0.0627671774245734 [Eh]
	 SCS Opposite-Spin Energy  =      -0.7761311176581533 [Eh]
	 SCS Correlation Energy    =      -0.8388982950827267 [Eh]
	 SCS Total Energy          =    -516.1139252976998932 [Eh]
	-----------------------------------------------------------

  Dipole Moment: [D]
     X:    -5.0424      Y:    -0.0000      Z:     0.6813     Total:     5.0882

*** Psi4 exiting successfully. Buy a developer a beer!
