                               Psi4 1.3.2 release

  ==> Input File <==

--------------------------------------------------------------------------
#psi4
#
memory 32 gb

molecule  {
-1 1
  S        1.4290720    -0.0000060    -0.0599380
  C       -0.3022436    -0.0475585     0.4306405
  C       -1.0685120    -1.2503820    -0.1151110
  C       -1.0684970     1.2504130    -0.1151130
  H       -0.4262000    -0.0000020     1.4870350
  H       -1.0294530    -1.2924530    -1.2089010
  H       -0.5597360    -2.1244000     0.3009095
  H       -2.1238830    -1.2544140     0.1901240
  H       -1.0294410     1.2924540    -1.2089060
  H       -0.5972720     2.1575400     0.2733260
  H       -2.1238650     1.2544300     0.1901270
units angstrom
no_reorient  #important for SAPT in psi4, default
symmetry c1  #important for SAPT in psi4, default
}

set PROPERTIES_ORIGIN ["COM"]
properties('MP2/aug-cc-pvtz', properties = ['dipole'])
--------------------------------------------------------------------------

    Molecular point group: c1
  Charge       = -1
  Multiplicity = 1
  Basis Set: AUG-CC-PVTZ
    Blend: AUG-CC-PVTZ
  Basis Set: (AUG-CC-PVTZ AUX)
    Blend: AUG-CC-PVTZ-JKFIT

    Orbital Energies [Eh]
    ---------------------

    Doubly Occupied:

       1A    -91.667220     2A    -11.069050     3A    -11.055006
       4A    -11.054930     5A     -8.667856     6A     -6.349503
       7A     -6.347778     8A     -6.347774     9A     -0.891429
      10A     -0.761338    11A     -0.689462    12A     -0.565398
      13A     -0.441731    14A     -0.414624    15A     -0.395540
      16A     -0.374140    17A     -0.325100    18A     -0.292819
      19A     -0.232388    20A     -0.093908    21A     -0.091589

  @DF-RHF Final Energy:  -515.27109930731081

   => Energetics <=

    Nuclear Repulsion Energy =            158.8196906002144431
    One-Electron Energy =               -1031.9244121752922183
    Two-Electron Energy =                 357.8336222677668843
    Total Energy =                       -515.2710993073108057
  Basis Set: (AUG-CC-PVTZ AUX)
    Blend: AUG-CC-PVTZ-RI
    Molecular point group: c1

    Geometry (in Angstrom), charge = -1, multiplicity = 1:

       Center              X                  Y                   Z               Mass
    ------------   -----------------  -----------------  -----------------  -----------------
         S            1.316208770728     0.007152869381    -0.066769635465    31.972071174400
         C           -0.415106829272    -0.040399630619     0.423808864535    12.000000000000
         C           -1.181375229272    -1.243223130619    -0.121942635465    12.000000000000
         C           -1.181360229272     1.257571869381    -0.121944635465    12.000000000000
         H           -0.539063229272     0.007156869381     1.480203364535     1.007825032230
         H           -1.142316229272    -1.285294130619    -1.215732635465     1.007825032230
         H           -0.672599229272    -2.117241130619     0.294077864535     1.007825032230
         H           -2.236746229272    -1.247255130619     0.183292364535     1.007825032230
         H           -1.142304229272     1.299612869381    -1.215737635465     1.007825032230
         H           -0.710135229272     2.164698869381     0.266494364535     1.007825032230
         H           -2.236728229272     1.261588869381     0.183295364535     1.007825032230

  Basis Set: AUG-CC-PVTZ
    Blend: AUG-CC-PVTZ
  Basis Set: (AUG-CC-PVTZ AUX)
    Blend: AUG-CC-PVTZ-JKFIT
	 Reference Energy          =    -515.2710993073108057 [Eh]
	 Singles Energy            =      -0.0000000000000000 [Eh]
	 Same-Spin Energy          =      -0.1883267981776475 [Eh]
	 Opposite-Spin Energy      =      -0.6467998333647467 [Eh]
	 Correlation Energy        =      -0.8351266315423942 [Eh]
	 Total Energy              =    -516.1062259388531857 [Eh]

	 ================> DF-SCS-MP2 Energies <==================
	-----------------------------------------------------------
	 SCS Same-Spin Scale       =       0.3333333333333333 [-]
	 SCS Opposite-Spin Scale   =       1.2000000000000000 [-]
	 SCS Same-Spin Energy      =      -0.0627755993925491 [Eh]
	 SCS Opposite-Spin Energy  =      -0.7761598000376960 [Eh]
	 SCS Correlation Energy    =      -0.8389353994302452 [Eh]
	 SCS Total Energy          =    -516.1100347067410894 [Eh]
	-----------------------------------------------------------

  Dipole Moment: [D]
     X:    -4.9816      Y:    -0.0551      Z:     0.5841     Total:     5.0160

*** Psi4 exiting successfully. Buy a developer a beer!
