                               Psi4 1.3.2 release

  ==> Input File <==

--------------------------------------------------------------------------
#psi4
#
memory 32 gb

molecule  {
-1 1
  S        1.4290720    -0.0000060    -0.0599380
  C       -0.3526060    -0.0000140     0.3907100
  C       -1.0685120    -1.2503820    -0.1151110
  C       -1.0684970     1.2504130    -0.1151130
  H       -0.4195023    -0.0000031     1.3872595
  H       -1.0294530    -1.2924530    -1.2089010
  H       -0.5973500    -2.1575670     0.2732900
  H       -2.1238830    -1.2544140     0.1901240
  H       -1.0294410     1.2924540    -1.2089060
  H       -0.5972720     2.1575400     0.2733260
  H       -2.1238650     1.2544300     0.1901270
units angstrom
no_reorient  #important for SAPT in psi4, default
symmetry c1  #important for SAPT in psi4, default
}

set PROPERTIES_ORIGIN ["COM"]
properties('MP2/aug-cc-pvtz', properties = ['dipole'])
--------------------------------------------------------------------------

    Molecular point group: c1
  Charge       = -1
  Multiplicity = 1
  Basis Set: AUG-CC-PVTZ
    Blend: AUG-CC-PVTZ
  Basis Set: (AUG-CC-PVTZ AUX)
    Blend: AUG-CC-PVTZ-JKFIT

    Orbital Energies [Eh]
    ---------------------

    Doubly Occupied:

       1A    -91.666179     2A    -11.055668     3A    -11.054874
       4A    -11.054630     5A     -8.666209     6A     -6.347755
       7A     -6.346125     8A     -6.346119     9A     -0.902181
      10A     -0.767524    11A     -0.684720    12A     -0.574962
      13A     -0.452957    14A     -0.414587    15A     -0.396268
      16A     -0.376075    17A     -0.323931    18A     -0.315559
      19A     -0.220109    20A     -0.091808    21A     -0.091504

  @DF-RHF Final Energy:  -515.27059138290269

   => Energetics <=

    Nuclear Repulsion Energy =            159.3113610419270287
    One-Electron Energy =               -1032.8644157593130330
    Two-Electron Energy =                 358.2824633344832819
    Total Energy =                       -515.2705913829026940
  Basis Set: (AUG-CC-PVTZ AUX)
    Blend: AUG-CC-PVTZ-RI
    Molecular point group: c1

    Geometry (in Angstrom), charge = -1, multiplicity = 1:

       Center              X                  Y                   Z               Mass
    ------------   -----------------  -----------------  -----------------  -----------------
         S            1.324679165680    -0.000005986206    -0.058671762515    31.972071174400
         C           -0.456998834320    -0.000013986206     0.391976237485    12.000000000000
         C           -1.172904834320    -1.250381986206    -0.113844762515    12.000000000000
         C           -1.172889834320     1.250413013794    -0.113846762515    12.000000000000
         H           -0.523895134320    -0.000003086206     1.388525737485     1.007825032230
         H           -1.133845834320    -1.292452986206    -1.207634762515     1.007825032230
         H           -0.701742834320    -2.157566986206     0.274556237485     1.007825032230
         H           -2.228275834320    -1.254413986206     0.191390237485     1.007825032230
         H           -1.133833834320     1.292454013794    -1.207639762515     1.007825032230
         H           -0.701664834320     2.157540013794     0.274592237485     1.007825032230
         H           -2.228257834320     1.254430013794     0.191393237485     1.007825032230

  Basis Set: AUG-CC-PVTZ
    Blend: AUG-CC-PVTZ
  Basis Set: (AUG-CC-PVTZ AUX)
    Blend: AUG-CC-PVTZ-JKFIT
	 Reference Energy          =    -515.2705913829026940 [Eh]
	 Singles Energy            =      -0.0000000000000000 [Eh]
	 Same-Spin Energy          =      -0.1880541950133850 [Eh]
	 Opposite-Spin Energy      =      -0.6459895975225016 [Eh]
	 Correlation Energy        =      -0.8340437925358866 [Eh]
	 Total Energy              =    -516.1046351754386023 [Eh]

	 ================> DF-SCS-MP2 Energies <==================
	-----------------------------------------------------------
	 SCS Same-Spin Scale       =       0.3333333333333333 [-]
	 SCS Opposite-Spin Scale   =       1.2000000000000000 [-]
	 SCS Same-Spin Energy      =      -0.0626847316711283 [Eh]
	 SCS Opposite-Spin Energy  =      -0.7751875170270019 [Eh]
	 SCS Correlation Energy    =      -0.8378722486981303 [Eh]
	 SCS Total Energy          =    -516.1084636316007845 [Eh]
	-----------------------------------------------------------

  Dipole Moment: [D]
     X:    -5.2229      Y:    -0.0000      Z:     0.6407     Total:     5.2621

*** Psi4 exiting successfully. Buy a developer a beer!
