                               Psi4 1.3.2 release

  ==> Input File <==

--------------------------------------------------------------------------
#psi4
#
memory 32 gb

molecule  {
-1 1
  S        1.4290720    -0.0000060    -0.0599380
  C       -0.3611943     0.0075803     0.3839171
  C       -1.0685120    -1.2503820    -0.1151110
  C       -1.0684970     1.2504130    -0.1151130
  H       -0.4262000    -0.0000020     1.4870350
  H       -1.0294530    -1.2924530    -1.2089010
  H       -0.6037474    -2.1628554     0.2685812
  H       -2.1238830    -1.2544140     0.1901240
  H       -1.0294410     1.2924540    -1.2089060
  H       -0.5972720     2.1575400     0.2733260
  H       -2.1238650     1.2544300     0.1901270
units angstrom
no_reorient  #important for SAPT in psi4, default
symmetry c1  #important for SAPT in psi4, default
}

set PROPERTIES_ORIGIN ["COM"]
properties('MP2/aug-cc-pvtz', properties = ['dipole'])
--------------------------------------------------------------------------

    Molecular point group: c1
  Charge       = -1
  Multiplicity = 1
  Basis Set: AUG-CC-PVTZ
    Blend: AUG-CC-PVTZ
  Basis Set: (AUG-CC-PVTZ AUX)
    Blend: AUG-CC-PVTZ-JKFIT

    Orbital Energies [Eh]
    ---------------------

    Doubly Occupied:

       1A    -91.667171     2A    -11.069079     3A    -11.056003
       4A    -11.055811     5A     -8.667096     6A     -6.348622
       7A     -6.346996     8A     -6.346984     9A     -0.899309
      10A     -0.769361    11A     -0.680326    12A     -0.561189
      13A     -0.451580    14A     -0.415548    15A     -0.396885
      16A     -0.376949    17A     -0.320416    18A     -0.312240
      19A     -0.218607    20A     -0.092628    21A     -0.091329

  @DF-RHF Final Energy:  -515.27596227895526

   => Energetics <=

    Nuclear Repulsion Energy =            158.7864710682638929
    One-Electron Energy =               -1031.8366108219413491
    Two-Electron Energy =                 357.7741774747221939
    Total Energy =                       -515.2759622789553760
  Basis Set: (AUG-CC-PVTZ AUX)
    Blend: AUG-CC-PVTZ-RI
    Molecular point group: c1

    Geometry (in Angstrom), charge = -1, multiplicity = 1:

       Center              X                  Y                   Z               Mass
    ------------   -----------------  -----------------  -----------------  -----------------
         S            1.326228706614    -0.001149615864    -0.058862304976    31.972071174400
         C           -0.464037593386     0.006436684136     0.384992795024    12.000000000000
         C           -1.171355293386    -1.251525615864    -0.114035304976    12.000000000000
         C           -1.171340293386     1.249269384136    -0.114037304976    12.000000000000
         H           -0.529043293386    -0.001145615864     1.488110695024     1.007825032230
         H           -1.132296293386    -1.293596615864    -1.207825304976     1.007825032230
         H           -0.706590693386    -2.163999015864     0.269656895024     1.007825032230
         H           -2.226726293386    -1.255557615864     0.191199695024     1.007825032230
         H           -1.132284293386     1.291310384136    -1.207830304976     1.007825032230
         H           -0.700115293386     2.156396384136     0.274401695024     1.007825032230
         H           -2.226708293386     1.253286384136     0.191202695024     1.007825032230

  Basis Set: AUG-CC-PVTZ
    Blend: AUG-CC-PVTZ
  Basis Set: (AUG-CC-PVTZ AUX)
    Blend: AUG-CC-PVTZ-JKFIT
	 Reference Energy          =    -515.2759622789552623 [Eh]
	 Singles Energy            =      -0.0000000000000000 [Eh]
	 Same-Spin Energy          =      -0.1881309979165927 [Eh]
	 Opposite-Spin Energy      =      -0.6464887435111674 [Eh]
	 Correlation Energy        =      -0.8346197414277601 [Eh]
	 Total Energy              =    -516.1105820203830490 [Eh]

	 ================> DF-SCS-MP2 Energies <==================
	-----------------------------------------------------------
	 SCS Same-Spin Scale       =       0.3333333333333333 [-]
	 SCS Opposite-Spin Scale   =       1.2000000000000000 [-]
	 SCS Same-Spin Energy      =      -0.0627103326388642 [Eh]
	 SCS Opposite-Spin Energy  =      -0.7757864922134008 [Eh]
	 SCS Correlation Energy    =      -0.8384968248522651 [Eh]
	 SCS Total Energy          =    -516.1144591038075760 [Eh]
	-----------------------------------------------------------

  Dipole Moment: [D]
     X:    -5.1778      Y:     0.0072      Z:     0.5611     Total:     5.2081

*** Psi4 exiting successfully. Buy a developer a beer!
