                               Psi4 1.3.2 release

  ==> Input File <==

--------------------------------------------------------------------------
#psi4
#
memory 32 gb

molecule  {
-1 1
  S        1.4290720    -0.0000060    -0.0599380
  C       -0.3526060    -0.0000140     0.3907100
  C       -0.9747470    -1.0866165    -0.0488617
  C       -1.0684970     1.2504130    -0.1151130
  H       -0.4262000    -0.0000020     1.4870350
  H       -1.0294530    -1.2924530    -1.2089010
  H       -0.5973500    -2.1575670     0.2732900
  H       -2.1238830    -1.2544140     0.1901240
  H       -1.0294410     1.2924540    -1.2089060
  H       -0.5972720     2.1575400     0.2733260
  H       -2.1238650     1.2544300     0.1901270
units angstrom
no_reorient  #important for SAPT in psi4, default
symmetry c1  #important for SAPT in psi4, default
}

set PROPERTIES_ORIGIN ["COM"]
properties('MP2/aug-cc-pvtz', properties = ['dipole'])
--------------------------------------------------------------------------

    Molecular point group: c1
  Charge       = -1
  Multiplicity = 1
  Basis Set: AUG-CC-PVTZ
    Blend: AUG-CC-PVTZ
  Basis Set: (AUG-CC-PVTZ AUX)
    Blend: AUG-CC-PVTZ-JKFIT

    Orbital Energies [Eh]
    ---------------------

    Doubly Occupied:

       1A    -91.668873     2A    -11.072357     3A    -11.057736
       4A    -11.056370     5A     -8.669125     6A     -6.350678
       7A     -6.348926     8A     -6.348910     9A     -0.937690
      10A     -0.768034    11A     -0.675288    12A     -0.573631
      13A     -0.468350    14A     -0.411676    15A     -0.406881
      16A     -0.361296    17A     -0.332828    18A     -0.280787
      19A     -0.213751    20A     -0.095428    21A     -0.094634

  @DF-RHF Final Energy:  -515.22743708347184

   => Energetics <=

    Nuclear Repulsion Energy =            161.9196641271021235
    One-Electron Energy =               -1037.9077042315586823
    Two-Electron Energy =                 360.7606030209847745
    Total Energy =                       -515.2274370834718411
  Basis Set: (AUG-CC-PVTZ AUX)
    Blend: AUG-CC-PVTZ-RI
    Molecular point group: c1

    Geometry (in Angstrom), charge = -1, multiplicity = 1:

       Center              X                  Y                   Z               Mass
    ------------   -----------------  -----------------  -----------------  -----------------
         S            1.309772103156    -0.026199105108    -0.070608127822    31.972071174400
         C           -0.471905896844    -0.026207105108     0.380039872178    12.000000000000
         C           -1.094046896844    -1.112809605108    -0.059531827822    12.000000000000
         C           -1.187796896844     1.224219894892    -0.125783127822    12.000000000000
         H           -0.545499896844    -0.026195105108     1.476364872178     1.007825032230
         H           -1.148752896844    -1.318646105108    -1.219571127822     1.007825032230
         H           -0.716649896844    -2.183760105108     0.262619872178     1.007825032230
         H           -2.243182896844    -1.280607105108     0.179453872178     1.007825032230
         H           -1.148740896844     1.266260894892    -1.219576127822     1.007825032230
         H           -0.716571896844     2.131346894892     0.262655872178     1.007825032230
         H           -2.243164896844     1.228236894892     0.179456872178     1.007825032230

  Basis Set: AUG-CC-PVTZ
    Blend: AUG-CC-PVTZ
  Basis Set: (AUG-CC-PVTZ AUX)
    Blend: AUG-CC-PVTZ-JKFIT
	 Reference Energy          =    -515.2274370834718411 [Eh]
	 Singles Energy            =      -0.0000000000000000 [Eh]
	 Same-Spin Energy          =      -0.1911154774163331 [Eh]
	 Opposite-Spin Energy      =      -0.6505677834075199 [Eh]
	 Correlation Energy        =      -0.8416832608238530 [Eh]
	 Total Energy              =    -516.0691203442956976 [Eh]

	 ================> DF-SCS-MP2 Energies <==================
	-----------------------------------------------------------
	 SCS Same-Spin Scale       =       0.3333333333333333 [-]
	 SCS Opposite-Spin Scale   =       1.2000000000000000 [-]
	 SCS Same-Spin Energy      =      -0.0637051591387777 [Eh]
	 SCS Opposite-Spin Energy  =      -0.7806813400890238 [Eh]
	 SCS Correlation Energy    =      -0.8443864992278015 [Eh]
	 SCS Total Energy          =    -516.0718235826996079 [Eh]
	-----------------------------------------------------------

  Dipole Moment: [D]
     X:    -4.9097      Y:     0.1745      Z:     0.5981     Total:     4.9491

*** Psi4 exiting successfully. Buy a developer a beer!
