                               Psi4 1.3.2 release

  ==> Input File <==

--------------------------------------------------------------------------
#psi4
#
memory 32 gb

molecule  {
-1 1
  S        1.4290720    -0.0000060    -0.0599380
  C       -0.3526060    -0.0000140     0.3907100
  C       -1.0505808    -1.2654898    -0.1024416
  C       -1.0505649     1.2655206    -0.1024431
  H       -0.4262000    -0.0000020     1.4870350
  H       -1.0294530    -1.2924530    -1.2089010
  H       -0.5973500    -2.1575670     0.2732900
  H       -2.1238830    -1.2544140     0.1901240
  H       -1.0294410     1.2924540    -1.2089060
  H       -0.5972720     2.1575400     0.2733260
  H       -2.1238650     1.2544300     0.1901270
units angstrom
no_reorient  #important for SAPT in psi4, default
symmetry c1  #important for SAPT in psi4, default
}

set PROPERTIES_ORIGIN ["COM"]
properties('MP2/aug-cc-pvtz', properties = ['dipole'])
--------------------------------------------------------------------------

    Molecular point group: c1
  Charge       = -1
  Multiplicity = 1
  Basis Set: AUG-CC-PVTZ
    Blend: AUG-CC-PVTZ
  Basis Set: (AUG-CC-PVTZ AUX)
    Blend: AUG-CC-PVTZ-JKFIT

    Orbital Energies [Eh]
    ---------------------

    Doubly Occupied:

       1A    -91.666694     2A    -11.069254     3A    -11.056856
       4A    -11.056830     5A     -8.666777     6A     -6.348318
       7A     -6.346680     8A     -6.346672     9A     -0.897538
      10A     -0.770224    11A     -0.680814    12A     -0.561810
      13A     -0.453888    14A     -0.413584    15A     -0.398138
      16A     -0.369787    17A     -0.327958    18A     -0.310604
      19A     -0.218805    20A     -0.092283    21A     -0.091193

  @DF-RHF Final Energy:  -515.27470233012878

   => Energetics <=

    Nuclear Repulsion Energy =            158.7938195325787945
    One-Electron Energy =               -1031.8476352447396494
    Two-Electron Energy =                 357.7791133820319942
    Total Energy =                       -515.2747023301287754
  Basis Set: (AUG-CC-PVTZ AUX)
    Blend: AUG-CC-PVTZ-RI
    Molecular point group: c1

    Geometry (in Angstrom), charge = -1, multiplicity = 1:

       Center              X                  Y                   Z               Mass
    ------------   -----------------  -----------------  -----------------  -----------------
         S            1.319033060178    -0.000005968993    -0.064064869995    31.972071174400
         C           -0.462644939822    -0.000013968993     0.386583130005    12.000000000000
         C           -1.160619739822    -1.265489768993    -0.106568469995    12.000000000000
         C           -1.160603839822     1.265520631007    -0.106569969995    12.000000000000
         H           -0.536238939822    -0.000001968993     1.482908130005     1.007825032230
         H           -1.139491939822    -1.292452968993    -1.213027869995     1.007825032230
         H           -0.707388939822    -2.157566968993     0.269163130005     1.007825032230
         H           -2.233921939822    -1.254413968993     0.185997130005     1.007825032230
         H           -1.139479939822     1.292454031007    -1.213032869995     1.007825032230
         H           -0.707310939822     2.157540031007     0.269199130005     1.007825032230
         H           -2.233903939822     1.254430031007     0.186000130005     1.007825032230

  Basis Set: AUG-CC-PVTZ
    Blend: AUG-CC-PVTZ
  Basis Set: (AUG-CC-PVTZ AUX)
    Blend: AUG-CC-PVTZ-JKFIT
	 Reference Energy          =    -515.2747023301287754 [Eh]
	 Singles Energy            =      -0.0000000000000000 [Eh]
	 Same-Spin Energy          =      -0.1881035385410647 [Eh]
	 Opposite-Spin Energy      =      -0.6464560127797208 [Eh]
	 Correlation Energy        =      -0.8345595513207854 [Eh]
	 Total Energy              =    -516.1092618814495836 [Eh]

	 ================> DF-SCS-MP2 Energies <==================
	-----------------------------------------------------------
	 SCS Same-Spin Scale       =       0.3333333333333333 [-]
	 SCS Opposite-Spin Scale   =       1.2000000000000000 [-]
	 SCS Same-Spin Energy      =      -0.0627011795136882 [Eh]
	 SCS Opposite-Spin Energy  =      -0.7757472153356649 [Eh]
	 SCS Correlation Energy    =      -0.8384483948493532 [Eh]
	 SCS Total Energy          =    -516.1131507249781407 [Eh]
	-----------------------------------------------------------

  Dipole Moment: [D]
     X:    -5.1060      Y:    -0.0000      Z:     0.5894     Total:     5.1399

*** Psi4 exiting successfully. Buy a developer a beer!
