                               Psi4 1.4a3.dev225

  ==> Input File <==

--------------------------------------------------------------------------
#psi4
#
memory 32 gb

molecule  {
-1 1
  S        0.8760760     1.1282850     0.0000000
  C       -0.5244280    -0.0603010     0.0000000
  C       -0.5244280    -0.9363990     1.2509370
  C       -0.5244280    -0.9363990    -1.2509370
  H       -1.5037660     0.5397873     0.0000000
  H        0.3938430    -1.5316650     1.2938450
  H       -0.5721740    -0.3268970     2.1577640
  H       -1.3798600    -1.6252560     1.2536820
  H        0.3938430    -1.5316650    -1.2938450
  H       -0.5721740    -0.3268970    -2.1577640
  H       -1.3798600    -1.6252560    -1.2536820
units angstrom
no_reorient  #important for SAPT in psi4, default
symmetry c1  #important for SAPT in psi4, default
}

set PROPERTIES_ORIGIN ["COM"]
properties('MP2/aug-cc-pvtz', properties = ['dipole'])
--------------------------------------------------------------------------

    Molecular point group: c1
  Charge       = -1
  Multiplicity = 1
  Basis Set: AUG-CC-PVTZ
    Blend: AUG-CC-PVTZ
  Basis Set: (AUG-CC-PVTZ AUX)
    Blend: AUG-CC-PVTZ-JKFIT

    Orbital Energies [Eh]
    ---------------------

    Doubly Occupied:

       1A    -91.667608     2A    -11.075394     3A    -11.056235
       4A    -11.056214     5A     -8.667657     6A     -6.349199
       7A     -6.347557     8A     -6.347543     9A     -0.896468
      10A     -0.768566    11A     -0.680783    12A     -0.556073
      13A     -0.448564    14A     -0.415338    15A     -0.397255
      16A     -0.376861    17A     -0.317334    18A     -0.308728
      19A     -0.221135    20A     -0.093054    21A     -0.091715

  @DF-RHF Final Energy:  -515.27436471274598

   => Energetics <=

    Nuclear Repulsion Energy =            158.6123676303060961
    One-Electron Energy =               -1031.4949043190738394
    Two-Electron Energy =                 357.6081719760217084
    Total Energy =                       -515.2743647127459781
  Basis Set: (AUG-CC-PVTZ AUX)
    Blend: AUG-CC-PVTZ-RI
    Molecular point group: c1

    Geometry (in Angstrom), charge = -1, multiplicity = 1:

       Center              X                  Y                   Z               Mass
    ------------   -----------------  -----------------  -----------------  -----------------
         S            0.816440607686     1.043005212714     0.000000000000    31.972071174400
         C           -0.584063392314    -0.145580787286     0.000000000000    12.000000000000
         C           -0.584063392314    -1.021678787286     1.250937000000    12.000000000000
         C           -0.584063392314    -1.021678787286    -1.250937000000    12.000000000000
         H           -1.563401392314     0.454507512714     0.000000000000     1.007825032230
         H            0.334207607686    -1.616944787286     1.293845000000     1.007825032230
         H           -0.631809392314    -0.412176787286     2.157764000000     1.007825032230
         H           -1.439495392314    -1.710535787286     1.253682000000     1.007825032230
         H            0.334207607686    -1.616944787286    -1.293845000000     1.007825032230
         H           -0.631809392314    -0.412176787286    -2.157764000000     1.007825032230
         H           -1.439495392314    -1.710535787286    -1.253682000000     1.007825032230

  Basis Set: AUG-CC-PVTZ
    Blend: AUG-CC-PVTZ
  Basis Set: (AUG-CC-PVTZ AUX)
    Blend: AUG-CC-PVTZ-JKFIT
	 Reference Energy          =    -515.2743647127459781 [Eh]
	 Singles Energy            =      -0.0000000000000000 [Eh]
	 Same-Spin Energy          =      -0.1881707368882034 [Eh]
	 Opposite-Spin Energy      =      -0.6467915017291488 [Eh]
	 Correlation Energy        =      -0.8349622386173522 [Eh]
	 Total Energy              =    -516.1093269513633004 [Eh]

	 ================> DF-SCS-MP2 Energies <==================
	-----------------------------------------------------------
	 SCS Same-Spin Scale       =       0.3333333333333333 [-]
	 SCS Opposite-Spin Scale   =       1.2000000000000000 [-]
	 SCS Same-Spin Energy      =      -0.0627235789627345 [Eh]
	 SCS Opposite-Spin Energy  =      -0.7761498020749785 [Eh]
	 SCS Correlation Energy    =      -0.8388733810377130 [Eh]
	 SCS Total Energy          =    -516.1132380937837070 [Eh]
	-----------------------------------------------------------

  Dipole Moment: [D]
     X:    -3.3687      Y:    -3.8671      Z:     0.0000     Total:     5.1285

*** Psi4 exiting successfully. Buy a developer a beer!
