                               Psi4 1.4a3.dev225

  ==> Input File <==

--------------------------------------------------------------------------
#psi4
#
memory 32 gb

molecule  {
-1 1
  S        0.8760760     1.1282850     0.0000000
  C       -0.5244280    -0.0603010     0.0000000
  C       -0.5244280    -0.9077162     1.2099822
  C       -0.5244280    -0.9363990    -1.2509370
  H       -1.4611330     0.5136640     0.0000000
  H        0.3938430    -1.5316650     1.2938450
  H       -0.5721740    -0.3268970     2.1577640
  H       -1.3798600    -1.6252560     1.2536820
  H        0.3938430    -1.5316650    -1.2938450
  H       -0.5721740    -0.3268970    -2.1577640
  H       -1.3798600    -1.6252560    -1.2536820
units angstrom
no_reorient  #important for SAPT in psi4, default
symmetry c1  #important for SAPT in psi4, default
}

set PROPERTIES_ORIGIN ["COM"]
properties('MP2/aug-cc-pvtz', properties = ['dipole'])
--------------------------------------------------------------------------

    Molecular point group: c1
  Charge       = -1
  Multiplicity = 1
  Basis Set: AUG-CC-PVTZ
    Blend: AUG-CC-PVTZ
  Basis Set: (AUG-CC-PVTZ AUX)
    Blend: AUG-CC-PVTZ-JKFIT

    Orbital Energies [Eh]
    ---------------------

    Doubly Occupied:

       1A    -91.667033     2A    -11.065900     3A    -11.059035
       4A    -11.055733     5A     -8.667144     6A     -6.348693
       7A     -6.347034     8A     -6.347022     9A     -0.905437
      10A     -0.767344    11A     -0.680350    12A     -0.564399
      13A     -0.452911    14A     -0.412792    15A     -0.397649
      16A     -0.371192    17A     -0.323887    18A     -0.308426
      19A     -0.219995    20A     -0.093054    21A     -0.092012

  @DF-RHF Final Energy:  -515.27330473093252

   => Energetics <=

    Nuclear Repulsion Energy =            159.5836837322219139
    One-Electron Energy =               -1033.4198925611717641
    Two-Electron Energy =                 358.5629040980172704
    Total Energy =                       -515.2733047309325229
  Basis Set: (AUG-CC-PVTZ AUX)
    Blend: AUG-CC-PVTZ-RI
    Molecular point group: c1

    Geometry (in Angstrom), charge = -1, multiplicity = 1:

       Center              X                  Y                   Z               Mass
    ------------   -----------------  -----------------  -----------------  -----------------
         S            0.815867924617     1.038768517456     0.006550423263    31.972071174400
         C           -0.584636075383    -0.149817482544     0.006550423263    12.000000000000
         C           -0.584636075383    -0.997232682544     1.216532623263    12.000000000000
         C           -0.584636075383    -1.025915482544    -1.244386576737    12.000000000000
         H           -1.521341075383     0.424147517456     0.006550423263     1.007825032230
         H            0.333634924617    -1.621181482544     1.300395423263     1.007825032230
         H           -0.632382075383    -0.416413482544     2.164314423263     1.007825032230
         H           -1.440068075383    -1.714772482544     1.260232423263     1.007825032230
         H            0.333634924617    -1.621181482544    -1.287294576737     1.007825032230
         H           -0.632382075383    -0.416413482544    -2.151213576737     1.007825032230
         H           -1.440068075383    -1.714772482544    -1.247131576737     1.007825032230

  Basis Set: AUG-CC-PVTZ
    Blend: AUG-CC-PVTZ
  Basis Set: (AUG-CC-PVTZ AUX)
    Blend: AUG-CC-PVTZ-JKFIT
	 Reference Energy          =    -515.2733047309325229 [Eh]
	 Singles Energy            =      -0.0000000000000000 [Eh]
	 Same-Spin Energy          =      -0.1885348357548941 [Eh]
	 Opposite-Spin Energy      =      -0.6469302054593941 [Eh]
	 Correlation Energy        =      -0.8354650412142881 [Eh]
	 Total Energy              =    -516.1087697721468430 [Eh]

	 ================> DF-SCS-MP2 Energies <==================
	-----------------------------------------------------------
	 SCS Same-Spin Scale       =       0.3333333333333333 [-]
	 SCS Opposite-Spin Scale   =       1.2000000000000000 [-]
	 SCS Same-Spin Energy      =      -0.0628449452516314 [Eh]
	 SCS Opposite-Spin Energy  =      -0.7763162465512728 [Eh]
	 SCS Correlation Energy    =      -0.8391611918029042 [Eh]
	 SCS Total Energy          =    -516.1124659227353959 [Eh]
	-----------------------------------------------------------

  Dipole Moment: [D]
     X:    -3.4223      Y:    -3.8426      Z:    -0.0130     Total:     5.1457

*** Psi4 exiting successfully. Buy a developer a beer!
