                               Psi4 1.3.2 release

  ==> Input File <==

--------------------------------------------------------------------------
#psi4
#
memory 32 gb

molecule  {
-1 1
  S        1.4290720    -0.0000060    -0.0599380
  C       -0.3526060    -0.0000140     0.3907100
  C       -1.1153945    -1.3322648    -0.1482357
  C       -1.0684970     1.2504130    -0.1151130
  H       -0.4262000    -0.0000020     1.4870350
  H       -1.0294530    -1.2924530    -1.2089010
  H       -0.5973500    -2.1575670     0.2732900
  H       -2.1238830    -1.2544140     0.1901240
  H       -1.0294410     1.2924540    -1.2089060
  H       -0.5972720     2.1575400     0.2733260
  H       -2.1238650     1.2544300     0.1901270
units angstrom
no_reorient  #important for SAPT in psi4, default
symmetry c1  #important for SAPT in psi4, default
}

set PROPERTIES_ORIGIN ["COM"]
properties('MP2/aug-cc-pvtz', properties = ['dipole'])
--------------------------------------------------------------------------

    Molecular point group: c1
  Charge       = -1
  Multiplicity = 1
  Basis Set: AUG-CC-PVTZ
    Blend: AUG-CC-PVTZ
  Basis Set: (AUG-CC-PVTZ AUX)
    Blend: AUG-CC-PVTZ-JKFIT

    Orbital Energies [Eh]
    ---------------------

    Doubly Occupied:

       1A    -91.667707     2A    -11.074616     3A    -11.056190
       4A    -11.050841     5A     -8.667623     6A     -6.349157
       7A     -6.347545     8A     -6.347539     9A     -0.886420
      10A     -0.770500    11A     -0.683774    12A     -0.557463
      13A     -0.447833    14A     -0.422492    15A     -0.397129
      16A     -0.386676    17A     -0.323962    18A     -0.295366
      19A     -0.220905    20A     -0.092137    21A     -0.090940

  @DF-RHF Final Energy:  -515.26948340989929

   => Energetics <=

    Nuclear Repulsion Energy =            157.3977527118307194
    One-Electron Energy =               -1029.0608380529849910
    Two-Electron Energy =                 356.3936019312549774
    Total Energy =                       -515.2694834098992942
  Basis Set: (AUG-CC-PVTZ AUX)
    Blend: AUG-CC-PVTZ-RI
    Molecular point group: c1

    Geometry (in Angstrom), charge = -1, multiplicity = 1:

       Center              X                  Y                   Z               Mass
    ------------   -----------------  -----------------  -----------------  -----------------
         S            1.332267650830     0.013090559078    -0.054713977165    31.972071174400
         C           -0.449410349170     0.013082559078     0.395934022835    12.000000000000
         C           -1.212198849170    -1.319168240922    -0.143011677165    12.000000000000
         C           -1.165301349170     1.263509559078    -0.109888977165    12.000000000000
         H           -0.523004349170     0.013094559078     1.492259022835     1.007825032230
         H           -1.126257349170    -1.279356440922    -1.203676977165     1.007825032230
         H           -0.694154349170    -2.144470440922     0.278514022835     1.007825032230
         H           -2.220687349170    -1.241317440922     0.195348022835     1.007825032230
         H           -1.126245349170     1.305550559078    -1.203681977165     1.007825032230
         H           -0.694076349170     2.170636559078     0.278550022835     1.007825032230
         H           -2.220669349170     1.267526559078     0.195351022835     1.007825032230

  Basis Set: AUG-CC-PVTZ
    Blend: AUG-CC-PVTZ
  Basis Set: (AUG-CC-PVTZ AUX)
    Blend: AUG-CC-PVTZ-JKFIT
	 Reference Energy          =    -515.2694834098992942 [Eh]
	 Singles Energy            =      -0.0000000000000000 [Eh]
	 Same-Spin Energy          =      -0.1879205971149672 [Eh]
	 Opposite-Spin Energy      =      -0.6465348665889484 [Eh]
	 Correlation Energy        =      -0.8344554637039157 [Eh]
	 Total Energy              =    -516.1039388736031697 [Eh]

	 ================> DF-SCS-MP2 Energies <==================
	-----------------------------------------------------------
	 SCS Same-Spin Scale       =       0.3333333333333333 [-]
	 SCS Opposite-Spin Scale   =       1.2000000000000000 [-]
	 SCS Same-Spin Energy      =      -0.0626401990383224 [Eh]
	 SCS Opposite-Spin Energy  =      -0.7758418399067381 [Eh]
	 SCS Correlation Energy    =      -0.8384820389450605 [Eh]
	 SCS Total Energy          =    -516.1079654488443111 [Eh]
	-----------------------------------------------------------

  Dipole Moment: [D]
     X:    -5.1545      Y:     0.0341      Z:     0.5760     Total:     5.1867

*** Psi4 exiting successfully. Buy a developer a beer!
