                               Psi4 1.4a3.dev225

  ==> Input File <==

--------------------------------------------------------------------------
#psi4
#
memory 32 gb

molecule  {
-1 1
  S        0.8760760     1.1282850     0.0000000
  C       -0.5244280    -0.0603010     0.0000000
  C       -0.5244280    -0.9650818     1.2918918
  C       -0.5244280    -0.9363990    -1.2509370
  H       -1.4611330     0.5136640     0.0000000
  H        0.3938430    -1.5316650     1.2938450
  H       -0.5721740    -0.3268970     2.1577640
  H       -1.3798600    -1.6252560     1.2536820
  H        0.3938430    -1.5316650    -1.2938450
  H       -0.5721740    -0.3268970    -2.1577640
  H       -1.3798600    -1.6252560    -1.2536820
units angstrom
no_reorient  #important for SAPT in psi4, default
symmetry c1  #important for SAPT in psi4, default
}

set PROPERTIES_ORIGIN ["COM"]
properties('MP2/aug-cc-pvtz', properties = ['dipole'])
--------------------------------------------------------------------------

    Molecular point group: c1
  Charge       = -1
  Multiplicity = 1
  Basis Set: AUG-CC-PVTZ
    Blend: AUG-CC-PVTZ
  Basis Set: (AUG-CC-PVTZ AUX)
    Blend: AUG-CC-PVTZ-JKFIT

    Orbital Energies [Eh]
    ---------------------

    Doubly Occupied:

       1A    -91.667178     2A    -11.071680     3A    -11.055747
       4A    -11.052852     5A     -8.667176     6A     -6.348717
       7A     -6.347093     8A     -6.347084     9A     -0.891595
      10A     -0.769215    11A     -0.682742    12A     -0.559358
      13A     -0.448342    14A     -0.418378    15A     -0.396801
      16A     -0.381782    17A     -0.319987    18A     -0.305877
      19A     -0.221082    20A     -0.092175    21A     -0.091246

  @DF-RHF Final Energy:  -515.27472714776854

   => Energetics <=

    Nuclear Repulsion Energy =            158.1448824088080869
    One-Electron Energy =               -1030.5670040342702123
    Two-Electron Energy =                 357.1473944776935241
    Total Energy =                       -515.2747271477685445
  Basis Set: (AUG-CC-PVTZ AUX)
    Blend: AUG-CC-PVTZ-RI
    Molecular point group: c1

    Geometry (in Angstrom), charge = -1, multiplicity = 1:

       Center              X                  Y                   Z               Mass
    ------------   -----------------  -----------------  -----------------  -----------------
         S            0.815867924617     1.047943729171    -0.006550423263    31.972071174400
         C           -0.584636075383    -0.140642270829    -0.006550423263    12.000000000000
         C           -0.584636075383    -1.045423070829     1.285341376737    12.000000000000
         C           -0.584636075383    -1.016740270829    -1.257487423263    12.000000000000
         H           -1.521341075383     0.433322729171    -0.006550423263     1.007825032230
         H            0.333634924617    -1.612006270829     1.287294576737     1.007825032230
         H           -0.632382075383    -0.407238270829     2.151213576737     1.007825032230
         H           -1.440068075383    -1.705597270829     1.247131576737     1.007825032230
         H            0.333634924617    -1.612006270829    -1.300395423263     1.007825032230
         H           -0.632382075383    -0.407238270829    -2.164314423263     1.007825032230
         H           -1.440068075383    -1.705597270829    -1.260232423263     1.007825032230

  Basis Set: AUG-CC-PVTZ
    Blend: AUG-CC-PVTZ
  Basis Set: (AUG-CC-PVTZ AUX)
    Blend: AUG-CC-PVTZ-JKFIT
	 Reference Energy          =    -515.2747271477685445 [Eh]
	 Singles Energy            =      -0.0000000000000000 [Eh]
	 Same-Spin Energy          =      -0.1879457897950961 [Eh]
	 Opposite-Spin Energy      =      -0.6463447981829291 [Eh]
	 Correlation Energy        =      -0.8342905879780251 [Eh]
	 Total Energy              =    -516.1090177357465336 [Eh]

	 ================> DF-SCS-MP2 Energies <==================
	-----------------------------------------------------------
	 SCS Same-Spin Scale       =       0.3333333333333333 [-]
	 SCS Opposite-Spin Scale   =       1.2000000000000000 [-]
	 SCS Same-Spin Energy      =      -0.0626485965983654 [Eh]
	 SCS Opposite-Spin Energy  =      -0.7756137578195149 [Eh]
	 SCS Correlation Energy    =      -0.8382623544178802 [Eh]
	 SCS Total Energy          =    -516.1129895021864513 [Eh]
	-----------------------------------------------------------

  Dipole Moment: [D]
     X:    -3.4491      Y:    -3.8753      Z:    -0.0067     Total:     5.1879

*** Psi4 exiting successfully. Buy a developer a beer!
