                               Psi4 1.4a3.dev225

  ==> Input File <==

--------------------------------------------------------------------------
#psi4
#
memory 32 gb

molecule  {
-1 1
  S        0.8760760     1.1282850     0.0000000
  C       -0.5244280    -0.0603010     0.0000000
  C       -0.5244280    -0.9363990     1.2509370
  C       -0.5244280    -0.9363990    -1.2509370
  H       -1.4781862     0.5241133     0.0000000
  H        0.3938430    -1.5316650     1.2938450
  H       -0.5721740    -0.3268970     2.1577640
  H       -1.3798600    -1.6252560     1.2536820
  H        0.3938430    -1.5316650    -1.2938450
  H       -0.5721740    -0.3268970    -2.1577640
  H       -1.3798600    -1.6252560    -1.2536820
units angstrom
no_reorient  #important for SAPT in psi4, default
symmetry c1  #important for SAPT in psi4, default
}

set PROPERTIES_ORIGIN ["COM"]
properties('MP2/aug-cc-pvtz', properties = ['dipole'])
--------------------------------------------------------------------------

    Molecular point group: c1
  Charge       = -1
  Multiplicity = 1
  Basis Set: AUG-CC-PVTZ
    Blend: AUG-CC-PVTZ
  Basis Set: (AUG-CC-PVTZ AUX)
    Blend: AUG-CC-PVTZ-JKFIT

    Orbital Energies [Eh]
    ---------------------

    Doubly Occupied:

       1A    -91.667225     2A    -11.071468     3A    -11.055875
       4A    -11.055852     5A     -8.667278     6A     -6.348822
       7A     -6.347181     8A     -6.347169     9A     -0.897261
      10A     -0.768297    11A     -0.681245    12A     -0.559339
      13A     -0.449461    14A     -0.415153    15A     -0.396996
      16A     -0.376656    17A     -0.316901    18A     -0.311900
      19A     -0.220905    20A     -0.092730    21A     -0.091622

  @DF-RHF Final Energy:  -515.27581958792109

   => Energetics <=

    Nuclear Repulsion Energy =            158.7544155851044536
    One-Electron Energy =               -1031.7818011658832802
    Two-Electron Energy =                 357.7515659928577065
    Total Energy =                       -515.2758195879212053
  Basis Set: (AUG-CC-PVTZ AUX)
    Blend: AUG-CC-PVTZ-RI
    Molecular point group: c1

    Geometry (in Angstrom), charge = -1, multiplicity = 1:

       Center              X                  Y                   Z               Mass
    ------------   -----------------  -----------------  -----------------  -----------------
         S            0.816096997845     1.043215759342     0.000000000000    31.972071174400
         C           -0.584407002155    -0.145370240658     0.000000000000    12.000000000000
         C           -0.584407002155    -1.021468240658     1.250937000000    12.000000000000
         C           -0.584407002155    -1.021468240658    -1.250937000000    12.000000000000
         H           -1.538165202155     0.439044059342     0.000000000000     1.007825032230
         H            0.333863997845    -1.616734240658     1.293845000000     1.007825032230
         H           -0.632153002155    -0.411966240658     2.157764000000     1.007825032230
         H           -1.439839002155    -1.710325240658     1.253682000000     1.007825032230
         H            0.333863997845    -1.616734240658    -1.293845000000     1.007825032230
         H           -0.632153002155    -0.411966240658    -2.157764000000     1.007825032230
         H           -1.439839002155    -1.710325240658    -1.253682000000     1.007825032230

  Basis Set: AUG-CC-PVTZ
    Blend: AUG-CC-PVTZ
  Basis Set: (AUG-CC-PVTZ AUX)
    Blend: AUG-CC-PVTZ-JKFIT
	 Reference Energy          =    -515.2758195879210916 [Eh]
	 Singles Energy            =      -0.0000000000000000 [Eh]
	 Same-Spin Energy          =      -0.1881501892863746 [Eh]
	 Opposite-Spin Energy      =      -0.6465893933450432 [Eh]
	 Correlation Energy        =      -0.8347395826314177 [Eh]
	 Total Energy              =    -516.1105591705525057 [Eh]

	 ================> DF-SCS-MP2 Energies <==================
	-----------------------------------------------------------
	 SCS Same-Spin Scale       =       0.3333333333333333 [-]
	 SCS Opposite-Spin Scale   =       1.2000000000000000 [-]
	 SCS Same-Spin Energy      =      -0.0627167297621248 [Eh]
	 SCS Opposite-Spin Energy  =      -0.7759072720140517 [Eh]
	 SCS Correlation Energy    =      -0.8386240017761766 [Eh]
	 SCS Total Energy          =    -516.1144435896973164 [Eh]
	-----------------------------------------------------------

  Dipole Moment: [D]
     X:    -3.4127      Y:    -3.8674      Z:     0.0000     Total:     5.1578

*** Psi4 exiting successfully. Buy a developer a beer!
