                               Psi4 1.4a3.dev225

  ==> Input File <==

--------------------------------------------------------------------------
#psi4
#
memory 32 gb

molecule  {
-1 1
  S        0.8760760     1.1282850     0.0000000
  C       -0.5396767    -0.0732423     0.0000000
  C       -0.5244280    -0.9363990     1.2509370
  C       -0.5244280    -0.9363990    -1.2509370
  H       -1.4611330     0.5136640     0.0000000
  H        0.3938430    -1.5316650     1.2938450
  H       -0.5721740    -0.3268970     2.1577640
  H       -1.3798600    -1.6252560     1.2536820
  H        0.3938430    -1.5316650    -1.2938450
  H       -0.5721740    -0.3268970    -2.1577640
  H       -1.3798600    -1.6252560    -1.2536820
units angstrom
no_reorient  #important for SAPT in psi4, default
symmetry c1  #important for SAPT in psi4, default
}

set PROPERTIES_ORIGIN ["COM"]
properties('MP2/aug-cc-pvtz', properties = ['dipole'])
--------------------------------------------------------------------------

    Molecular point group: c1
  Charge       = -1
  Multiplicity = 1
  Basis Set: AUG-CC-PVTZ
    Blend: AUG-CC-PVTZ
  Basis Set: (AUG-CC-PVTZ AUX)
    Blend: AUG-CC-PVTZ-JKFIT

    Orbital Energies [Eh]
    ---------------------

    Doubly Occupied:

       1A    -91.667056     2A    -11.068127     3A    -11.055894
       4A    -11.055866     5A     -8.666817     6A     -6.348311
       7A     -6.346712     8A     -6.346699     9A     -0.899444
      10A     -0.769525    11A     -0.678188    12A     -0.563130
      13A     -0.451669    14A     -0.415845    15A     -0.397217
      16A     -0.377187    17A     -0.319955    18A     -0.316214
      19A     -0.215054    20A     -0.092131    21A     -0.091334

  @DF-RHF Final Energy:  -515.27589826965220

   => Energetics <=

    Nuclear Repulsion Energy =            158.7158864086459857
    One-Electron Energy =               -1031.6988166739581629
    Two-Electron Energy =                 357.7070319956600315
    Total Energy =                       -515.2758982696522025
  Basis Set: (AUG-CC-PVTZ AUX)
    Blend: AUG-CC-PVTZ-RI
    Molecular point group: c1

    Geometry (in Angstrom), charge = -1, multiplicity = 1:

       Center              X                  Y                   Z               Mass
    ------------   -----------------  -----------------  -----------------  -----------------
         S            0.818306843601     1.045425990400     0.000000000000    31.972071174400
         C           -0.597445856399    -0.156101309600     0.000000000000    12.000000000000
         C           -0.582197156399    -1.019258009600     1.250937000000    12.000000000000
         C           -0.582197156399    -1.019258009600    -1.250937000000    12.000000000000
         H           -1.518902156399     0.430804990400     0.000000000000     1.007825032230
         H            0.336073843601    -1.614524009600     1.293845000000     1.007825032230
         H           -0.629943156399    -0.409756009600     2.157764000000     1.007825032230
         H           -1.437629156399    -1.708115009600     1.253682000000     1.007825032230
         H            0.336073843601    -1.614524009600    -1.293845000000     1.007825032230
         H           -0.629943156399    -0.409756009600    -2.157764000000     1.007825032230
         H           -1.437629156399    -1.708115009600    -1.253682000000     1.007825032230

  Basis Set: AUG-CC-PVTZ
    Blend: AUG-CC-PVTZ
  Basis Set: (AUG-CC-PVTZ AUX)
    Blend: AUG-CC-PVTZ-JKFIT
	 Reference Energy          =    -515.2758982696522025 [Eh]
	 Singles Energy            =      -0.0000000000000000 [Eh]
	 Same-Spin Energy          =      -0.1880712710447179 [Eh]
	 Opposite-Spin Energy      =      -0.6464632717636420 [Eh]
	 Correlation Energy        =      -0.8345345428083599 [Eh]
	 Total Energy              =    -516.1104328124605445 [Eh]

	 ================> DF-SCS-MP2 Energies <==================
	-----------------------------------------------------------
	 SCS Same-Spin Scale       =       0.3333333333333333 [-]
	 SCS Opposite-Spin Scale   =       1.2000000000000000 [-]
	 SCS Same-Spin Energy      =      -0.0626904236815726 [Eh]
	 SCS Opposite-Spin Energy  =      -0.7757559261163705 [Eh]
	 SCS Correlation Energy    =      -0.8384463497979431 [Eh]
	 SCS Total Energy          =    -516.1143446194500939 [Eh]
	-----------------------------------------------------------

  Dipole Moment: [D]
     X:    -3.4773      Y:    -3.9231      Z:    -0.0000     Total:     5.2424

*** Psi4 exiting successfully. Buy a developer a beer!
