                               Psi4 1.3.2 release

  ==> Input File <==

--------------------------------------------------------------------------
#psi4
#
memory 32 gb

molecule  {
-1 1
  S        1.4290720    -0.0000060    -0.0599380
  C       -0.1587121    -0.0000131     0.3416675
  C       -1.0685120    -1.2503820    -0.1151110
  C       -1.0684970     1.2504130    -0.1151130
  H       -0.4262000    -0.0000020     1.4870350
  H       -1.0294530    -1.2924530    -1.2089010
  H       -0.5973500    -2.1575670     0.2732900
  H       -2.1238830    -1.2544140     0.1901240
  H       -1.0294410     1.2924540    -1.2089060
  H       -0.5972720     2.1575400     0.2733260
  H       -2.1238650     1.2544300     0.1901270
units angstrom
no_reorient  #important for SAPT in psi4, default
symmetry c1  #important for SAPT in psi4, default
}

set PROPERTIES_ORIGIN ["COM"]
properties('MP2/aug-cc-pvtz', properties = ['dipole'])
--------------------------------------------------------------------------

    Molecular point group: c1
  Charge       = -1
  Multiplicity = 1
  Basis Set: AUG-CC-PVTZ
    Blend: AUG-CC-PVTZ
  Basis Set: (AUG-CC-PVTZ AUX)
    Blend: AUG-CC-PVTZ-JKFIT

    Orbital Energies [Eh]
    ---------------------

    Doubly Occupied:

       1A    -91.666572     2A    -11.081177     3A    -11.053926
       4A    -11.053912     5A     -8.671416     6A     -6.353686
       7A     -6.351236     8A     -6.351230     9A     -0.888437
      10A     -0.754796    11A     -0.725161    12A     -0.542788
      13A     -0.435726    14A     -0.406814    15A     -0.394223
      16A     -0.369770    17A     -0.292593    18A     -0.285026
      19A     -0.273820    20A     -0.096012    21A     -0.092852

  @DF-RHF Final Energy:  -515.24362573625467

   => Energetics <=

    Nuclear Repulsion Energy =            160.3776371529124276
    One-Electron Energy =               -1034.9601749436944829
    Two-Electron Energy =                 359.3389120545273840
    Total Energy =                       -515.2436257362546712
  Basis Set: (AUG-CC-PVTZ AUX)
    Blend: AUG-CC-PVTZ-RI
    Molecular point group: c1

    Geometry (in Angstrom), charge = -1, multiplicity = 1:

       Center              X                  Y                   Z               Mass
    ------------   -----------------  -----------------  -----------------  -----------------
         S            1.293757211719    -0.000006144930    -0.052168040489    31.972071174400
         C           -0.294026888281    -0.000013244930     0.349437459511    12.000000000000
         C           -1.203826788281    -1.250382144930    -0.107341040489    12.000000000000
         C           -1.203811788281     1.250412855070    -0.107343040489    12.000000000000
         H           -0.561514788281    -0.000002144930     1.494804959511     1.007825032230
         H           -1.164767788281    -1.292453144930    -1.201131040489     1.007825032230
         H           -0.732664788281    -2.157567144930     0.281059959511     1.007825032230
         H           -2.259197788281    -1.254414144930     0.197893959511     1.007825032230
         H           -1.164755788281     1.292453855070    -1.201136040489     1.007825032230
         H           -0.732586788281     2.157539855070     0.281095959511     1.007825032230
         H           -2.259179788281     1.254429855070     0.197896959511     1.007825032230

  Basis Set: AUG-CC-PVTZ
    Blend: AUG-CC-PVTZ
  Basis Set: (AUG-CC-PVTZ AUX)
    Blend: AUG-CC-PVTZ-JKFIT
	 Reference Energy          =    -515.2436257362546712 [Eh]
	 Singles Energy            =      -0.0000000000000000 [Eh]
	 Same-Spin Energy          =      -0.1911071843347037 [Eh]
	 Opposite-Spin Energy      =      -0.6498070831556679 [Eh]
	 Correlation Energy        =      -0.8409142674903716 [Eh]
	 Total Energy              =    -516.0845400037450190 [Eh]

	 ================> DF-SCS-MP2 Energies <==================
	-----------------------------------------------------------
	 SCS Same-Spin Scale       =       0.3333333333333333 [-]
	 SCS Opposite-Spin Scale   =       1.2000000000000000 [-]
	 SCS Same-Spin Energy      =      -0.0637023947782346 [Eh]
	 SCS Opposite-Spin Energy  =      -0.7797684997868015 [Eh]
	 SCS Correlation Energy    =      -0.8434708945650361 [Eh]
	 SCS Total Energy          =    -516.0870966308197012 [Eh]
	-----------------------------------------------------------

  Dipole Moment: [D]
     X:    -4.1678      Y:    -0.0000      Z:     0.5036     Total:     4.1981

*** Psi4 exiting successfully. Buy a developer a beer!
