                               Psi4 1.3.2 release

  ==> Input File <==

--------------------------------------------------------------------------
#psi4
#
memory 32 gb

molecule  {
-1 1
  S        1.4437140    -0.0000052     0.0025162
  C       -0.3526060    -0.0000140     0.3907100
  C       -1.0685120    -1.2503820    -0.1151110
  C       -1.0684970     1.2504130    -0.1151130
  H       -0.3878940    -0.0000017     1.4889355
  H       -1.0294530    -1.2924530    -1.2089010
  H       -0.5973500    -2.1575670     0.2732900
  H       -2.1238830    -1.2544140     0.1901240
  H       -1.0294410     1.2924540    -1.2089060
  H       -0.5972720     2.1575400     0.2733260
  H       -2.1238650     1.2544300     0.1901270
units angstrom
no_reorient  #important for SAPT in psi4, default
symmetry c1  #important for SAPT in psi4, default
}

set PROPERTIES_ORIGIN ["COM"]
properties('MP2/aug-cc-pvtz', properties = ['dipole'])
--------------------------------------------------------------------------

    Molecular point group: c1
  Charge       = -1
  Multiplicity = 1
  Basis Set: AUG-CC-PVTZ
    Blend: AUG-CC-PVTZ
  Basis Set: (AUG-CC-PVTZ AUX)
    Blend: AUG-CC-PVTZ-JKFIT

    Orbital Energies [Eh]
    ---------------------

    Doubly Occupied:

       1A    -91.666834     2A    -11.068664     3A    -11.056729
       4A    -11.056702     5A     -8.666882     6A     -6.348426
       7A     -6.346778     8A     -6.346774     9A     -0.897731
      10A     -0.768796    11A     -0.683903    12A     -0.558853
      13A     -0.451240    14A     -0.415844    15A     -0.397421
      16A     -0.377275    17A     -0.317080    18A     -0.317066
      19A     -0.218909    20A     -0.092751    21A     -0.090392

  @DF-RHF Final Energy:  -515.27583629431729

   => Energetics <=

    Nuclear Repulsion Energy =            158.5690008411311283
    One-Electron Energy =               -1031.3995787711571666
    Two-Electron Energy =                 357.5547416357086945
    Total Energy =                       -515.2758362943172870
  Basis Set: (AUG-CC-PVTZ AUX)
    Blend: AUG-CC-PVTZ-RI
    Molecular point group: c1

    Geometry (in Angstrom), charge = -1, multiplicity = 1:

       Center              X                  Y                   Z               Mass
    ------------   -----------------  -----------------  -----------------  -----------------
         S            1.332657008434    -0.000005545925    -0.024197703574    31.972071174400
         C           -0.463662991566    -0.000014345925     0.363996096426    12.000000000000
         C           -1.179568991566    -1.250382345925    -0.141824903574    12.000000000000
         C           -1.179553991566     1.250412654075    -0.141826903574    12.000000000000
         H           -0.498950991566    -0.000002045925     1.462221596426     1.007825032230
         H           -1.140509991566    -1.292453345925    -1.235614903574     1.007825032230
         H           -0.708406991566    -2.157567345925     0.246576096426     1.007825032230
         H           -2.234939991566    -1.254414345925     0.163410096426     1.007825032230
         H           -1.140497991566     1.292453654075    -1.235619903574     1.007825032230
         H           -0.708328991566     2.157539654075     0.246612096426     1.007825032230
         H           -2.234921991566     1.254429654075     0.163413096426     1.007825032230

  Basis Set: AUG-CC-PVTZ
    Blend: AUG-CC-PVTZ
  Basis Set: (AUG-CC-PVTZ AUX)
    Blend: AUG-CC-PVTZ-JKFIT
	 Reference Energy          =    -515.2758362943172870 [Eh]
	 Singles Energy            =      -0.0000000000000000 [Eh]
	 Same-Spin Energy          =      -0.1880630423915650 [Eh]
	 Opposite-Spin Energy      =      -0.6463550556618447 [Eh]
	 Correlation Energy        =      -0.8344180980534097 [Eh]
	 Total Energy              =    -516.1102543923707344 [Eh]

	 ================> DF-SCS-MP2 Energies <==================
	-----------------------------------------------------------
	 SCS Same-Spin Scale       =       0.3333333333333333 [-]
	 SCS Opposite-Spin Scale   =       1.2000000000000000 [-]
	 SCS Same-Spin Energy      =      -0.0626876807971883 [Eh]
	 SCS Opposite-Spin Energy  =      -0.7756260667942136 [Eh]
	 SCS Correlation Energy    =      -0.8383137475914020 [Eh]
	 SCS Total Energy          =    -516.1141500419087151 [Eh]
	-----------------------------------------------------------

  Dipole Moment: [D]
     X:    -5.2189      Y:    -0.0000      Z:     0.4807     Total:     5.2410

*** Psi4 exiting successfully. Buy a developer a beer!
