                               Psi4 1.3.2 release

  ==> Input File <==

--------------------------------------------------------------------------
#psi4
#
memory 32 gb

molecule  {
-1 1
  S        1.4290720    -0.0000060    -0.0599380
  C       -0.3526060    -0.0000140     0.3907100
  C       -1.1037147    -1.2190284    -0.1399838
  C       -1.1037015     1.2190598    -0.1399868
  H       -0.4262000    -0.0000020     1.4870350
  H       -1.0294530    -1.2924530    -1.2089010
  H       -0.5973500    -2.1575670     0.2732900
  H       -2.1238830    -1.2544140     0.1901240
  H       -1.0294410     1.2924540    -1.2089060
  H       -0.5972720     2.1575400     0.2733260
  H       -2.1238650     1.2544300     0.1901270
units angstrom
no_reorient  #important for SAPT in psi4, default
symmetry c1  #important for SAPT in psi4, default
}

set PROPERTIES_ORIGIN ["COM"]
properties('MP2/aug-cc-pvtz', properties = ['dipole'])
--------------------------------------------------------------------------

    Molecular point group: c1
  Charge       = -1
  Multiplicity = 1
  Basis Set: AUG-CC-PVTZ
    Blend: AUG-CC-PVTZ
  Basis Set: (AUG-CC-PVTZ AUX)
    Blend: AUG-CC-PVTZ-JKFIT

    Orbital Energies [Eh]
    ---------------------

    Doubly Occupied:

       1A    -91.668184     2A    -11.068969     3A    -11.054791
       4A    -11.054768     5A     -8.668104     6A     -6.349651
       7A     -6.348009     8A     -6.347993     9A     -0.899499
      10A     -0.765060    11A     -0.684068    12A     -0.562495
      13A     -0.451252    14A     -0.410709    15A     -0.396575
      16A     -0.387961    17A     -0.320080    18A     -0.293386
      19A     -0.224418    20A     -0.093423    21A     -0.092588

  @DF-RHF Final Energy:  -515.26993736292661

   => Energetics <=

    Nuclear Repulsion Energy =            158.8096084212268977
    One-Electron Energy =               -1031.8751277003152609
    Two-Electron Energy =                 357.7955819161617228
    Total Energy =                       -515.2699373629266120
  Basis Set: (AUG-CC-PVTZ AUX)
    Blend: AUG-CC-PVTZ-RI
    Molecular point group: c1

    Geometry (in Angstrom), charge = -1, multiplicity = 1:

       Center              X                  Y                   Z               Mass
    ------------   -----------------  -----------------  -----------------  -----------------
         S            1.336030255998    -0.000006064959    -0.052055424800    31.972071174400
         C           -0.445647744002    -0.000014064959     0.398592575200    12.000000000000
         C           -1.196756444002    -1.219028464959    -0.132101224800    12.000000000000
         C           -1.196743244002     1.219059735041    -0.132104224800    12.000000000000
         H           -0.519241744002    -0.000002064959     1.494917575200     1.007825032230
         H           -1.122494744002    -1.292453064959    -1.201018424800     1.007825032230
         H           -0.690391744002    -2.157567064959     0.281172575200     1.007825032230
         H           -2.216924744002    -1.254414064959     0.198006575200     1.007825032230
         H           -1.122482744002     1.292453935041    -1.201023424800     1.007825032230
         H           -0.690313744002     2.157539935041     0.281208575200     1.007825032230
         H           -2.216906744002     1.254429935041     0.198009575200     1.007825032230

  Basis Set: AUG-CC-PVTZ
    Blend: AUG-CC-PVTZ
  Basis Set: (AUG-CC-PVTZ AUX)
    Blend: AUG-CC-PVTZ-JKFIT
	 Reference Energy          =    -515.2699373629266120 [Eh]
	 Singles Energy            =      -0.0000000000000000 [Eh]
	 Same-Spin Energy          =      -0.1883180831083784 [Eh]
	 Opposite-Spin Energy      =      -0.6469412080609396 [Eh]
	 Correlation Energy        =      -0.8352592911693180 [Eh]
	 Total Energy              =    -516.1051966540959484 [Eh]

	 ================> DF-SCS-MP2 Energies <==================
	-----------------------------------------------------------
	 SCS Same-Spin Scale       =       0.3333333333333333 [-]
	 SCS Opposite-Spin Scale   =       1.2000000000000000 [-]
	 SCS Same-Spin Energy      =      -0.0627726943694595 [Eh]
	 SCS Opposite-Spin Energy  =      -0.7763294496731274 [Eh]
	 SCS Correlation Energy    =      -0.8391021440425869 [Eh]
	 SCS Total Energy          =    -516.1090395069692249 [Eh]
	-----------------------------------------------------------

  Dipole Moment: [D]
     X:    -5.2286      Y:    -0.0000      Z:     0.5115     Total:     5.2536

*** Psi4 exiting successfully. Buy a developer a beer!
