                               Psi4 1.3.2 release

  ==> Input File <==

--------------------------------------------------------------------------
#psi4
#
memory 32 gb

molecule  {
-1 1
  S        1.4290720    -0.0000060    -0.0599380
  C       -0.3872798     0.0297860     0.3633125
  C       -1.0685120    -1.2503820    -0.1151110
  C       -1.0684970     1.2504130    -0.1151130
  H       -0.4262000    -0.0000020     1.4870350
  H       -1.0294530    -1.2924530    -1.2089010
  H       -0.6231499    -2.1783022     0.2542807
  H       -2.1238830    -1.2544140     0.1901240
  H       -1.0294410     1.2924540    -1.2089060
  H       -0.5972720     2.1575400     0.2733260
  H       -2.1238650     1.2544300     0.1901270
units angstrom
no_reorient  #important for SAPT in psi4, default
symmetry c1  #important for SAPT in psi4, default
}

set PROPERTIES_ORIGIN ["COM"]
properties('MP2/aug-cc-pvtz', properties = ['dipole'])
--------------------------------------------------------------------------

    Molecular point group: c1
  Charge       = -1
  Multiplicity = 1
  Basis Set: AUG-CC-PVTZ
    Blend: AUG-CC-PVTZ
  Basis Set: (AUG-CC-PVTZ AUX)
    Blend: AUG-CC-PVTZ-JKFIT

    Orbital Energies [Eh]
    ---------------------

    Doubly Occupied:

       1A    -91.667452     2A    -11.069820     3A    -11.056834
       4A    -11.055753     5A     -8.667075     6A     -6.348549
       7A     -6.346956     8A     -6.346941     9A     -0.904158
      10A     -0.773008    11A     -0.676300    12A     -0.560161
      13A     -0.455678    14A     -0.417940    15A     -0.396836
      16A     -0.378171    17A     -0.331848    18A     -0.305583
      19A     -0.212251    20A     -0.092731    21A     -0.090567

  @DF-RHF Final Energy:  -515.27273540785234

   => Energetics <=

    Nuclear Repulsion Energy =            158.7782136782010127
    One-Electron Energy =               -1031.7926733568269810
    Two-Electron Energy =                 357.7417242707736023
    Total Energy =                       -515.2727354078523376
  Basis Set: (AUG-CC-PVTZ AUX)
    Blend: AUG-CC-PVTZ-RI
    Molecular point group: c1

    Geometry (in Angstrom), charge = -1, multiplicity = 1:

       Center              X                  Y                   Z               Mass
    ------------   -----------------  -----------------  -----------------  -----------------
         S            1.330661524213    -0.004493761864    -0.055374652030    31.972071174400
         C           -0.485690275787     0.025298238136     0.367875847970    12.000000000000
         C           -1.166922475787    -1.254869761864    -0.110547652030    12.000000000000
         C           -1.166907475787     1.245925238136    -0.110549652030    12.000000000000
         H           -0.524610475787    -0.004489761864     1.491598347970     1.007825032230
         H           -1.127863475787    -1.296940761864    -1.204337652030     1.007825032230
         H           -0.721560375787    -2.182789961864     0.258844047970     1.007825032230
         H           -2.222293475787    -1.258901761864     0.194687347970     1.007825032230
         H           -1.127851475787     1.287966238136    -1.204342652030     1.007825032230
         H           -0.695682475787     2.153052238136     0.277889347970     1.007825032230
         H           -2.222275475787     1.249942238136     0.194690347970     1.007825032230

  Basis Set: AUG-CC-PVTZ
    Blend: AUG-CC-PVTZ
  Basis Set: (AUG-CC-PVTZ AUX)
    Blend: AUG-CC-PVTZ-JKFIT
	 Reference Energy          =    -515.2727354078523376 [Eh]
	 Singles Energy            =      -0.0000000000000000 [Eh]
	 Same-Spin Energy          =      -0.1882861937944545 [Eh]
	 Opposite-Spin Energy      =      -0.6467728730178314 [Eh]
	 Correlation Energy        =      -0.8350590668122859 [Eh]
	 Total Energy              =    -516.1077944746646153 [Eh]

	 ================> DF-SCS-MP2 Energies <==================
	-----------------------------------------------------------
	 SCS Same-Spin Scale       =       0.3333333333333333 [-]
	 SCS Opposite-Spin Scale   =       1.2000000000000000 [-]
	 SCS Same-Spin Energy      =      -0.0627620645981515 [Eh]
	 SCS Opposite-Spin Energy  =      -0.7761274476213976 [Eh]
	 SCS Correlation Energy    =      -0.8388895122195491 [Eh]
	 SCS Total Energy          =    -516.1116249200719039 [Eh]
	-----------------------------------------------------------

  Dipole Moment: [D]
     X:    -5.2484      Y:     0.0260      Z:     0.5514     Total:     5.2774

*** Psi4 exiting successfully. Buy a developer a beer!
