                               Psi4 1.3.2 release

  ==> Input File <==

--------------------------------------------------------------------------
#psi4
#
memory 32 gb

molecule  {
-1 1
  S        1.4290720    -0.0000060    -0.0599380
  C       -0.3526060    -0.0000140     0.3907100
  C       -1.0773961    -1.2426850    -0.1213882
  C       -1.0773816     1.2427161    -0.1213904
  H       -0.4262000    -0.0000020     1.4870350
  H       -1.0294530    -1.2924530    -1.2089010
  H       -0.5973500    -2.1575670     0.2732900
  H       -2.1238830    -1.2544140     0.1901240
  H       -1.0294410     1.2924540    -1.2089060
  H       -0.5972720     2.1575400     0.2733260
  H       -2.1238650     1.2544300     0.1901270
units angstrom
no_reorient  #important for SAPT in psi4, default
symmetry c1  #important for SAPT in psi4, default
}

set PROPERTIES_ORIGIN ["COM"]
properties('MP2/aug-cc-pvtz', properties = ['dipole'])
--------------------------------------------------------------------------

    Molecular point group: c1
  Charge       = -1
  Multiplicity = 1
  Basis Set: AUG-CC-PVTZ
    Blend: AUG-CC-PVTZ
  Basis Set: (AUG-CC-PVTZ AUX)
    Blend: AUG-CC-PVTZ-JKFIT

    Orbital Energies [Eh]
    ---------------------

    Doubly Occupied:

       1A    -91.667352     2A    -11.068847     3A    -11.055398
       4A    -11.055374     5A     -8.667351     6A     -6.348895
       7A     -6.347257     8A     -6.347245     9A     -0.898182
      10A     -0.767273    11A     -0.682177    12A     -0.561719
      13A     -0.449366    14A     -0.414795    15A     -0.396336
      16A     -0.379849    17A     -0.315840    18A     -0.310885
      19A     -0.221607    20A     -0.092788    21A     -0.091797

  @DF-RHF Final Energy:  -515.27584851337986

   => Energetics <=

    Nuclear Repulsion Energy =            158.7919368660239456
    One-Electron Energy =               -1031.8549028817437829
    Two-Electron Energy =                 357.7871175023400951
    Total Energy =                       -515.2758485133797421
  Basis Set: (AUG-CC-PVTZ AUX)
    Blend: AUG-CC-PVTZ-RI
    Molecular point group: c1

    Geometry (in Angstrom), charge = -1, multiplicity = 1:

       Center              X                  Y                   Z               Mass
    ------------   -----------------  -----------------  -----------------  -----------------
         S            1.327611109648    -0.000006016976    -0.058004015490    31.972071174400
         C           -0.454066890352    -0.000014016976     0.392643984510    12.000000000000
         C           -1.178856990352    -1.242685016976    -0.119454215490    12.000000000000
         C           -1.178842490352     1.242716083024    -0.119456415490    12.000000000000
         H           -0.527660890352    -0.000002016976     1.488968984510     1.007825032230
         H           -1.130913890352    -1.292453016976    -1.206967015490     1.007825032230
         H           -0.698810890352    -2.157567016976     0.275223984510     1.007825032230
         H           -2.225343890352    -1.254414016976     0.192057984510     1.007825032230
         H           -1.130901890352     1.292453983024    -1.206972015490     1.007825032230
         H           -0.698732890352     2.157539983024     0.275259984510     1.007825032230
         H           -2.225325890352     1.254429983024     0.192060984510     1.007825032230

  Basis Set: AUG-CC-PVTZ
    Blend: AUG-CC-PVTZ
  Basis Set: (AUG-CC-PVTZ AUX)
    Blend: AUG-CC-PVTZ-JKFIT
	 Reference Energy          =    -515.2758485133798558 [Eh]
	 Singles Energy            =      -0.0000000000000000 [Eh]
	 Same-Spin Energy          =      -0.1881396492779563 [Eh]
	 Opposite-Spin Energy      =      -0.6465113772243847 [Eh]
	 Correlation Energy        =      -0.8346510265023410 [Eh]
	 Total Energy              =    -516.1104995398821984 [Eh]

	 ================> DF-SCS-MP2 Energies <==================
	-----------------------------------------------------------
	 SCS Same-Spin Scale       =       0.3333333333333333 [-]
	 SCS Opposite-Spin Scale   =       1.2000000000000000 [-]
	 SCS Same-Spin Energy      =      -0.0627132164259854 [Eh]
	 SCS Opposite-Spin Energy  =      -0.7758136526692616 [Eh]
	 SCS Correlation Energy    =      -0.8385268690952471 [Eh]
	 SCS Total Energy          =    -516.1143753824751457 [Eh]
	-----------------------------------------------------------

  Dipole Moment: [D]
     X:    -5.1737      Y:    -0.0000      Z:     0.5514     Total:     5.2031

*** Psi4 exiting successfully. Buy a developer a beer!
