                               Psi4 1.3.2 release

  ==> Input File <==

--------------------------------------------------------------------------
#psi4
#
memory 32 gb

molecule  {
-1 1
  S        1.4324976     0.0283032    -0.0452526
  C       -0.3526060    -0.0000140     0.3907100
  C       -1.0912253    -1.2414111    -0.1044377
  C       -1.0684970     1.2504130    -0.1151130
  H       -0.4262000    -0.0000020     1.4870350
  H       -1.0294530    -1.2924530    -1.2089010
  H       -0.5973500    -2.1575670     0.2732900
  H       -2.1238830    -1.2544140     0.1901240
  H       -1.0294410     1.2924540    -1.2089060
  H       -0.5972720     2.1575400     0.2733260
  H       -2.1238650     1.2544300     0.1901270
units angstrom
no_reorient  #important for SAPT in psi4, default
symmetry c1  #important for SAPT in psi4, default
}

set PROPERTIES_ORIGIN ["COM"]
properties('MP2/aug-cc-pvtz', properties = ['dipole'])
--------------------------------------------------------------------------

    Molecular point group: c1
  Charge       = -1
  Multiplicity = 1
  Basis Set: AUG-CC-PVTZ
    Blend: AUG-CC-PVTZ
  Basis Set: (AUG-CC-PVTZ AUX)
    Blend: AUG-CC-PVTZ-JKFIT

    Orbital Energies [Eh]
    ---------------------

    Doubly Occupied:

       1A    -91.667600     2A    -11.068749     3A    -11.056223
       4A    -11.055003     5A     -8.667567     6A     -6.349112
       7A     -6.347469     8A     -6.347460     9A     -0.897985
      10A     -0.767782    11A     -0.682496    12A     -0.560989
      13A     -0.449163    14A     -0.418168    15A     -0.397850
      16A     -0.376099    17A     -0.313629    18A     -0.311876
      19A     -0.222243    20A     -0.093151    21A     -0.091612

  @DF-RHF Final Energy:  -515.27536748969612

   => Energetics <=

    Nuclear Repulsion Energy =            158.6745481738277590
    One-Electron Energy =               -1031.6153787125372219
    Two-Electron Energy =                 357.6654630490133400
    Total Energy =                       -515.2753674896960092
  Basis Set: (AUG-CC-PVTZ AUX)
    Blend: AUG-CC-PVTZ-RI
    Molecular point group: c1

    Geometry (in Angstrom), charge = -1, multiplicity = 1:

       Center              X                  Y                   Z               Mass
    ------------   -----------------  -----------------  -----------------  -----------------
         S            1.330367771402     0.014804636758    -0.053291811618    31.972071174400
         C           -0.454735828598    -0.013512563242     0.382670788382    12.000000000000
         C           -1.193355128598    -1.254909663242    -0.112476911618    12.000000000000
         C           -1.170626828598     1.236914436758    -0.123152211618    12.000000000000
         H           -0.528329828598    -0.013500563242     1.478995788382     1.007825032230
         H           -1.131582828598    -1.305951563242    -1.216940211618     1.007825032230
         H           -0.699479828598    -2.171065563242     0.265250788382     1.007825032230
         H           -2.226012828598    -1.267912563242     0.182084788382     1.007825032230
         H           -1.131570828598     1.278955436758    -1.216945211618     1.007825032230
         H           -0.699401828598     2.144041436758     0.265286788382     1.007825032230
         H           -2.225994828598     1.240931436758     0.182087788382     1.007825032230

  Basis Set: AUG-CC-PVTZ
    Blend: AUG-CC-PVTZ
  Basis Set: (AUG-CC-PVTZ AUX)
    Blend: AUG-CC-PVTZ-JKFIT
	 Reference Energy          =    -515.2753674896961229 [Eh]
	 Singles Energy            =      -0.0000000000000000 [Eh]
	 Same-Spin Energy          =      -0.1881367237648722 [Eh]
	 Opposite-Spin Energy      =      -0.6465112801375792 [Eh]
	 Correlation Energy        =      -0.8346480039024514 [Eh]
	 Total Energy              =    -516.1100154935985529 [Eh]

	 ================> DF-SCS-MP2 Energies <==================
	-----------------------------------------------------------
	 SCS Same-Spin Scale       =       0.3333333333333333 [-]
	 SCS Opposite-Spin Scale   =       1.2000000000000000 [-]
	 SCS Same-Spin Energy      =      -0.0627122412549574 [Eh]
	 SCS Opposite-Spin Energy  =      -0.7758135361650950 [Eh]
	 SCS Correlation Energy    =      -0.8385257774200524 [Eh]
	 SCS Total Energy          =    -516.1138932671161683 [Eh]
	-----------------------------------------------------------

  Dipole Moment: [D]
     X:    -5.1898      Y:    -0.0362      Z:     0.5623     Total:     5.2203

*** Psi4 exiting successfully. Buy a developer a beer!
