                               Psi4 1.3.2 release

  ==> Input File <==

--------------------------------------------------------------------------
#psi4
#
memory 32 gb

molecule  {
-1 1
  S        1.4251037    -0.0283152    -0.0744862
  C       -0.3526060    -0.0000140     0.3907100
  C       -1.0455807    -1.2589720    -0.1256302
  C       -1.0684970     1.2504130    -0.1151130
  H       -0.4262000    -0.0000020     1.4870350
  H       -1.0294530    -1.2924530    -1.2089010
  H       -0.5973500    -2.1575670     0.2732900
  H       -2.1238830    -1.2544140     0.1901240
  H       -1.0294410     1.2924540    -1.2089060
  H       -0.5972720     2.1575400     0.2733260
  H       -2.1238650     1.2544300     0.1901270
units angstrom
no_reorient  #important for SAPT in psi4, default
symmetry c1  #important for SAPT in psi4, default
}

set PROPERTIES_ORIGIN ["COM"]
properties('MP2/aug-cc-pvtz', properties = ['dipole'])
--------------------------------------------------------------------------

    Molecular point group: c1
  Charge       = -1
  Multiplicity = 1
  Basis Set: AUG-CC-PVTZ
    Blend: AUG-CC-PVTZ
  Basis Set: (AUG-CC-PVTZ AUX)
    Blend: AUG-CC-PVTZ-JKFIT

    Orbital Energies [Eh]
    ---------------------

    Doubly Occupied:

       1A    -91.666732     2A    -11.069203     3A    -11.056580
       4A    -11.055633     5A     -8.666824     6A     -6.348364
       7A     -6.346728     8A     -6.346716     9A     -0.897947
      10A     -0.768767    11A     -0.680931    12A     -0.562429
      13A     -0.452087    14A     -0.412694    15A     -0.396607
      16A     -0.374724    17A     -0.319791    18A     -0.316167
      19A     -0.219009    20A     -0.092276    21A     -0.091403

  @DF-RHF Final Energy:  -515.27547939104625

   => Energetics <=

    Nuclear Repulsion Energy =            158.9209018636321673
    One-Electron Energy =               -1032.1095377531592021
    Two-Electron Energy =                 357.9131564984808165
    Total Energy =                       -515.2754793910462467
  Basis Set: (AUG-CC-PVTZ AUX)
    Blend: AUG-CC-PVTZ-RI
    Molecular point group: c1

    Geometry (in Angstrom), charge = -1, multiplicity = 1:

       Center              X                  Y                   Z               Mass
    ------------   -----------------  -----------------  -----------------  -----------------
         S            1.318824198080    -0.014877560915    -0.066678167639    31.972071174400
         C           -0.458885501920     0.013423639085     0.398518032361    12.000000000000
         C           -1.151860201920    -1.245534360915    -0.117822167639    12.000000000000
         C           -1.174776501920     1.263850639085    -0.107304967639    12.000000000000
         H           -0.532479501920     0.013435639085     1.494843032361     1.007825032230
         H           -1.135732501920    -1.279015360915    -1.201092967639     1.007825032230
         H           -0.703629501920    -2.144129360915     0.281098032361     1.007825032230
         H           -2.230162501920    -1.240976360915     0.197932032361     1.007825032230
         H           -1.135720501920     1.305891639085    -1.201097967639     1.007825032230
         H           -0.703551501920     2.170977639085     0.281134032361     1.007825032230
         H           -2.230144501920     1.267867639085     0.197935032361     1.007825032230

  Basis Set: AUG-CC-PVTZ
    Blend: AUG-CC-PVTZ
  Basis Set: (AUG-CC-PVTZ AUX)
    Blend: AUG-CC-PVTZ-JKFIT
	 Reference Energy          =    -515.2754793910462467 [Eh]
	 Singles Energy            =      -0.0000000000000000 [Eh]
	 Same-Spin Energy          =      -0.1881254035810160 [Eh]
	 Opposite-Spin Energy      =      -0.6464821272271188 [Eh]
	 Correlation Energy        =      -0.8346075308081348 [Eh]
	 Total Energy              =    -516.1100869218544176 [Eh]

	 ================> DF-SCS-MP2 Energies <==================
	-----------------------------------------------------------
	 SCS Same-Spin Scale       =       0.3333333333333333 [-]
	 SCS Opposite-Spin Scale   =       1.2000000000000000 [-]
	 SCS Same-Spin Energy      =      -0.0627084678603387 [Eh]
	 SCS Opposite-Spin Energy  =      -0.7757785526725426 [Eh]
	 SCS Correlation Energy    =      -0.8384870205328813 [Eh]
	 SCS Total Energy          =    -516.1139664115790993 [Eh]
	-----------------------------------------------------------

  Dipole Moment: [D]
     X:    -5.1038      Y:     0.0414      Z:     0.5656     Total:     5.1352

*** Psi4 exiting successfully. Buy a developer a beer!
