                               Psi4 1.3.2 release

  ==> Input File <==

--------------------------------------------------------------------------
#psi4
#
memory 32 gb

molecule  {
-1 1
  S        1.4366655    -0.0000056    -0.0287748
  C       -0.3526060    -0.0000140     0.3907100
  C       -1.0685120    -1.2503820    -0.1151110
  C       -1.0684970     1.2504130    -0.1151130
  H       -0.4070553    -0.0000018     1.4881524
  H       -1.0294530    -1.2924530    -1.2089010
  H       -0.5973500    -2.1575670     0.2732900
  H       -2.1238830    -1.2544140     0.1901240
  H       -1.0294410     1.2924540    -1.2089060
  H       -0.5972720     2.1575400     0.2733260
  H       -2.1238650     1.2544300     0.1901270
units angstrom
no_reorient  #important for SAPT in psi4, default
symmetry c1  #important for SAPT in psi4, default
}

set PROPERTIES_ORIGIN ["COM"]
properties('MP2/aug-cc-pvtz', properties = ['dipole'])
--------------------------------------------------------------------------

    Molecular point group: c1
  Charge       = -1
  Multiplicity = 1
  Basis Set: AUG-CC-PVTZ
    Blend: AUG-CC-PVTZ
  Basis Set: (AUG-CC-PVTZ AUX)
    Blend: AUG-CC-PVTZ-JKFIT

    Orbital Energies [Eh]
    ---------------------

    Doubly Occupied:

       1A    -91.666956     2A    -11.068811     3A    -11.056266
       4A    -11.056240     5A     -8.666992     6A     -6.348536
       7A     -6.346894     8A     -6.346886     9A     -0.897806
      10A     -0.768488    11A     -0.682753    12A     -0.560253
      13A     -0.450730    14A     -0.415419    15A     -0.397140
      16A     -0.376915    17A     -0.316866    18A     -0.315633
      19A     -0.219815    20A     -0.092664    21A     -0.091004

  @DF-RHF Final Energy:  -515.27619383134891

   => Energetics <=

    Nuclear Repulsion Energy =            158.6768645122394901
    One-Electron Energy =               -1031.6199815896732161
    Two-Electron Energy =                 357.6669232460848207
    Total Energy =                       -515.2761938313489054
  Basis Set: (AUG-CC-PVTZ AUX)
    Blend: AUG-CC-PVTZ-RI
    Molecular point group: c1

    Geometry (in Angstrom), charge = -1, multiplicity = 1:

       Center              X                  Y                   Z               Mass
    ------------   -----------------  -----------------  -----------------  -----------------
         S            1.328869559554    -0.000005774125    -0.042143782990    31.972071174400
         C           -0.460401940446    -0.000014174125     0.377341017010    12.000000000000
         C           -1.176307940446    -1.250382174125    -0.128479982990    12.000000000000
         C           -1.176292940446     1.250412825875    -0.128481982990    12.000000000000
         H           -0.514851240446    -0.000001974125     1.474783417010     1.007825032230
         H           -1.137248940446    -1.292453174125    -1.222269982990     1.007825032230
         H           -0.705145940446    -2.157567174125     0.259921017010     1.007825032230
         H           -2.231678940446    -1.254414174125     0.176755017010     1.007825032230
         H           -1.137236940446     1.292453825875    -1.222274982990     1.007825032230
         H           -0.705067940446     2.157539825875     0.259957017010     1.007825032230
         H           -2.231660940446     1.254429825875     0.176758017010     1.007825032230

  Basis Set: AUG-CC-PVTZ
    Blend: AUG-CC-PVTZ
  Basis Set: (AUG-CC-PVTZ AUX)
    Blend: AUG-CC-PVTZ-JKFIT
	 Reference Energy          =    -515.2761938313489054 [Eh]
	 Singles Energy            =      -0.0000000000000000 [Eh]
	 Same-Spin Energy          =      -0.1880792925742059 [Eh]
	 Opposite-Spin Energy      =      -0.6463902228486460 [Eh]
	 Correlation Energy        =      -0.8344695154228520 [Eh]
	 Total Energy              =    -516.1106633467717302 [Eh]

	 ================> DF-SCS-MP2 Energies <==================
	-----------------------------------------------------------
	 SCS Same-Spin Scale       =       0.3333333333333333 [-]
	 SCS Opposite-Spin Scale   =       1.2000000000000000 [-]
	 SCS Same-Spin Energy      =      -0.0626930975247353 [Eh]
	 SCS Opposite-Spin Energy  =      -0.7756682674183751 [Eh]
	 SCS Correlation Energy    =      -0.8383613649431104 [Eh]
	 SCS Total Energy          =    -516.1145551962920308 [Eh]
	-----------------------------------------------------------

  Dipole Moment: [D]
     X:    -5.1866      Y:    -0.0000      Z:     0.5230     Total:     5.2129

*** Psi4 exiting successfully. Buy a developer a beer!
