                               Psi4 1.3.2 release

  ==> Input File <==

--------------------------------------------------------------------------
#psi4
#
memory 32 gb

molecule  {
-1 1
  S        1.4353795     0.0566038    -0.0304343
  C       -0.3526060    -0.0000140     0.3907100
  C       -1.1137135    -1.2320620    -0.0936136
  C       -1.0684970     1.2504130    -0.1151130
  H       -0.4262000    -0.0000020     1.4870350
  H       -1.0294530    -1.2924530    -1.2089010
  H       -0.5973500    -2.1575670     0.2732900
  H       -2.1238830    -1.2544140     0.1901240
  H       -1.0294410     1.2924540    -1.2089060
  H       -0.5972720     2.1575400     0.2733260
  H       -2.1238650     1.2544300     0.1901270
units angstrom
no_reorient  #important for SAPT in psi4, default
symmetry c1  #important for SAPT in psi4, default
}

set PROPERTIES_ORIGIN ["COM"]
properties('MP2/aug-cc-pvtz', properties = ['dipole'])
--------------------------------------------------------------------------

    Molecular point group: c1
  Charge       = -1
  Multiplicity = 1
  Basis Set: AUG-CC-PVTZ
    Blend: AUG-CC-PVTZ
  Basis Set: (AUG-CC-PVTZ AUX)
    Blend: AUG-CC-PVTZ-JKFIT

    Orbital Energies [Eh]
    ---------------------

    Doubly Occupied:

       1A    -91.668182     2A    -11.068680     3A    -11.056956
       4A    -11.054252     5A     -8.668094     6A     -6.349640
       7A     -6.347990     8A     -6.347984     9A     -0.898215
      10A     -0.767622    11A     -0.683439    12A     -0.560515
      13A     -0.449416    14A     -0.421538    15A     -0.398844
      16A     -0.374350    17A     -0.311191    18A     -0.308789
      19A     -0.223710    20A     -0.093740    21A     -0.091683

  @DF-RHF Final Energy:  -515.27260391962102

   => Energetics <=

    Nuclear Repulsion Energy =            158.5735484709354921
    One-Electron Energy =               -1031.4026476598378395
    Two-Electron Energy =                 357.5564952692812994
    Total Energy =                       -515.2726039196210195
  Basis Set: (AUG-CC-PVTZ AUX)
    Blend: AUG-CC-PVTZ-RI
    Molecular point group: c1

    Geometry (in Angstrom), charge = -1, multiplicity = 1:

       Center              X                  Y                   Z               Mass
    ------------   -----------------  -----------------  -----------------  -----------------
         S            1.335618398020     0.029549848970    -0.046519444124    31.972071174400
         C           -0.452367101980    -0.027067951030     0.374624855876    12.000000000000
         C           -1.213474601980    -1.259115951030    -0.109698744124    12.000000000000
         C           -1.168258101980     1.223359048970    -0.131198144124    12.000000000000
         H           -0.525961101980    -0.027055951030     1.470949855876     1.007825032230
         H           -1.129214101980    -1.319506951030    -1.224986144124     1.007825032230
         H           -0.697111101980    -2.184620951030     0.257204855876     1.007825032230
         H           -2.223644101980    -1.281467951030     0.174038855876     1.007825032230
         H           -1.129202101980     1.265400048970    -1.224991144124     1.007825032230
         H           -0.697033101980     2.130486048970     0.257240855876     1.007825032230
         H           -2.223626101980     1.227376048970     0.174041855876     1.007825032230

  Basis Set: AUG-CC-PVTZ
    Blend: AUG-CC-PVTZ
  Basis Set: (AUG-CC-PVTZ AUX)
    Blend: AUG-CC-PVTZ-JKFIT
	 Reference Energy          =    -515.2726039196210195 [Eh]
	 Singles Energy            =      -0.0000000000000000 [Eh]
	 Same-Spin Energy          =      -0.1881988892756912 [Eh]
	 Opposite-Spin Energy      =      -0.6466667941983225 [Eh]
	 Correlation Energy        =      -0.8348656834740137 [Eh]
	 Total Energy              =    -516.1074696030950690 [Eh]

	 ================> DF-SCS-MP2 Energies <==================
	-----------------------------------------------------------
	 SCS Same-Spin Scale       =       0.3333333333333333 [-]
	 SCS Opposite-Spin Scale   =       1.2000000000000000 [-]
	 SCS Same-Spin Energy      =      -0.0627329630918970 [Eh]
	 SCS Opposite-Spin Energy  =      -0.7760001530379870 [Eh]
	 SCS Correlation Energy    =      -0.8387331161298840 [Eh]
	 SCS Total Energy          =    -516.1113370357509211 [Eh]
	-----------------------------------------------------------

  Dipole Moment: [D]
     X:    -5.2166      Y:    -0.0673      Z:     0.5599     Total:     5.2470

*** Psi4 exiting successfully. Buy a developer a beer!
