                               Psi4 1.3.2 release

  ==> Input File <==

--------------------------------------------------------------------------
#psi4
#
memory 32 gb

molecule  {
-1 1
  S        1.4290720    -0.0000060    -0.0599380
  C       -0.3526060    -0.0000140     0.3907100
  C       -1.0595733    -1.2579838    -0.1087953
  C       -1.0595579     1.2580147    -0.1087971
  H       -0.4262000    -0.0000020     1.4870350
  H       -1.0294530    -1.2924530    -1.2089010
  H       -0.5973500    -2.1575670     0.2732900
  H       -2.1238830    -1.2544140     0.1901240
  H       -1.0294410     1.2924540    -1.2089060
  H       -0.5972720     2.1575400     0.2733260
  H       -2.1238650     1.2544300     0.1901270
units angstrom
no_reorient  #important for SAPT in psi4, default
symmetry c1  #important for SAPT in psi4, default
}

set PROPERTIES_ORIGIN ["COM"]
properties('MP2/aug-cc-pvtz', properties = ['dipole'])
--------------------------------------------------------------------------

    Molecular point group: c1
  Charge       = -1
  Multiplicity = 1
  Basis Set: AUG-CC-PVTZ
    Blend: AUG-CC-PVTZ
  Basis Set: (AUG-CC-PVTZ AUX)
    Blend: AUG-CC-PVTZ-JKFIT

    Orbital Energies [Eh]
    ---------------------

    Doubly Occupied:

       1A    -91.666894     2A    -11.069059     3A    -11.056278
       4A    -11.056252     5A     -8.666948     6A     -6.348490
       7A     -6.346853     8A     -6.346843     9A     -0.897680
      10A     -0.769154    11A     -0.681201    12A     -0.561668
      13A     -0.451744    14A     -0.414553    15A     -0.397458
      16A     -0.373178    17A     -0.322347    18A     -0.312436
      19A     -0.219738    20A     -0.092437    21A     -0.091374

  @DF-RHF Final Energy:  -515.27591634343526

   => Energetics <=

    Nuclear Repulsion Energy =            158.7909072253903275
    One-Electron Energy =               -1031.8484795792130626
    Two-Electron Energy =                 357.7816560103874508
    Total Energy =                       -515.2759163434352558
  Basis Set: (AUG-CC-PVTZ AUX)
    Blend: AUG-CC-PVTZ-RI
    Molecular point group: c1

    Geometry (in Angstrom), charge = -1, multiplicity = 1:

       Center              X                  Y                   Z               Mass
    ------------   -----------------  -----------------  -----------------  -----------------
         S            1.321909710475    -0.000005984988    -0.062032365534    31.972071174400
         C           -0.459768289525    -0.000013984988     0.388615634466    12.000000000000
         C           -1.166735589525    -1.257983784988    -0.110889665534    12.000000000000
         C           -1.166720189525     1.258014715012    -0.110891465534    12.000000000000
         H           -0.533362289525    -0.000001984988     1.484940634466     1.007825032230
         H           -1.136615289525    -1.292452984988    -1.210995365534     1.007825032230
         H           -0.704512289525    -2.157566984988     0.271195634466     1.007825032230
         H           -2.231045289525    -1.254413984988     0.188029634466     1.007825032230
         H           -1.136603289525     1.292454015012    -1.211000365534     1.007825032230
         H           -0.704434289525     2.157540015012     0.271231634466     1.007825032230
         H           -2.231027289525     1.254430015012     0.188032634466     1.007825032230

  Basis Set: AUG-CC-PVTZ
    Blend: AUG-CC-PVTZ
  Basis Set: (AUG-CC-PVTZ AUX)
    Blend: AUG-CC-PVTZ-JKFIT
	 Reference Energy          =    -515.2759163434352558 [Eh]
	 Singles Energy            =      -0.0000000000000000 [Eh]
	 Same-Spin Energy          =      -0.1880997841562626 [Eh]
	 Opposite-Spin Energy      =      -0.6464319615642600 [Eh]
	 Correlation Energy        =      -0.8345317457205226 [Eh]
	 Total Energy              =    -516.1104480891557387 [Eh]

	 ================> DF-SCS-MP2 Energies <==================
	-----------------------------------------------------------
	 SCS Same-Spin Scale       =       0.3333333333333333 [-]
	 SCS Opposite-Spin Scale   =       1.2000000000000000 [-]
	 SCS Same-Spin Energy      =      -0.0626999280520875 [Eh]
	 SCS Opposite-Spin Energy  =      -0.7757183538771120 [Eh]
	 SCS Correlation Energy    =      -0.8384182819291994 [Eh]
	 SCS Total Energy          =    -516.1143346253644495 [Eh]
	-----------------------------------------------------------

  Dipole Moment: [D]
     X:    -5.1300      Y:    -0.0000      Z:     0.5770     Total:     5.1624

*** Psi4 exiting successfully. Buy a developer a beer!
