                               Psi4 1.3.2 release

  ==> Input File <==

--------------------------------------------------------------------------
#psi4
#
memory 32 gb

molecule  {
-1 1
  S        1.4290720    -0.0000060    -0.0599380
  C       -0.3526060    -0.0000140     0.3907100
  C       -1.0216295    -1.1684992    -0.0819863
  C       -1.0684970     1.2504130    -0.1151130
  H       -0.4262000    -0.0000020     1.4870350
  H       -1.0294530    -1.2924530    -1.2089010
  H       -0.5973500    -2.1575670     0.2732900
  H       -2.1238830    -1.2544140     0.1901240
  H       -1.0294410     1.2924540    -1.2089060
  H       -0.5972720     2.1575400     0.2733260
  H       -2.1238650     1.2544300     0.1901270
units angstrom
no_reorient  #important for SAPT in psi4, default
symmetry c1  #important for SAPT in psi4, default
}

set PROPERTIES_ORIGIN ["COM"]
properties('MP2/aug-cc-pvtz', properties = ['dipole'])
--------------------------------------------------------------------------

    Molecular point group: c1
  Charge       = -1
  Multiplicity = 1
  Basis Set: AUG-CC-PVTZ
    Blend: AUG-CC-PVTZ
  Basis Set: (AUG-CC-PVTZ AUX)
    Blend: AUG-CC-PVTZ-JKFIT

    Orbital Energies [Eh]
    ---------------------

    Doubly Occupied:

       1A    -91.667442     2A    -11.063537     3A    -11.062568
       4A    -11.056189     5A     -8.667583     6A     -6.349132
       7A     -6.347450     8A     -6.347436     9A     -0.914496
      10A     -0.767012    11A     -0.678881    12A     -0.567398
      13A     -0.457087    14A     -0.411534    15A     -0.399642
      16A     -0.366336    17A     -0.329642    18A     -0.300760
      19A     -0.218596    20A     -0.093767    21A     -0.092642

  @DF-RHF Final Energy:  -515.26479950766100

   => Energetics <=

    Nuclear Repulsion Energy =            160.2839417775996367
    One-Electron Energy =               -1034.7792231852220084
    Two-Electron Energy =                 359.2304818999613190
    Total Energy =                       -515.2647995076609959
  Basis Set: (AUG-CC-PVTZ AUX)
    Blend: AUG-CC-PVTZ-RI
    Molecular point group: c1

    Geometry (in Angstrom), charge = -1, multiplicity = 1:

       Center              X                  Y                   Z               Mass
    ------------   -----------------  -----------------  -----------------  -----------------
         S            1.317270619047    -0.013102561042    -0.065310088266    31.972071174400
         C           -0.464407380953    -0.013110561042     0.385337911734    12.000000000000
         C           -1.133430880953    -1.181595761042    -0.087358388266    12.000000000000
         C           -1.180298380953     1.237316438958    -0.120485088266    12.000000000000
         H           -0.538001380953    -0.013098561042     1.481662911734     1.007825032230
         H           -1.141254380953    -1.305549561042    -1.214273088266     1.007825032230
         H           -0.709151380953    -2.170663561042     0.267917911734     1.007825032230
         H           -2.235684380953    -1.267510561042     0.184751911734     1.007825032230
         H           -1.141242380953     1.279357438958    -1.214278088266     1.007825032230
         H           -0.709073380953     2.144443438958     0.267953911734     1.007825032230
         H           -2.235666380953     1.241333438958     0.184754911734     1.007825032230

  Basis Set: AUG-CC-PVTZ
    Blend: AUG-CC-PVTZ
  Basis Set: (AUG-CC-PVTZ AUX)
    Blend: AUG-CC-PVTZ-JKFIT
	 Reference Energy          =    -515.2647995076609959 [Eh]
	 Singles Energy            =      -0.0000000000000000 [Eh]
	 Same-Spin Energy          =      -0.1891343373040632 [Eh]
	 Opposite-Spin Energy      =      -0.6477468217796550 [Eh]
	 Correlation Energy        =      -0.8368811590837182 [Eh]
	 Total Energy              =    -516.1016806667447554 [Eh]

	 ================> DF-SCS-MP2 Energies <==================
	-----------------------------------------------------------
	 SCS Same-Spin Scale       =       0.3333333333333333 [-]
	 SCS Opposite-Spin Scale   =       1.2000000000000000 [-]
	 SCS Same-Spin Energy      =      -0.0630447791013544 [Eh]
	 SCS Opposite-Spin Energy  =      -0.7772961861355860 [Eh]
	 SCS Correlation Energy    =      -0.8403409652369405 [Eh]
	 SCS Total Energy          =    -516.1051404728979151 [Eh]
	-----------------------------------------------------------

  Dipole Moment: [D]
     X:    -5.0716      Y:     0.0459      Z:     0.5714     Total:     5.1039

*** Psi4 exiting successfully. Buy a developer a beer!
