                               Psi4 1.4a3.dev225

  ==> Input File <==

--------------------------------------------------------------------------
#psi4
#
memory 32 gb

molecule  {
-1 1
  S        0.8760760     1.1282850     0.0000000
  C       -0.5244280    -0.0603010     0.0000000
  C       -0.5244280    -0.9249259     1.2345551
  C       -0.5244280    -0.9363990    -1.2509370
  H       -1.4611330     0.5136640     0.0000000
  H        0.3938430    -1.5316650     1.2938450
  H       -0.5721740    -0.3268970     2.1577640
  H       -1.3798600    -1.6252560     1.2536820
  H        0.3938430    -1.5316650    -1.2938450
  H       -0.5721740    -0.3268970    -2.1577640
  H       -1.3798600    -1.6252560    -1.2536820
units angstrom
no_reorient  #important for SAPT in psi4, default
symmetry c1  #important for SAPT in psi4, default
}

set PROPERTIES_ORIGIN ["COM"]
properties('MP2/aug-cc-pvtz', properties = ['dipole'])
--------------------------------------------------------------------------

    Molecular point group: c1
  Charge       = -1
  Multiplicity = 1
  Basis Set: AUG-CC-PVTZ
    Blend: AUG-CC-PVTZ
  Basis Set: (AUG-CC-PVTZ AUX)
    Blend: AUG-CC-PVTZ-JKFIT

    Orbital Energies [Eh]
    ---------------------

    Doubly Occupied:

       1A    -91.666980     2A    -11.067663     3A    -11.056929
       4A    -11.055651     5A     -8.667057     6A     -6.348604
       7A     -6.346957     8A     -6.346946     9A     -0.900738
      10A     -0.767775    11A     -0.681143    12A     -0.562720
      13A     -0.451053    14A     -0.414010    15A     -0.397049
      16A     -0.374381    17A     -0.319417    18A     -0.312282
      19A     -0.220512    20A     -0.092725    21A     -0.091731

  @DF-RHF Final Energy:  -515.27569354576190

   => Energetics <=

    Nuclear Repulsion Energy =            159.1412019909305684
    One-Electron Energy =               -1032.5491442519851262
    Two-Electron Energy =                 358.1322487152926897
    Total Energy =                       -515.2756935457618965
  Basis Set: (AUG-CC-PVTZ AUX)
    Blend: AUG-CC-PVTZ-RI
    Molecular point group: c1

    Geometry (in Angstrom), charge = -1, multiplicity = 1:

       Center              X                  Y                   Z               Mass
    ------------   -----------------  -----------------  -----------------  -----------------
         S            0.815867924617     1.041521084169     0.002620166106    31.972071174400
         C           -0.584636075383    -0.147064915831     0.002620166106    12.000000000000
         C           -0.584636075383    -1.011689815831     1.237175266106    12.000000000000
         C           -0.584636075383    -1.023162915831    -1.248316833894    12.000000000000
         H           -1.521341075383     0.426900084169     0.002620166106     1.007825032230
         H            0.333634924617    -1.618428915831     1.296465166106     1.007825032230
         H           -0.632382075383    -0.413660915831     2.160384166106     1.007825032230
         H           -1.440068075383    -1.712019915831     1.256302166106     1.007825032230
         H            0.333634924617    -1.618428915831    -1.291224833894     1.007825032230
         H           -0.632382075383    -0.413660915831    -2.155143833894     1.007825032230
         H           -1.440068075383    -1.712019915831    -1.251061833894     1.007825032230

  Basis Set: AUG-CC-PVTZ
    Blend: AUG-CC-PVTZ
  Basis Set: (AUG-CC-PVTZ AUX)
    Blend: AUG-CC-PVTZ-JKFIT
	 Reference Energy          =    -515.2756935457618965 [Eh]
	 Singles Energy            =      -0.0000000000000000 [Eh]
	 Same-Spin Energy          =      -0.1882700595964008 [Eh]
	 Opposite-Spin Energy      =      -0.6466087995269512 [Eh]
	 Correlation Energy        =      -0.8348788591233520 [Eh]
	 Total Energy              =    -516.1105724048852608 [Eh]

	 ================> DF-SCS-MP2 Energies <==================
	-----------------------------------------------------------
	 SCS Same-Spin Scale       =       0.3333333333333333 [-]
	 SCS Opposite-Spin Scale   =       1.2000000000000000 [-]
	 SCS Same-Spin Energy      =      -0.0627566865321336 [Eh]
	 SCS Opposite-Spin Energy  =      -0.7759305594323413 [Eh]
	 SCS Correlation Energy    =      -0.8386872459644750 [Eh]
	 SCS Total Energy          =    -516.1143807917263757 [Eh]
	-----------------------------------------------------------

  Dipole Moment: [D]
     X:    -3.4335      Y:    -3.8602      Z:    -0.0029     Total:     5.1663

*** Psi4 exiting successfully. Buy a developer a beer!
