                               Psi4 1.3.2 release

  ==> Input File <==

--------------------------------------------------------------------------
#psi4
#
memory 32 gb

molecule  {
-1 1
  S        1.4290720    -0.0000060    -0.0599380
  C       -0.3526060    -0.0000140     0.3907100
  C       -1.0741900    -1.2570316    -0.0899350
  C       -1.0684970     1.2504130    -0.1151130
  H       -0.4360132    -0.0164576     1.4862087
  H       -1.0294530    -1.2924530    -1.2089010
  H       -0.5973500    -2.1575670     0.2732900
  H       -2.1238830    -1.2544140     0.1901240
  H       -1.0294410     1.2924540    -1.2089060
  H       -0.5972720     2.1575400     0.2733260
  H       -2.1238650     1.2544300     0.1901270
units angstrom
no_reorient  #important for SAPT in psi4, default
symmetry c1  #important for SAPT in psi4, default
}

set PROPERTIES_ORIGIN ["COM"]
properties('MP2/aug-cc-pvtz', properties = ['dipole'])
--------------------------------------------------------------------------

    Molecular point group: c1
  Charge       = -1
  Multiplicity = 1
  Basis Set: AUG-CC-PVTZ
    Blend: AUG-CC-PVTZ
  Basis Set: (AUG-CC-PVTZ AUX)
    Blend: AUG-CC-PVTZ-JKFIT

    Orbital Energies [Eh]
    ---------------------

    Doubly Occupied:

       1A    -91.667454     2A    -11.068900     3A    -11.056140
       4A    -11.055505     5A     -8.667439     6A     -6.348983
       7A     -6.347343     8A     -6.347333     9A     -0.897764
      10A     -0.768563    11A     -0.681510    12A     -0.561659
      13A     -0.449516    14A     -0.418227    15A     -0.398272
      16A     -0.373078    17A     -0.319594    18A     -0.308541
      19A     -0.221851    20A     -0.092948    21A     -0.091702

  @DF-RHF Final Energy:  -515.27543303356435

   => Energetics <=

    Nuclear Repulsion Energy =            158.7164992705476436
    One-Electron Energy =               -1031.6992250099394823
    Two-Electron Energy =                 357.7072927058274558
    Total Energy =                       -515.2754330335644681
  Basis Set: (AUG-CC-PVTZ AUX)
    Blend: AUG-CC-PVTZ-RI
    Molecular point group: c1

    Geometry (in Angstrom), charge = -1, multiplicity = 1:

       Center              X                  Y                   Z               Mass
    ------------   -----------------  -----------------  -----------------  -----------------
         S            1.325809109193     0.001278600067    -0.064027651773    31.972071174400
         C           -0.455868890807     0.001270600067     0.386620348227    12.000000000000
         C           -1.177452890807    -1.255746999933    -0.094024651773    12.000000000000
         C           -1.171759890807     1.251697600067    -0.119202651773    12.000000000000
         H           -0.539276090807    -0.015172999933     1.482119048227     1.007825032230
         H           -1.132715890807    -1.291168399933    -1.212990651773     1.007825032230
         H           -0.700612890807    -2.156282399933     0.269200348227     1.007825032230
         H           -2.227145890807    -1.253129399933     0.186034348227     1.007825032230
         H           -1.132703890807     1.293738600067    -1.212995651773     1.007825032230
         H           -0.700534890807     2.158824600067     0.269236348227     1.007825032230
         H           -2.227127890807     1.255714600067     0.186037348227     1.007825032230

  Basis Set: AUG-CC-PVTZ
    Blend: AUG-CC-PVTZ
  Basis Set: (AUG-CC-PVTZ AUX)
    Blend: AUG-CC-PVTZ-JKFIT
	 Reference Energy          =    -515.2754330335643544 [Eh]
	 Singles Energy            =      -0.0000000000000000 [Eh]
	 Same-Spin Energy          =      -0.1881354501869050 [Eh]
	 Opposite-Spin Energy      =      -0.6465043689689089 [Eh]
	 Correlation Energy        =      -0.8346398191558140 [Eh]
	 Total Energy              =    -516.1100728527201227 [Eh]

	 ================> DF-SCS-MP2 Energies <==================
	-----------------------------------------------------------
	 SCS Same-Spin Scale       =       0.3333333333333333 [-]
	 SCS Opposite-Spin Scale   =       1.2000000000000000 [-]
	 SCS Same-Spin Energy      =      -0.0627118167289683 [Eh]
	 SCS Opposite-Spin Energy  =      -0.7758052427626907 [Eh]
	 SCS Correlation Energy    =      -0.8385170594916590 [Eh]
	 SCS Total Energy          =    -516.1139500930560189 [Eh]
	-----------------------------------------------------------

  Dipole Moment: [D]
     X:    -5.1561      Y:     0.0043      Z:     0.5983     Total:     5.1906

*** Psi4 exiting successfully. Buy a developer a beer!
