                               Psi4 1.3.2 release

  ==> Input File <==

--------------------------------------------------------------------------
#psi4
#
memory 32 gb

molecule  {
-1 1
  S        1.4122593    -0.0000068    -0.1218431
  C       -0.3526060    -0.0000140     0.3907100
  C       -1.0685120    -1.2503820    -0.1151110
  C       -1.0684970     1.2504130    -0.1151130
  H       -0.4644164    -0.0000023     1.4837988
  H       -1.0294530    -1.2924530    -1.2089010
  H       -0.5973500    -2.1575670     0.2732900
  H       -2.1238830    -1.2544140     0.1901240
  H       -1.0294410     1.2924540    -1.2089060
  H       -0.5972720     2.1575400     0.2733260
  H       -2.1238650     1.2544300     0.1901270
units angstrom
no_reorient  #important for SAPT in psi4, default
symmetry c1  #important for SAPT in psi4, default
}

set PROPERTIES_ORIGIN ["COM"]
properties('MP2/aug-cc-pvtz', properties = ['dipole'])
--------------------------------------------------------------------------

    Molecular point group: c1
  Charge       = -1
  Multiplicity = 1
  Basis Set: AUG-CC-PVTZ
    Blend: AUG-CC-PVTZ
  Basis Set: (AUG-CC-PVTZ AUX)
    Blend: AUG-CC-PVTZ-JKFIT

    Orbital Energies [Eh]
    ---------------------

    Doubly Occupied:

       1A    -91.667520     2A    -11.069057     3A    -11.054816
       4A    -11.054792     5A     -8.667534     6A     -6.349075
       7A     -6.347441     8A     -6.347423     9A     -0.898111
      10A     -0.767516    11A     -0.679609    12A     -0.564369
      13A     -0.449057    14A     -0.414118    15A     -0.396246
      16A     -0.375796    17A     -0.316191    18A     -0.311267
      19A     -0.222219    20A     -0.092598    21A     -0.092561

  @DF-RHF Final Energy:  -515.27570300259788

   => Energetics <=

    Nuclear Repulsion Energy =            159.0337203268733788
    One-Electron Energy =               -1032.3442146875984236
    Two-Electron Energy =                 358.0347913581271087
    Total Energy =                       -515.2757030025978793
  Basis Set: (AUG-CC-PVTZ AUX)
    Blend: AUG-CC-PVTZ-RI
    Molecular point group: c1

    Geometry (in Angstrom), charge = -1, multiplicity = 1:

       Center              X                  Y                   Z               Mass
    ------------   -----------------  -----------------  -----------------  -----------------
         S            1.315634383743    -0.000006456039    -0.095493314020    31.972071174400
         C           -0.449230916257    -0.000013656039     0.417059785980    12.000000000000
         C           -1.165136916257    -1.250381656039    -0.088761214020    12.000000000000
         C           -1.165121916257     1.250413343961    -0.088763214020    12.000000000000
         H           -0.561041316257    -0.000001956039     1.510148585980     1.007825032230
         H           -1.126077916257    -1.292452656039    -1.182551214020     1.007825032230
         H           -0.693974916257    -2.157566656039     0.299639785980     1.007825032230
         H           -2.220507916257    -1.254413656039     0.216473785980     1.007825032230
         H           -1.126065916257     1.292454343961    -1.182556214020     1.007825032230
         H           -0.693896916257     2.157540343961     0.299675785980     1.007825032230
         H           -2.220489916257     1.254430343961     0.216476785980     1.007825032230

  Basis Set: AUG-CC-PVTZ
    Blend: AUG-CC-PVTZ
  Basis Set: (AUG-CC-PVTZ AUX)
    Blend: AUG-CC-PVTZ-JKFIT
	 Reference Energy          =    -515.2757030025978793 [Eh]
	 Singles Energy            =      -0.0000000000000000 [Eh]
	 Same-Spin Energy          =      -0.1882234531236234 [Eh]
	 Opposite-Spin Energy      =      -0.6466440988533348 [Eh]
	 Correlation Energy        =      -0.8348675519769582 [Eh]
	 Total Energy              =    -516.1105705545747924 [Eh]

	 ================> DF-SCS-MP2 Energies <==================
	-----------------------------------------------------------
	 SCS Same-Spin Scale       =       0.3333333333333333 [-]
	 SCS Opposite-Spin Scale   =       1.2000000000000000 [-]
	 SCS Same-Spin Energy      =      -0.0627411510412078 [Eh]
	 SCS Opposite-Spin Energy  =      -0.7759729186240018 [Eh]
	 SCS Correlation Energy    =      -0.8387140696652096 [Eh]
	 SCS Total Energy          =    -516.1144170722631088 [Eh]
	-----------------------------------------------------------

  Dipole Moment: [D]
     X:    -5.0803      Y:    -0.0000      Z:     0.6434     Total:     5.1209

*** Psi4 exiting successfully. Buy a developer a beer!
