                               Psi4 1.4a3.dev225

  ==> Input File <==

--------------------------------------------------------------------------
#psi4
#
memory 32 gb

molecule  {
-1 1
  S        0.8760760     1.1282850     0.0000000
  C       -0.5244280    -0.0603010     0.0000000
  C       -0.5244280    -0.9363990     1.2509370
  C       -0.5244280    -0.9363990    -1.2509370
  H       -1.4185000     0.4875407     0.0000000
  H        0.3938430    -1.5316650     1.2938450
  H       -0.5721740    -0.3268970     2.1577640
  H       -1.3798600    -1.6252560     1.2536820
  H        0.3938430    -1.5316650    -1.2938450
  H       -0.5721740    -0.3268970    -2.1577640
  H       -1.3798600    -1.6252560    -1.2536820
units angstrom
no_reorient  #important for SAPT in psi4, default
symmetry c1  #important for SAPT in psi4, default
}

set PROPERTIES_ORIGIN ["COM"]
properties('MP2/aug-cc-pvtz', properties = ['dipole'])
--------------------------------------------------------------------------

    Molecular point group: c1
  Charge       = -1
  Multiplicity = 1
  Basis Set: AUG-CC-PVTZ
    Blend: AUG-CC-PVTZ
  Basis Set: (AUG-CC-PVTZ AUX)
    Blend: AUG-CC-PVTZ-JKFIT

    Orbital Energies [Eh]
    ---------------------

    Doubly Occupied:

       1A    -91.666477     2A    -11.062135     3A    -11.055152
       4A    -11.055114     5A     -8.666535     6A     -6.348082
       7A     -6.346446     8A     -6.346438     9A     -0.899756
      10A     -0.767775    11A     -0.682902    12A     -0.568040
      13A     -0.451476    14A     -0.414812    15A     -0.396511
      16A     -0.376266    17A     -0.318968    18A     -0.316037
      19A     -0.220443    20A     -0.092095    21A     -0.091502

  @DF-RHF Final Energy:  -515.27535295393011

   => Energetics <=

    Nuclear Repulsion Energy =            159.1046763209589585
    One-Electron Energy =               -1032.4741368405257163
    Two-Electron Energy =                 358.0941075656365342
    Total Energy =                       -515.2753529539302235
  Basis Set: (AUG-CC-PVTZ AUX)
    Blend: AUG-CC-PVTZ-RI
    Molecular point group: c1

    Geometry (in Angstrom), charge = -1, multiplicity = 1:

       Center              X                  Y                   Z               Mass
    ------------   -----------------  -----------------  -----------------  -----------------
         S            0.815295241549     1.043707033913     0.000000000000    31.972071174400
         C           -0.585208758451    -0.144878966087     0.000000000000    12.000000000000
         C           -0.585208758451    -1.020976966087     1.250937000000    12.000000000000
         C           -0.585208758451    -1.020976966087    -1.250937000000    12.000000000000
         H           -1.479280758451     0.402962733913     0.000000000000     1.007825032230
         H            0.333062241549    -1.616242966087     1.293845000000     1.007825032230
         H           -0.632954758451    -0.411474966087     2.157764000000     1.007825032230
         H           -1.440640758451    -1.709833966087     1.253682000000     1.007825032230
         H            0.333062241549    -1.616242966087    -1.293845000000     1.007825032230
         H           -0.632954758451    -0.411474966087    -2.157764000000     1.007825032230
         H           -1.440640758451    -1.709833966087    -1.253682000000     1.007825032230

  Basis Set: AUG-CC-PVTZ
    Blend: AUG-CC-PVTZ
  Basis Set: (AUG-CC-PVTZ AUX)
    Blend: AUG-CC-PVTZ-JKFIT
	 Reference Energy          =    -515.2753529539301098 [Eh]
	 Singles Energy            =      -0.0000000000000000 [Eh]
	 Same-Spin Energy          =      -0.1881045348838133 [Eh]
	 Opposite-Spin Energy      =      -0.6461982898882610 [Eh]
	 Correlation Energy        =      -0.8343028247720743 [Eh]
	 Total Energy              =    -516.1096557787021766 [Eh]

	 ================> DF-SCS-MP2 Energies <==================
	-----------------------------------------------------------
	 SCS Same-Spin Scale       =       0.3333333333333333 [-]
	 SCS Opposite-Spin Scale   =       1.2000000000000000 [-]
	 SCS Same-Spin Energy      =      -0.0627015116279378 [Eh]
	 SCS Opposite-Spin Energy  =      -0.7754379478659131 [Eh]
	 SCS Correlation Energy    =      -0.8381394594938509 [Eh]
	 SCS Total Energy          =    -516.1134924134239554 [Eh]
	-----------------------------------------------------------

  Dipole Moment: [D]
     X:    -3.4973      Y:    -3.8731      Z:     0.0000     Total:     5.2184

*** Psi4 exiting successfully. Buy a developer a beer!
