                               Psi4 1.4a3.dev225

  ==> Input File <==

--------------------------------------------------------------------------
#psi4
#
memory 32 gb

molecule  {
-1 1
  S        0.8760760     1.1282850     0.0000000
  C       -0.4863063    -0.0279477     0.0000000
  C       -0.5244280    -0.9363990     1.2509370
  C       -0.5244280    -0.9363990    -1.2509370
  H       -1.4611330     0.5136640     0.0000000
  H        0.3938430    -1.5316650     1.2938450
  H       -0.5721740    -0.3268970     2.1577640
  H       -1.3798600    -1.6252560     1.2536820
  H        0.3938430    -1.5316650    -1.2938450
  H       -0.5721740    -0.3268970    -2.1577640
  H       -1.3798600    -1.6252560    -1.2536820
units angstrom
no_reorient  #important for SAPT in psi4, default
symmetry c1  #important for SAPT in psi4, default
}

set PROPERTIES_ORIGIN ["COM"]
properties('MP2/aug-cc-pvtz', properties = ['dipole'])
--------------------------------------------------------------------------

    Molecular point group: c1
  Charge       = -1
  Multiplicity = 1
  Basis Set: AUG-CC-PVTZ
    Blend: AUG-CC-PVTZ
  Basis Set: (AUG-CC-PVTZ AUX)
    Blend: AUG-CC-PVTZ-JKFIT

    Orbital Energies [Eh]
    ---------------------

    Doubly Occupied:

       1A    -91.666783     2A    -11.071083     3A    -11.055141
       4A    -11.055120     5A     -8.667699     6A     -6.349387
       7A     -6.347620     8A     -6.347615     9A     -0.894297
      10A     -0.764726    11A     -0.691078    12A     -0.557704
      13A     -0.446155    14A     -0.413048    15A     -0.396093
      16A     -0.374886    17A     -0.308264    18A     -0.308259
      19A     -0.234812    20A     -0.093521    21A     -0.092119

  @DF-RHF Final Energy:  -515.27465733020665

   => Energetics <=

    Nuclear Repulsion Energy =            159.2055746119957860
    One-Electron Energy =               -1032.6896406879932329
    Two-Electron Energy =                 358.2094087457907676
    Total Energy =                       -515.2746573302067645
  Basis Set: (AUG-CC-PVTZ AUX)
    Blend: AUG-CC-PVTZ-RI
    Molecular point group: c1

    Geometry (in Angstrom), charge = -1, multiplicity = 1:

       Center              X                  Y                   Z               Mass
    ------------   -----------------  -----------------  -----------------  -----------------
         S            0.809770635154     1.038181447599     0.000000000000    31.972071174400
         C           -0.552611664846    -0.118051252401     0.000000000000    12.000000000000
         C           -0.590733364846    -1.026502552401     1.250937000000    12.000000000000
         C           -0.590733364846    -1.026502552401    -1.250937000000    12.000000000000
         H           -1.527438364846     0.423560447599     0.000000000000     1.007825032230
         H            0.327537635154    -1.621768552401     1.293845000000     1.007825032230
         H           -0.638479364846    -0.417000552401     2.157764000000     1.007825032230
         H           -1.446165364846    -1.715359552401     1.253682000000     1.007825032230
         H            0.327537635154    -1.621768552401    -1.293845000000     1.007825032230
         H           -0.638479364846    -0.417000552401    -2.157764000000     1.007825032230
         H           -1.446165364846    -1.715359552401    -1.253682000000     1.007825032230

  Basis Set: AUG-CC-PVTZ
    Blend: AUG-CC-PVTZ
  Basis Set: (AUG-CC-PVTZ AUX)
    Blend: AUG-CC-PVTZ-JKFIT
	 Reference Energy          =    -515.2746573302066508 [Eh]
	 Singles Energy            =      -0.0000000000000000 [Eh]
	 Same-Spin Energy          =      -0.1884731867600802 [Eh]
	 Opposite-Spin Energy      =      -0.6467170910667529 [Eh]
	 Correlation Energy        =      -0.8351902778268331 [Eh]
	 Total Energy              =    -516.1098476080335331 [Eh]

	 ================> DF-SCS-MP2 Energies <==================
	-----------------------------------------------------------
	 SCS Same-Spin Scale       =       0.3333333333333333 [-]
	 SCS Opposite-Spin Scale   =       1.2000000000000000 [-]
	 SCS Same-Spin Energy      =      -0.0628243955866934 [Eh]
	 SCS Opposite-Spin Energy  =      -0.7760605092801035 [Eh]
	 SCS Correlation Energy    =      -0.8388849048667969 [Eh]
	 SCS Total Energy          =    -516.1135422350733961 [Eh]
	-----------------------------------------------------------

  Dipole Moment: [D]
     X:    -3.3296      Y:    -3.7171      Z:     0.0000     Total:     4.9903

*** Psi4 exiting successfully. Buy a developer a beer!
