                               Psi4 1.3.2 release

  ==> Input File <==

--------------------------------------------------------------------------
#psi4
#
memory 32 gb

molecule  {
-1 1
  S        1.4290720    -0.0000060    -0.0599380
  C       -0.2556591    -0.0000136     0.3661888
  C       -1.0685120    -1.2503820    -0.1151110
  C       -1.0684970     1.2504130    -0.1151130
  H       -0.4262000    -0.0000020     1.4870350
  H       -1.0294530    -1.2924530    -1.2089010
  H       -0.5973500    -2.1575670     0.2732900
  H       -2.1238830    -1.2544140     0.1901240
  H       -1.0294410     1.2924540    -1.2089060
  H       -0.5972720     2.1575400     0.2733260
  H       -2.1238650     1.2544300     0.1901270
units angstrom
no_reorient  #important for SAPT in psi4, default
symmetry c1  #important for SAPT in psi4, default
}

set PROPERTIES_ORIGIN ["COM"]
properties('MP2/aug-cc-pvtz', properties = ['dipole'])
--------------------------------------------------------------------------

    Molecular point group: c1
  Charge       = -1
  Multiplicity = 1
  Basis Set: AUG-CC-PVTZ
    Blend: AUG-CC-PVTZ
  Basis Set: (AUG-CC-PVTZ AUX)
    Blend: AUG-CC-PVTZ-JKFIT

    Orbital Energies [Eh]
    ---------------------

    Doubly Occupied:

       1A    -91.666689     2A    -11.074090     3A    -11.054858
       4A    -11.054841     5A     -8.668641     6A     -6.350493
       7A     -6.348557     8A     -6.348557     9A     -0.891264
      10A     -0.761399    11A     -0.701669    12A     -0.553255
      13A     -0.442570    14A     -0.410975    15A     -0.395413
      16A     -0.373271    17A     -0.302842    18A     -0.299971
      19A     -0.248348    20A     -0.094539    21A     -0.092552

  @DF-RHF Final Energy:  -515.26897324411993

   => Energetics <=

    Nuclear Repulsion Energy =            159.5185901609772827
    One-Electron Energy =               -1033.3055383025894116
    Two-Electron Energy =                 358.5179748974921949
    Total Energy =                       -515.2689732441199340
  Basis Set: (AUG-CC-PVTZ AUX)
    Blend: AUG-CC-PVTZ-RI
    Molecular point group: c1

    Geometry (in Angstrom), charge = -1, multiplicity = 1:

       Center              X                  Y                   Z               Mass
    ------------   -----------------  -----------------  -----------------  -----------------
         S            1.309263181326    -0.000006064959    -0.056090044599    31.972071174400
         C           -0.375467918674    -0.000013664959     0.370036755401    12.000000000000
         C           -1.188320818674    -1.250382064959    -0.111263044599    12.000000000000
         C           -1.188305818674     1.250412935041    -0.111265044599    12.000000000000
         H           -0.546008818674    -0.000002064959     1.490882955401     1.007825032230
         H           -1.149261818674    -1.292453064959    -1.205053044599     1.007825032230
         H           -0.717158818674    -2.157567064959     0.277137955401     1.007825032230
         H           -2.243691818674    -1.254414064959     0.193971955401     1.007825032230
         H           -1.149249818674     1.292453935041    -1.205058044599     1.007825032230
         H           -0.717080818674     2.157539935041     0.277173955401     1.007825032230
         H           -2.243673818674     1.254429935041     0.193974955401     1.007825032230

  Basis Set: AUG-CC-PVTZ
    Blend: AUG-CC-PVTZ
  Basis Set: (AUG-CC-PVTZ AUX)
    Blend: AUG-CC-PVTZ-JKFIT
	 Reference Energy          =    -515.2689732441199340 [Eh]
	 Singles Energy            =      -0.0000000000000000 [Eh]
	 Same-Spin Energy          =      -0.1890441598841280 [Eh]
	 Opposite-Spin Energy      =      -0.6473262942327570 [Eh]
	 Correlation Energy        =      -0.8363704541168850 [Eh]
	 Total Energy              =    -516.1053436982367657 [Eh]

	 ================> DF-SCS-MP2 Energies <==================
	-----------------------------------------------------------
	 SCS Same-Spin Scale       =       0.3333333333333333 [-]
	 SCS Opposite-Spin Scale   =       1.2000000000000000 [-]
	 SCS Same-Spin Energy      =      -0.0630147199613760 [Eh]
	 SCS Opposite-Spin Energy  =      -0.7767915530793084 [Eh]
	 SCS Correlation Energy    =      -0.8398062730406843 [Eh]
	 SCS Total Energy          =    -516.1087795171606558 [Eh]
	-----------------------------------------------------------

  Dipole Moment: [D]
     X:    -4.7438      Y:    -0.0000      Z:     0.5533     Total:     4.7760

*** Psi4 exiting successfully. Buy a developer a beer!
