                               Psi4 1.3.2 release

  ==> Input File <==

--------------------------------------------------------------------------
#psi4
#
memory 32 gb

molecule  {
-1 1
  S        1.4155439    -0.0848991    -0.1031530
  C       -0.3526060    -0.0000140     0.3907100
  C       -0.9990918    -1.2749991    -0.1461936
  C       -1.0684970     1.2504130    -0.1151130
  H       -0.4262000    -0.0000020     1.4870350
  H       -1.0294530    -1.2924530    -1.2089010
  H       -0.5973500    -2.1575670     0.2732900
  H       -2.1238830    -1.2544140     0.1901240
  H       -1.0294410     1.2924540    -1.2089060
  H       -0.5972720     2.1575400     0.2733260
  H       -2.1238650     1.2544300     0.1901270
units angstrom
no_reorient  #important for SAPT in psi4, default
symmetry c1  #important for SAPT in psi4, default
}

set PROPERTIES_ORIGIN ["COM"]
properties('MP2/aug-cc-pvtz', properties = ['dipole'])
--------------------------------------------------------------------------

    Molecular point group: c1
  Charge       = -1
  Multiplicity = 1
  Basis Set: AUG-CC-PVTZ
    Blend: AUG-CC-PVTZ
  Basis Set: (AUG-CC-PVTZ AUX)
    Blend: AUG-CC-PVTZ-JKFIT

    Orbital Energies [Eh]
    ---------------------

    Doubly Occupied:

       1A    -91.666345     2A    -11.070083     3A    -11.058247
       4A    -11.056277     5A     -8.666584     6A     -6.348115
       7A     -6.346478     8A     -6.346463     9A     -0.898495
      10A     -0.770494    11A     -0.679835    12A     -0.564315
      13A     -0.457497    14A     -0.410797    15A     -0.399466
      16A     -0.364335    17A     -0.325678    18A     -0.319837
      19A     -0.215465    20A     -0.092705    21A     -0.090251

  @DF-RHF Final Energy:  -515.26913092150357

   => Energetics <=

    Nuclear Repulsion Energy =            159.2271057583259051
    One-Electron Energy =               -1032.6969499538095079
    Two-Electron Energy =                 358.2007132739799999
    Total Energy =                       -515.2691309215035744
  Basis Set: (AUG-CC-PVTZ AUX)
    Blend: AUG-CC-PVTZ-RI
    Molecular point group: c1

    Geometry (in Angstrom), charge = -1, multiplicity = 1:

       Center              X                  Y                   Z               Mass
    ------------   -----------------  -----------------  -----------------  -----------------
         S            1.305902665499    -0.044785280665    -0.079839880783    31.972071174400
         C           -0.462247234501     0.040099819335     0.414023119217    12.000000000000
         C           -1.108733034501    -1.234885280665    -0.122880480783    12.000000000000
         C           -1.178138234501     1.290526819335    -0.091799880783    12.000000000000
         H           -0.535841234501     0.040111819335     1.510348119217     1.007825032230
         H           -1.139094234501    -1.252339180665    -1.185587880783     1.007825032230
         H           -0.706991234501    -2.117453180665     0.296603119217     1.007825032230
         H           -2.233524234501    -1.214300180665     0.213437119217     1.007825032230
         H           -1.139082234501     1.332567819335    -1.185592880783     1.007825032230
         H           -0.706913234501     2.197653819335     0.296639119217     1.007825032230
         H           -2.233506234501     1.294543819335     0.213440119217     1.007825032230

  Basis Set: AUG-CC-PVTZ
    Blend: AUG-CC-PVTZ
  Basis Set: (AUG-CC-PVTZ AUX)
    Blend: AUG-CC-PVTZ-JKFIT
	 Reference Energy          =    -515.2691309215035744 [Eh]
	 Singles Energy            =      -0.0000000000000000 [Eh]
	 Same-Spin Energy          =      -0.1882750431989304 [Eh]
	 Opposite-Spin Energy      =      -0.6468145355841559 [Eh]
	 Correlation Energy        =      -0.8350895787830863 [Eh]
	 Total Energy              =    -516.1042205002867149 [Eh]

	 ================> DF-SCS-MP2 Energies <==================
	-----------------------------------------------------------
	 SCS Same-Spin Scale       =       0.3333333333333333 [-]
	 SCS Opposite-Spin Scale   =       1.2000000000000000 [-]
	 SCS Same-Spin Energy      =      -0.0627583477329768 [Eh]
	 SCS Opposite-Spin Energy  =      -0.7761774427009871 [Eh]
	 SCS Correlation Energy    =      -0.8389357904339639 [Eh]
	 SCS Total Energy          =    -516.1080667119375676 [Eh]
	-----------------------------------------------------------

  Dipole Moment: [D]
     X:    -4.9649      Y:     0.1412      Z:     0.5650     Total:     4.9990

*** Psi4 exiting successfully. Buy a developer a beer!
