                               Psi4 1.3.2 release

  ==> Input File <==

--------------------------------------------------------------------------
#psi4
#
memory 32 gb

molecule  {
-1 1
  S        1.4290720    -0.0000060    -0.0599380
  C       -0.3526060    -0.0000140     0.3907100
  C       -1.1209755    -1.2027922    -0.1521796
  C       -1.1209633     1.2028237    -0.1521831
  H       -0.4262000    -0.0000020     1.4870350
  H       -1.0294530    -1.2924530    -1.2089010
  H       -0.5973500    -2.1575670     0.2732900
  H       -2.1238830    -1.2544140     0.1901240
  H       -1.0294410     1.2924540    -1.2089060
  H       -0.5972720     2.1575400     0.2733260
  H       -2.1238650     1.2544300     0.1901270
units angstrom
no_reorient  #important for SAPT in psi4, default
symmetry c1  #important for SAPT in psi4, default
}

set PROPERTIES_ORIGIN ["COM"]
properties('MP2/aug-cc-pvtz', properties = ['dipole'])
--------------------------------------------------------------------------

    Molecular point group: c1
  Charge       = -1
  Multiplicity = 1
  Basis Set: AUG-CC-PVTZ
    Blend: AUG-CC-PVTZ
  Basis Set: (AUG-CC-PVTZ AUX)
    Blend: AUG-CC-PVTZ-JKFIT

    Orbital Energies [Eh]
    ---------------------

    Doubly Occupied:

       1A    -91.668834     2A    -11.069337     3A    -11.054879
       4A    -11.054857     5A     -8.668703     6A     -6.350251
       7A     -6.348606     8A     -6.348587     9A     -0.900764
      10A     -0.763956    11A     -0.685568    12A     -0.563392
      13A     -0.455136    14A     -0.406408    15A     -0.400685
      16A     -0.389301    17A     -0.322106    18A     -0.281651
      19A     -0.226297    20A     -0.093917    21A     -0.093217

  @DF-RHF Final Energy:  -515.26246563540576

   => Energetics <=

    Nuclear Repulsion Energy =            158.8313300736867859
    One-Electron Energy =               -1031.8946854803341466
    Two-Electron Energy =                 357.8008897712416001
    Total Energy =                       -515.2624656354057606
  Basis Set: (AUG-CC-PVTZ AUX)
    Blend: AUG-CC-PVTZ-RI
    Molecular point group: c1

    Geometry (in Angstrom), charge = -1, multiplicity = 1:

       Center              X                  Y                   Z               Mass
    ------------   -----------------  -----------------  -----------------  -----------------
         S            1.341551895516    -0.000006080953    -0.048154085292    31.972071174400
         C           -0.440126104484    -0.000014080953     0.402493914708    12.000000000000
         C           -1.208495604484    -1.202792280953    -0.140395685292    12.000000000000
         C           -1.208483404484     1.202823619047    -0.140399185292    12.000000000000
         H           -0.513720104484    -0.000002080953     1.498818914708     1.007825032230
         H           -1.116973104484    -1.292453080953    -1.197117085292     1.007825032230
         H           -0.684870104484    -2.157567080953     0.285073914708     1.007825032230
         H           -2.211403104484    -1.254414080953     0.201907914708     1.007825032230
         H           -1.116961104484     1.292453919047    -1.197122085292     1.007825032230
         H           -0.684792104484     2.157539919047     0.285109914708     1.007825032230
         H           -2.211385104484     1.254429919047     0.201910914708     1.007825032230

  Basis Set: AUG-CC-PVTZ
    Blend: AUG-CC-PVTZ
  Basis Set: (AUG-CC-PVTZ AUX)
    Blend: AUG-CC-PVTZ-JKFIT
	 Reference Energy          =    -515.2624656354057606 [Eh]
	 Singles Energy            =      -0.0000000000000000 [Eh]
	 Same-Spin Energy          =      -0.1885171281698986 [Eh]
	 Opposite-Spin Energy      =      -0.6474289661396317 [Eh]
	 Correlation Energy        =      -0.8359460943095303 [Eh]
	 Total Energy              =    -516.0984117297152807 [Eh]

	 ================> DF-SCS-MP2 Energies <==================
	-----------------------------------------------------------
	 SCS Same-Spin Scale       =       0.3333333333333333 [-]
	 SCS Opposite-Spin Scale   =       1.2000000000000000 [-]
	 SCS Same-Spin Energy      =      -0.0628390427232995 [Eh]
	 SCS Opposite-Spin Energy  =      -0.7769147593675580 [Eh]
	 SCS Correlation Energy    =      -0.8397538020908576 [Eh]
	 SCS Total Energy          =    -516.1022194374966148 [Eh]
	-----------------------------------------------------------

  Dipole Moment: [D]
     X:    -5.2583      Y:    -0.0000      Z:     0.4837     Total:     5.2805

*** Psi4 exiting successfully. Buy a developer a beer!
