                               Psi4 1.3.2 release

  ==> Input File <==

--------------------------------------------------------------------------
#psi4
#
memory 32 gb

molecule  {
-1 1
  S        1.4271556    -0.0141611    -0.0672295
  C       -0.3526060    -0.0000140     0.3907100
  C       -1.0570732    -1.2547248    -0.1203901
  C       -1.0684970     1.2504130    -0.1151130
  H       -0.4262000    -0.0000020     1.4870350
  H       -1.0294530    -1.2924530    -1.2089010
  H       -0.5973500    -2.1575670     0.2732900
  H       -2.1238830    -1.2544140     0.1901240
  H       -1.0294410     1.2924540    -1.2089060
  H       -0.5972720     2.1575400     0.2733260
  H       -2.1238650     1.2544300     0.1901270
units angstrom
no_reorient  #important for SAPT in psi4, default
symmetry c1  #important for SAPT in psi4, default
}

set PROPERTIES_ORIGIN ["COM"]
properties('MP2/aug-cc-pvtz', properties = ['dipole'])
--------------------------------------------------------------------------

    Molecular point group: c1
  Charge       = -1
  Multiplicity = 1
  Basis Set: AUG-CC-PVTZ
    Blend: AUG-CC-PVTZ
  Basis Set: (AUG-CC-PVTZ AUX)
    Blend: AUG-CC-PVTZ-JKFIT

    Orbital Energies [Eh]
    ---------------------

    Doubly Occupied:

       1A    -91.666908     2A    -11.069050     3A    -11.056177
       4A    -11.055668     5A     -8.666967     6A     -6.348509
       7A     -6.346872     8A     -6.346861     9A     -0.897902
      10A     -0.768445    11A     -0.681280    12A     -0.562020
      13A     -0.451053    14A     -0.413713    15A     -0.396583
      16A     -0.375966    17A     -0.318225    18A     -0.315196
      19A     -0.219851    20A     -0.092393    21A     -0.091526

  @DF-RHF Final Energy:  -515.27609345757935

   => Energetics <=

    Nuclear Repulsion Energy =            158.8537396196343536
    One-Electron Energy =               -1031.9773363467122635
    Two-Electron Energy =                 357.8475032694985885
    Total Energy =                       -515.2760934575793499
  Basis Set: (AUG-CC-PVTZ AUX)
    Blend: AUG-CC-PVTZ-RI
    Molecular point group: c1

    Geometry (in Angstrom), charge = -1, multiplicity = 1:

       Center              X                  Y                   Z               Mass
    ------------   -----------------  -----------------  -----------------  -----------------
         S            1.321839839869    -0.007434422614    -0.063351966427    31.972071174400
         C           -0.457921760131     0.006712677386     0.394587533573    12.000000000000
         C           -1.162388960131    -1.247998122614    -0.116512566427    12.000000000000
         C           -1.173812760131     1.257139677386    -0.111235466427    12.000000000000
         H           -0.531515760131     0.006724677386     1.490912533573     1.007825032230
         H           -1.134768760131    -1.285726322614    -1.205023466427     1.007825032230
         H           -0.702665760131    -2.150840322614     0.277167533573     1.007825032230
         H           -2.229198760131    -1.247687322614     0.194001533573     1.007825032230
         H           -1.134756760131     1.299180677386    -1.205028466427     1.007825032230
         H           -0.702587760131     2.164266677386     0.277203533573     1.007825032230
         H           -2.229180760131     1.261156677386     0.194004533573     1.007825032230

  Basis Set: AUG-CC-PVTZ
    Blend: AUG-CC-PVTZ
  Basis Set: (AUG-CC-PVTZ AUX)
    Blend: AUG-CC-PVTZ-JKFIT
	 Reference Energy          =    -515.2760934575793499 [Eh]
	 Singles Energy            =      -0.0000000000000000 [Eh]
	 Same-Spin Energy          =      -0.1881137146036758 [Eh]
	 Opposite-Spin Energy      =      -0.6464549806131520 [Eh]
	 Correlation Energy        =      -0.8345686952168277 [Eh]
	 Total Energy              =    -516.1106621527961806 [Eh]

	 ================> DF-SCS-MP2 Energies <==================
	-----------------------------------------------------------
	 SCS Same-Spin Scale       =       0.3333333333333333 [-]
	 SCS Opposite-Spin Scale   =       1.2000000000000000 [-]
	 SCS Same-Spin Energy      =      -0.0627045715345586 [Eh]
	 SCS Opposite-Spin Energy  =      -0.7757459767357824 [Eh]
	 SCS Correlation Energy    =      -0.8384505482703409 [Eh]
	 SCS Total Energy          =    -516.1145440058496661 [Eh]
	-----------------------------------------------------------

  Dipole Moment: [D]
     X:    -5.1298      Y:     0.0200      Z:     0.5650     Total:     5.1608

*** Psi4 exiting successfully. Buy a developer a beer!
