                               Psi4 1.3.2 release

  ==> Input File <==

--------------------------------------------------------------------------
#psi4
#
memory 32 gb

molecule  {
-1 1
  S        1.4502154    -0.0000048     0.0339254
  C       -0.3526060    -0.0000140     0.3907100
  C       -1.0685120    -1.2503820    -0.1151110
  C       -1.0684970     1.2504130    -0.1151130
  H       -0.3687219    -0.0000015     1.4893841
  H       -1.0294530    -1.2924530    -1.2089010
  H       -0.5973500    -2.1575670     0.2732900
  H       -2.1238830    -1.2544140     0.1901240
  H       -1.0294410     1.2924540    -1.2089060
  H       -0.5972720     2.1575400     0.2733260
  H       -2.1238650     1.2544300     0.1901270
units angstrom
no_reorient  #important for SAPT in psi4, default
symmetry c1  #important for SAPT in psi4, default
}

set PROPERTIES_ORIGIN ["COM"]
properties('MP2/aug-cc-pvtz', properties = ['dipole'])
--------------------------------------------------------------------------

    Molecular point group: c1
  Charge       = -1
  Multiplicity = 1
  Basis Set: AUG-CC-PVTZ
    Blend: AUG-CC-PVTZ
  Basis Set: (AUG-CC-PVTZ AUX)
    Blend: AUG-CC-PVTZ-JKFIT

    Orbital Energies [Eh]
    ---------------------

    Doubly Occupied:

       1A    -91.666751     2A    -11.068481     3A    -11.057179
       4A    -11.057151     5A     -8.666813     6A     -6.348357
       7A     -6.346701     8A     -6.346701     9A     -0.897666
      10A     -0.769093    11A     -0.685109    12A     -0.557442
      13A     -0.451722    14A     -0.416262    15A     -0.397690
      16A     -0.377623    17A     -0.318499    18A     -0.317270
      19A     -0.217957    20A     -0.092871    21A     -0.089738

  @DF-RHF Final Energy:  -515.27521340277815

   => Energetics <=

    Nuclear Repulsion Energy =            158.4667615017592652
    One-Electron Energy =               -1031.1897926159051622
    Two-Electron Energy =                 357.4478177113677475
    Total Energy =                       -515.2752134027781494
  Basis Set: (AUG-CC-PVTZ AUX)
    Blend: AUG-CC-PVTZ-RI
    Molecular point group: c1

    Geometry (in Angstrom), charge = -1, multiplicity = 1:

       Center              X                  Y                   Z               Mass
    ------------   -----------------  -----------------  -----------------  -----------------
         S            1.336130354388    -0.000005319068    -0.006179300821    31.972071174400
         C           -0.466691045612    -0.000014519068     0.350605299179    12.000000000000
         C           -1.182597045612    -1.250382519068    -0.155215700821    12.000000000000
         C           -1.182582045612     1.250412480932    -0.155217700821    12.000000000000
         H           -0.482806945612    -0.000002019068     1.449279399179     1.007825032230
         H           -1.143538045612    -1.292453519068    -1.249005700821     1.007825032230
         H           -0.711435045612    -2.157567519068     0.233185299179     1.007825032230
         H           -2.237968045612    -1.254414519068     0.150019299179     1.007825032230
         H           -1.143526045612     1.292453480932    -1.249010700821     1.007825032230
         H           -0.711357045612     2.157539480932     0.233221299179     1.007825032230
         H           -2.237950045612     1.254429480932     0.150022299179     1.007825032230

  Basis Set: AUG-CC-PVTZ
    Blend: AUG-CC-PVTZ
  Basis Set: (AUG-CC-PVTZ AUX)
    Blend: AUG-CC-PVTZ-JKFIT
	 Reference Energy          =    -515.2752134027781494 [Eh]
	 Singles Energy            =      -0.0000000000000000 [Eh]
	 Same-Spin Energy          =      -0.1880637251285035 [Eh]
	 Opposite-Spin Energy      =      -0.6463459361593329 [Eh]
	 Correlation Energy        =      -0.8344096612878364 [Eh]
	 Total Energy              =    -516.1096230640659996 [Eh]

	 ================> DF-SCS-MP2 Energies <==================
	-----------------------------------------------------------
	 SCS Same-Spin Scale       =       0.3333333333333333 [-]
	 SCS Opposite-Spin Scale   =       1.2000000000000000 [-]
	 SCS Same-Spin Energy      =      -0.0626879083761678 [Eh]
	 SCS Opposite-Spin Energy  =      -0.7756151233911994 [Eh]
	 SCS Correlation Energy    =      -0.8383030317673672 [Eh]
	 SCS Total Energy          =    -516.1135164345455451 [Eh]
	-----------------------------------------------------------

  Dipole Moment: [D]
     X:    -5.2493      Y:    -0.0000      Z:     0.4373     Total:     5.2675

*** Psi4 exiting successfully. Buy a developer a beer!
