                               Psi4 1.3.2 release

  ==> Input File <==

--------------------------------------------------------------------------
#psi4
#
memory 32 gb

molecule  {
-1 1
  S        1.4290720    -0.0000060    -0.0599380
  C       -0.3526060    -0.0000140     0.3907100
  C       -1.0324371    -1.2802122    -0.0896219
  C       -1.0324202     1.2802428    -0.0896229
  H       -0.4262000    -0.0000020     1.4870350
  H       -1.0294530    -1.2924530    -1.2089010
  H       -0.5973500    -2.1575670     0.2732900
  H       -2.1238830    -1.2544140     0.1901240
  H       -1.0294410     1.2924540    -1.2089060
  H       -0.5972720     2.1575400     0.2733260
  H       -2.1238650     1.2544300     0.1901270
units angstrom
no_reorient  #important for SAPT in psi4, default
symmetry c1  #important for SAPT in psi4, default
}

set PROPERTIES_ORIGIN ["COM"]
properties('MP2/aug-cc-pvtz', properties = ['dipole'])
--------------------------------------------------------------------------

    Molecular point group: c1
  Charge       = -1
  Multiplicity = 1
  Basis Set: AUG-CC-PVTZ
    Blend: AUG-CC-PVTZ
  Basis Set: (AUG-CC-PVTZ AUX)
    Blend: AUG-CC-PVTZ-JKFIT

    Orbital Energies [Eh]
    ---------------------

    Doubly Occupied:

       1A    -91.666354     2A    -11.069825     3A    -11.058280
       4A    -11.058252     5A     -8.666495     6A     -6.348033
       7A     -6.346395     8A     -6.346389     9A     -0.897467
      10A     -0.772635    11A     -0.680269    12A     -0.562483
      13A     -0.459351    14A     -0.410537    15A     -0.399716
      16A     -0.363121    17A     -0.338722    18A     -0.306738
      19A     -0.216940    20A     -0.092018    21A     -0.090897

  @DF-RHF Final Energy:  -515.26963875115996

   => Energetics <=

    Nuclear Repulsion Energy =            158.8068143352493848
    One-Electron Energy =               -1031.8510727680695709
    Two-Electron Energy =                 357.7746196816602833
    Total Energy =                       -515.2696387511599596
  Basis Set: (AUG-CC-PVTZ AUX)
    Blend: AUG-CC-PVTZ-RI
    Molecular point group: c1

    Geometry (in Angstrom), charge = -1, multiplicity = 1:

       Center              X                  Y                   Z               Mass
    ------------   -----------------  -----------------  -----------------  -----------------
         S            1.313228993755    -0.000005937005    -0.068165786063    31.972071174400
         C           -0.468449006245    -0.000013937005     0.382482213937    12.000000000000
         C           -1.148280106245    -1.280212137005    -0.097849686063    12.000000000000
         C           -1.148263206245     1.280242862995    -0.097850686063    12.000000000000
         H           -0.542043006245    -0.000001937005     1.478807213937     1.007825032230
         H           -1.145296006245    -1.292452937005    -1.217128786063     1.007825032230
         H           -0.713193006245    -2.157566937005     0.265062213937     1.007825032230
         H           -2.239726006245    -1.254413937005     0.181896213937     1.007825032230
         H           -1.145284006245     1.292454062995    -1.217133786063     1.007825032230
         H           -0.713115006245     2.157540062995     0.265098213937     1.007825032230
         H           -2.239708006245     1.254430062995     0.181899213937     1.007825032230

  Basis Set: AUG-CC-PVTZ
    Blend: AUG-CC-PVTZ
  Basis Set: (AUG-CC-PVTZ AUX)
    Blend: AUG-CC-PVTZ-JKFIT
	 Reference Energy          =    -515.2696387511599596 [Eh]
	 Singles Energy            =      -0.0000000000000000 [Eh]
	 Same-Spin Energy          =      -0.1881586411551695 [Eh]
	 Opposite-Spin Energy      =      -0.6466345302899519 [Eh]
	 Correlation Energy        =      -0.8347931714451213 [Eh]
	 Total Energy              =    -516.1044319226050447 [Eh]

	 ================> DF-SCS-MP2 Energies <==================
	-----------------------------------------------------------
	 SCS Same-Spin Scale       =       0.3333333333333333 [-]
	 SCS Opposite-Spin Scale   =       1.2000000000000000 [-]
	 SCS Same-Spin Energy      =      -0.0627195470517232 [Eh]
	 SCS Opposite-Spin Energy  =      -0.7759614363479422 [Eh]
	 SCS Correlation Energy    =      -0.8386809833996653 [Eh]
	 SCS Total Energy          =    -516.1083197345595863 [Eh]
	-----------------------------------------------------------

  Dipole Moment: [D]
     X:    -5.0532      Y:    -0.0000      Z:     0.6139     Total:     5.0904

*** Psi4 exiting successfully. Buy a developer a beer!
