                               Psi4 1.3.2 release

  ==> Input File <==

--------------------------------------------------------------------------
#psi4
#
memory 32 gb

molecule  {
-1 1
  S        1.4209357    -0.0000064    -0.0909639
  C       -0.3526060    -0.0000140     0.3907100
  C       -1.0685120    -1.2503820    -0.1151110
  C       -1.0684970     1.2504130    -0.1151130
  H       -0.4453223    -0.0000022     1.4855836
  H       -1.0294530    -1.2924530    -1.2089010
  H       -0.5973500    -2.1575670     0.2732900
  H       -2.1238830    -1.2544140     0.1901240
  H       -1.0294410     1.2924540    -1.2089060
  H       -0.5972720     2.1575400     0.2733260
  H       -2.1238650     1.2544300     0.1901270
units angstrom
no_reorient  #important for SAPT in psi4, default
symmetry c1  #important for SAPT in psi4, default
}

set PROPERTIES_ORIGIN ["COM"]
properties('MP2/aug-cc-pvtz', properties = ['dipole'])
--------------------------------------------------------------------------

    Molecular point group: c1
  Charge       = -1
  Multiplicity = 1
  Basis Set: AUG-CC-PVTZ
    Blend: AUG-CC-PVTZ
  Basis Set: (AUG-CC-PVTZ AUX)
    Blend: AUG-CC-PVTZ-JKFIT

    Orbital Energies [Eh]
    ---------------------

    Doubly Occupied:

       1A    -91.667302     2A    -11.069005     3A    -11.055308
       4A    -11.055284     5A     -8.667321     6A     -6.348864
       7A     -6.347228     8A     -6.347214     9A     -0.897995
      10A     -0.767846    11A     -0.680610    12A     -0.563013
      13A     -0.449637    14A     -0.414554    15A     -0.396552
      16A     -0.376174    17A     -0.316423    18A     -0.312729
      19A     -0.221474    20A     -0.092572    21A     -0.092106

  @DF-RHF Final Energy:  -515.27612447264323

   => Energetics <=

    Nuclear Repulsion Energy =            158.9092698598585400
    One-Electron Energy =               -1032.0923649588073658
    Two-Electron Energy =                 357.9069706263056219
    Total Energy =                       -515.2761244726432324
  Basis Set: (AUG-CC-PVTZ AUX)
    Blend: AUG-CC-PVTZ-RI
    Molecular point group: c1

    Geometry (in Angstrom), charge = -1, multiplicity = 1:

       Center              X                  Y                   Z               Mass
    ------------   -----------------  -----------------  -----------------  -----------------
         S            1.320356919166    -0.000006227839    -0.077797005128    31.972071174400
         C           -0.453184780834    -0.000013827839     0.403876894872    12.000000000000
         C           -1.169090780834    -1.250381827839    -0.101944105128    12.000000000000
         C           -1.169075780834     1.250413172161    -0.101946105128    12.000000000000
         H           -0.545901080834    -0.000002027839     1.498750494872     1.007825032230
         H           -1.130031780834    -1.292452827839    -1.195734105128     1.007825032230
         H           -0.697928780834    -2.157566827839     0.286456894872     1.007825032230
         H           -2.224461780834    -1.254413827839     0.203290894872     1.007825032230
         H           -1.130019780834     1.292454172161    -1.195739105128     1.007825032230
         H           -0.697850780834     2.157540172161     0.286492894872     1.007825032230
         H           -2.224443780834     1.254430172161     0.203293894872     1.007825032230

  Basis Set: AUG-CC-PVTZ
    Blend: AUG-CC-PVTZ
  Basis Set: (AUG-CC-PVTZ AUX)
    Blend: AUG-CC-PVTZ-JKFIT
	 Reference Energy          =    -515.2761244726432324 [Eh]
	 Singles Energy            =      -0.0000000000000000 [Eh]
	 Same-Spin Energy          =      -0.1881600589812920 [Eh]
	 Opposite-Spin Energy      =      -0.6465354511031367 [Eh]
	 Correlation Energy        =      -0.8346955100844287 [Eh]
	 Total Energy              =    -516.1108199827276621 [Eh]

	 ================> DF-SCS-MP2 Energies <==================
	-----------------------------------------------------------
	 SCS Same-Spin Scale       =       0.3333333333333333 [-]
	 SCS Opposite-Spin Scale   =       1.2000000000000000 [-]
	 SCS Same-Spin Energy      =      -0.0627200196604306 [Eh]
	 SCS Opposite-Spin Energy  =      -0.7758425413237641 [Eh]
	 SCS Correlation Energy    =      -0.8385625609841947 [Eh]
	 SCS Total Energy          =    -516.1146870336274333 [Eh]
	-----------------------------------------------------------

  Dipole Moment: [D]
     X:    -5.1172      Y:    -0.0000      Z:     0.6044     Total:     5.1527

*** Psi4 exiting successfully. Buy a developer a beer!
