                               Psi4 1.3.2 release

  ==> Input File <==

--------------------------------------------------------------------------
#psi4
#
memory 32 gb

molecule  {
-1 1
  S        1.4290720    -0.0000060    -0.0599380
  C       -0.3526060    -0.0000140     0.3907100
  C       -1.1622770    -1.4141475    -0.1813603
  C       -1.0684970     1.2504130    -0.1151130
  H       -0.4262000    -0.0000020     1.4870350
  H       -1.0294530    -1.2924530    -1.2089010
  H       -0.5973500    -2.1575670     0.2732900
  H       -2.1238830    -1.2544140     0.1901240
  H       -1.0294410     1.2924540    -1.2089060
  H       -0.5972720     2.1575400     0.2733260
  H       -2.1238650     1.2544300     0.1901270
units angstrom
no_reorient  #important for SAPT in psi4, default
symmetry c1  #important for SAPT in psi4, default
}

set PROPERTIES_ORIGIN ["COM"]
properties('MP2/aug-cc-pvtz', properties = ['dipole'])
--------------------------------------------------------------------------

    Molecular point group: c1
  Charge       = -1
  Multiplicity = 1
  Basis Set: AUG-CC-PVTZ
    Blend: AUG-CC-PVTZ
  Basis Set: (AUG-CC-PVTZ AUX)
    Blend: AUG-CC-PVTZ-JKFIT

    Orbital Energies [Eh]
    ---------------------

    Doubly Occupied:

       1A    -91.669262     2A    -11.080551     3A    -11.057415
       4A    -11.048466     5A     -8.669071     6A     -6.350594
       7A     -6.349000     8A     -6.348990     9A     -0.878792
      10A     -0.772949    11A     -0.685831    12A     -0.555229
      13A     -0.448675    14A     -0.431595    15A     -0.398313
      16A     -0.394549    17A     -0.329594    18A     -0.274339
      19A     -0.219174    20A     -0.092860    21A     -0.090249

  @DF-RHF Final Energy:  -515.25097891290329

   => Energetics <=

    Nuclear Repulsion Energy =            156.0703472651401853
    One-Electron Energy =               -1026.3516533369454464
    Two-Electron Energy =                 355.0303271589019118
    Total Energy =                       -515.2509789129032924
  Basis Set: (AUG-CC-PVTZ AUX)
    Blend: AUG-CC-PVTZ-RI
    Molecular point group: c1

    Geometry (in Angstrom), charge = -1, multiplicity = 1:

       Center              X                  Y                   Z               Mass
    ------------   -----------------  -----------------  -----------------  -----------------
         S            1.339766166721     0.026187103144    -0.049415937609    31.972071174400
         C           -0.441911833279     0.026179103144     0.401232062391    12.000000000000
         C           -1.251582833279    -1.387954396856    -0.170838237609    12.000000000000
         C           -1.157802833279     1.276606103144    -0.104590937609    12.000000000000
         H           -0.515505833279     0.026191103144     1.497557062391     1.007825032230
         H           -1.118758833279    -1.266259896856    -1.198378937609     1.007825032230
         H           -0.686655833279    -2.131373896856     0.283812062391     1.007825032230
         H           -2.213188833279    -1.228220896856     0.200646062391     1.007825032230
         H           -1.118746833279     1.318647103144    -1.198383937609     1.007825032230
         H           -0.686577833279     2.183733103144     0.283848062391     1.007825032230
         H           -2.213170833279     1.280623103144     0.200649062391     1.007825032230

  Basis Set: AUG-CC-PVTZ
    Blend: AUG-CC-PVTZ
  Basis Set: (AUG-CC-PVTZ AUX)
    Blend: AUG-CC-PVTZ-JKFIT
	 Reference Energy          =    -515.2509789129032924 [Eh]
	 Singles Energy            =      -0.0000000000000000 [Eh]
	 Same-Spin Energy          =      -0.1884406460192775 [Eh]
	 Opposite-Spin Energy      =      -0.6478764598466817 [Eh]
	 Correlation Energy        =      -0.8363171058659593 [Eh]
	 Total Energy              =    -516.0872960187692797 [Eh]

	 ================> DF-SCS-MP2 Energies <==================
	-----------------------------------------------------------
	 SCS Same-Spin Scale       =       0.3333333333333333 [-]
	 SCS Opposite-Spin Scale   =       1.2000000000000000 [-]
	 SCS Same-Spin Energy      =      -0.0628135486730925 [Eh]
	 SCS Opposite-Spin Energy  =      -0.7774517518160181 [Eh]
	 SCS Correlation Energy    =      -0.8402653004891106 [Eh]
	 SCS Total Energy          =    -516.0912442133924287 [Eh]
	-----------------------------------------------------------

  Dipole Moment: [D]
     X:    -5.0667      Y:     0.1610      Z:     0.6095     Total:     5.1057

*** Psi4 exiting successfully. Buy a developer a beer!
