                               Psi4 1.3.2 release

  ==> Input File <==

--------------------------------------------------------------------------
#psi4
#
memory 32 gb

molecule  {
-1 1
  S        1.4290720    -0.0000060    -0.0599380
  C       -0.3355936    -0.0154876     0.4041797
  C       -1.0685120    -1.2503820    -0.1151110
  C       -1.0684970     1.2504130    -0.1151130
  H       -0.4262000    -0.0000020     1.4870350
  H       -1.0294530    -1.2924530    -1.2089010
  H       -0.5846634    -2.1467833     0.2826186
  H       -2.1238830    -1.2544140     0.1901240
  H       -1.0294410     1.2924540    -1.2089060
  H       -0.5972720     2.1575400     0.2733260
  H       -2.1238650     1.2544300     0.1901270
units angstrom
no_reorient  #important for SAPT in psi4, default
symmetry c1  #important for SAPT in psi4, default
}

set PROPERTIES_ORIGIN ["COM"]
properties('MP2/aug-cc-pvtz', properties = ['dipole'])
--------------------------------------------------------------------------

    Molecular point group: c1
  Charge       = -1
  Multiplicity = 1
  Basis Set: AUG-CC-PVTZ
    Blend: AUG-CC-PVTZ
  Basis Set: (AUG-CC-PVTZ AUX)
    Blend: AUG-CC-PVTZ-JKFIT

    Orbital Energies [Eh]
    ---------------------

    Doubly Occupied:

       1A    -91.667058     2A    -11.068758     3A    -11.055628
       4A    -11.055413     5A     -8.667289     6A     -6.348867
       7A     -6.347202     8A     -6.347194     9A     -0.895360
      10A     -0.765834    11A     -0.684296    12A     -0.562701
      13A     -0.447398    14A     -0.414279    15A     -0.396643
      16A     -0.375748    17A     -0.318343    18A     -0.308535
      19A     -0.224713    20A     -0.092722    21A     -0.091904

  @DF-RHF Final Energy:  -515.27587941470006

   => Energetics <=

    Nuclear Repulsion Energy =            158.7991727128724904
    One-Electron Energy =               -1031.8783342457986691
    Two-Electron Energy =                 357.8032821182260932
    Total Energy =                       -515.2758794147000572
  Basis Set: (AUG-CC-PVTZ AUX)
    Blend: AUG-CC-PVTZ-RI
    Molecular point group: c1

    Geometry (in Angstrom), charge = -1, multiplicity = 1:

       Center              X                  Y                   Z               Mass
    ------------   -----------------  -----------------  -----------------  -----------------
         S            1.321877707623     0.002324033207    -0.062291723317    31.972071174400
         C           -0.442787892377    -0.013157566793     0.401825976683    12.000000000000
         C           -1.175706292377    -1.248051966793    -0.117464723317    12.000000000000
         C           -1.175691292377     1.252743033207    -0.117466723317    12.000000000000
         H           -0.533394292377     0.002328033207     1.484681276683     1.007825032230
         H           -1.136647292377    -1.290122966793    -1.211254723317     1.007825032230
         H           -0.691857692377    -2.144453266793     0.280264876683     1.007825032230
         H           -2.231077292377    -1.252083966793     0.187770276683     1.007825032230
         H           -1.136635292377     1.294784033207    -1.211259723317     1.007825032230
         H           -0.704466292377     2.159870033207     0.270972276683     1.007825032230
         H           -2.231059292377     1.256760033207     0.187773276683     1.007825032230

  Basis Set: AUG-CC-PVTZ
    Blend: AUG-CC-PVTZ
  Basis Set: (AUG-CC-PVTZ AUX)
    Blend: AUG-CC-PVTZ-JKFIT
	 Reference Energy          =    -515.2758794147000572 [Eh]
	 Singles Energy            =      -0.0000000000000000 [Eh]
	 Same-Spin Energy          =      -0.1881212976655862 [Eh]
	 Opposite-Spin Energy      =      -0.6464577901878796 [Eh]
	 Correlation Energy        =      -0.8345790878534658 [Eh]
	 Total Energy              =    -516.1104585025535698 [Eh]

	 ================> DF-SCS-MP2 Energies <==================
	-----------------------------------------------------------
	 SCS Same-Spin Scale       =       0.3333333333333333 [-]
	 SCS Opposite-Spin Scale   =       1.2000000000000000 [-]
	 SCS Same-Spin Energy      =      -0.0627070992218621 [Eh]
	 SCS Opposite-Spin Energy  =      -0.7757493482254555 [Eh]
	 SCS Correlation Energy    =      -0.8384564474473175 [Eh]
	 SCS Total Energy          =    -516.1143358621474135 [Eh]
	-----------------------------------------------------------

  Dipole Moment: [D]
     X:    -5.0996      Y:    -0.0159      Z:     0.5707     Total:     5.1315

*** Psi4 exiting successfully. Buy a developer a beer!
