                               Psi4 1.3.2 release

  ==> Input File <==

--------------------------------------------------------------------------
#psi4
#
memory 32 gb

molecule  {
-1 1
  S        1.4250716    -0.0000062    -0.0754687
  C       -0.3526060    -0.0000140     0.3907100
  C       -1.0685120    -1.2503820    -0.1151110
  C       -1.0684970     1.2504130    -0.1151130
  H       -0.4357643    -0.0000021     1.4863510
  H       -1.0294530    -1.2924530    -1.2089010
  H       -0.5973500    -2.1575670     0.2732900
  H       -2.1238830    -1.2544140     0.1901240
  H       -1.0294410     1.2924540    -1.2089060
  H       -0.5972720     2.1575400     0.2733260
  H       -2.1238650     1.2544300     0.1901270
units angstrom
no_reorient  #important for SAPT in psi4, default
symmetry c1  #important for SAPT in psi4, default
}

set PROPERTIES_ORIGIN ["COM"]
properties('MP2/aug-cc-pvtz', properties = ['dipole'])
--------------------------------------------------------------------------

    Molecular point group: c1
  Charge       = -1
  Multiplicity = 1
  Basis Set: AUG-CC-PVTZ
    Blend: AUG-CC-PVTZ
  Basis Set: (AUG-CC-PVTZ AUX)
    Blend: AUG-CC-PVTZ-JKFIT

    Orbital Energies [Eh]
    ---------------------

    Doubly Occupied:

       1A    -91.667204     2A    -11.068968     3A    -11.055551
       4A    -11.055526     5A     -8.667227     6A     -6.348769
       7A     -6.347133     8A     -6.347120     9A     -0.897943
      10A     -0.768010    11A     -0.681128    12A     -0.562329
      13A     -0.449919    14A     -0.414772    15A     -0.396702
      16A     -0.376362    17A     -0.316536    18A     -0.313458
      19A     -0.221080    20A     -0.092586    21A     -0.091845

  @DF-RHF Final Energy:  -515.27623899975481

   => Energetics <=

    Nuclear Repulsion Energy =            158.8490956608193301
    One-Electron Energy =               -1031.9703372422281973
    Two-Electron Energy =                 357.8450025816540006
    Total Energy =                       -515.2762389997549235
  Basis Set: (AUG-CC-PVTZ AUX)
    Blend: AUG-CC-PVTZ-RI
    Molecular point group: c1

    Geometry (in Angstrom), charge = -1, multiplicity = 1:

       Center              X                  Y                   Z               Mass
    ------------   -----------------  -----------------  -----------------  -----------------
         S            1.322601948263    -0.000006114410    -0.068915265056    31.972071174400
         C           -0.455075651737    -0.000013914410     0.397263434944    12.000000000000
         C           -1.170981651737    -1.250381914410    -0.108557565056    12.000000000000
         C           -1.170966651737     1.250413085590    -0.108559565056    12.000000000000
         H           -0.538233951737    -0.000002014410     1.492904434944     1.007825032230
         H           -1.131922651737    -1.292452914410    -1.202347565056     1.007825032230
         H           -0.699819651737    -2.157566914410     0.279843434944     1.007825032230
         H           -2.226352651737    -1.254413914410     0.196677434944     1.007825032230
         H           -1.131910651737     1.292454085590    -1.202352565056     1.007825032230
         H           -0.699741651737     2.157540085590     0.279879434944     1.007825032230
         H           -2.226334651737     1.254430085590     0.196680434944     1.007825032230

  Basis Set: AUG-CC-PVTZ
    Blend: AUG-CC-PVTZ
  Basis Set: (AUG-CC-PVTZ AUX)
    Blend: AUG-CC-PVTZ-JKFIT
	 Reference Energy          =    -515.2762389997548098 [Eh]
	 Singles Energy            =      -0.0000000000000000 [Eh]
	 Same-Spin Energy          =      -0.1881340148690823 [Eh]
	 Opposite-Spin Energy      =      -0.6464900113590752 [Eh]
	 Correlation Energy        =      -0.8346240262281576 [Eh]
	 Total Energy              =    -516.1108630259830079 [Eh]

	 ================> DF-SCS-MP2 Energies <==================
	-----------------------------------------------------------
	 SCS Same-Spin Scale       =       0.3333333333333333 [-]
	 SCS Opposite-Spin Scale   =       1.2000000000000000 [-]
	 SCS Same-Spin Energy      =      -0.0627113382896941 [Eh]
	 SCS Opposite-Spin Energy  =      -0.7757880136308902 [Eh]
	 SCS Correlation Energy    =      -0.8384993519205843 [Eh]
	 SCS Total Energy          =    -516.1147383516754417 [Eh]
	-----------------------------------------------------------

  Dipole Moment: [D]
     X:    -5.1351      Y:    -0.0000      Z:     0.5845     Total:     5.1682

*** Psi4 exiting successfully. Buy a developer a beer!
