                               Psi4 1.3.2 release

  ==> Input File <==

--------------------------------------------------------------------------
#psi4
#
memory 32 gb

molecule  {
-1 1
  S        1.4290720    -0.0000060    -0.0599380
  C       -0.3698365     0.0150787     0.3770862
  C       -1.0685120    -1.2503820    -0.1151110
  C       -1.0684970     1.2504130    -0.1151130
  H       -0.4262000    -0.0000020     1.4870350
  H       -1.0294530    -1.2924530    -1.2089010
  H       -0.6101802    -2.1680744     0.2638431
  H       -2.1238830    -1.2544140     0.1901240
  H       -1.0294410     1.2924540    -1.2089060
  H       -0.5972720     2.1575400     0.2733260
  H       -2.1238650     1.2544300     0.1901270
units angstrom
no_reorient  #important for SAPT in psi4, default
symmetry c1  #important for SAPT in psi4, default
}

set PROPERTIES_ORIGIN ["COM"]
properties('MP2/aug-cc-pvtz', properties = ['dipole'])
--------------------------------------------------------------------------

    Molecular point group: c1
  Charge       = -1
  Multiplicity = 1
  Basis Set: AUG-CC-PVTZ
    Blend: AUG-CC-PVTZ
  Basis Set: (AUG-CC-PVTZ AUX)
    Blend: AUG-CC-PVTZ-JKFIT

    Orbital Energies [Eh]
    ---------------------

    Doubly Occupied:

       1A    -91.667247     2A    -11.069281     3A    -11.056253
       4A    -11.055817     5A     -8.667071     6A     -6.348579
       7A     -6.346965     8A     -6.346952     9A     -0.900823
      10A     -0.770564    11A     -0.678989    12A     -0.560791
      13A     -0.452956    14A     -0.416232    15A     -0.396886
      16A     -0.377353    17A     -0.324264    18A     -0.310104
      19A     -0.216515    20A     -0.092662    21A     -0.091073

  @DF-RHF Final Energy:  -515.27526775932176

   => Energetics <=

    Nuclear Repulsion Energy =            158.7831354749793036
    One-Electron Energy =               -1031.8220486396974138
    Two-Electron Energy =                 357.7636454053963462
    Total Energy =                       -515.2752677593217641
  Basis Set: (AUG-CC-PVTZ AUX)
    Blend: AUG-CC-PVTZ-RI
    Molecular point group: c1

    Geometry (in Angstrom), charge = -1, multiplicity = 1:

       Center              X                  Y                   Z               Mass
    ------------   -----------------  -----------------  -----------------  -----------------
         S            1.327697374726    -0.002278824477    -0.057706105830    31.972071174400
         C           -0.471211125274     0.012805875523     0.379318094170    12.000000000000
         C           -1.169886625274    -1.252654824477    -0.112879105830    12.000000000000
         C           -1.169871625274     1.248140175523    -0.112881105830    12.000000000000
         H           -0.527574625274    -0.002274824477     1.489266894170     1.007825032230
         H           -1.130827625274    -1.294725824477    -1.206669105830     1.007825032230
         H           -0.711554825274    -2.170347224477     0.266074994170     1.007825032230
         H           -2.225257625274    -1.256686824477     0.192355894170     1.007825032230
         H           -1.130815625274     1.290181175523    -1.206674105830     1.007825032230
         H           -0.698646625274     2.155267175523     0.275557894170     1.007825032230
         H           -2.225239625274     1.252157175523     0.192358894170     1.007825032230

  Basis Set: AUG-CC-PVTZ
    Blend: AUG-CC-PVTZ
  Basis Set: (AUG-CC-PVTZ AUX)
    Blend: AUG-CC-PVTZ-JKFIT
	 Reference Energy          =    -515.2752677593217641 [Eh]
	 Singles Energy            =      -0.0000000000000000 [Eh]
	 Same-Spin Energy          =      -0.1881663336544533 [Eh]
	 Opposite-Spin Energy      =      -0.6465550139600609 [Eh]
	 Correlation Energy        =      -0.8347213476145141 [Eh]
	 Total Energy              =    -516.1099891069362684 [Eh]

	 ================> DF-SCS-MP2 Energies <==================
	-----------------------------------------------------------
	 SCS Same-Spin Scale       =       0.3333333333333333 [-]
	 SCS Opposite-Spin Scale   =       1.2000000000000000 [-]
	 SCS Same-Spin Energy      =      -0.0627221112181511 [Eh]
	 SCS Opposite-Spin Energy  =      -0.7758660167520730 [Eh]
	 SCS Correlation Energy    =      -0.8385881279702241 [Eh]
	 SCS Total Energy          =    -516.1138558872919475 [Eh]
	-----------------------------------------------------------

  Dipole Moment: [D]
     X:    -5.2021      Y:     0.0139      Z:     0.5579     Total:     5.2320

*** Psi4 exiting successfully. Buy a developer a beer!
