                               Psi4 1.3.2 release

  ==> Input File <==

--------------------------------------------------------------------------
#psi4
#
memory 32 gb

molecule  {
-1 1
  S        1.4290720    -0.0000060    -0.0599380
  C       -0.3188044    -0.0313374     0.4174912
  C       -1.0685120    -1.2503820    -0.1151110
  C       -1.0684970     1.2504130    -0.1151130
  H       -0.4262000    -0.0000020     1.4870350
  H       -1.0294530    -1.2924530    -1.2089010
  H       -0.5721241    -2.1357265     0.2918260
  H       -2.1238830    -1.2544140     0.1901240
  H       -1.0294410     1.2924540    -1.2089060
  H       -0.5972720     2.1575400     0.2733260
  H       -2.1238650     1.2544300     0.1901270
units angstrom
no_reorient  #important for SAPT in psi4, default
symmetry c1  #important for SAPT in psi4, default
}

set PROPERTIES_ORIGIN ["COM"]
properties('MP2/aug-cc-pvtz', properties = ['dipole'])
--------------------------------------------------------------------------

    Molecular point group: c1
  Charge       = -1
  Multiplicity = 1
  Basis Set: AUG-CC-PVTZ
    Blend: AUG-CC-PVTZ
  Basis Set: (AUG-CC-PVTZ AUX)
    Blend: AUG-CC-PVTZ-JKFIT

    Orbital Energies [Eh]
    ---------------------

    Doubly Occupied:

       1A    -91.667091     2A    -11.068797     3A    -11.055348
       4A    -11.055155     5A     -8.667526     6A     -6.349138
       7A     -6.347444     8A     -6.347438     9A     -0.893209
      10A     -0.763555    11A     -0.686900    12A     -0.563958
      13A     -0.444572    14A     -0.414154    15A     -0.396210
      16A     -0.374948    17A     -0.321897    18A     -0.300657
      19A     -0.228626    20A     -0.093218    21A     -0.091850

  @DF-RHF Final Energy:  -515.27412152031968

   => Energetics <=

    Nuclear Repulsion Energy =            158.8091720331360932
    One-Electron Energy =               -1031.9032039008820902
    Two-Electron Energy =                 357.8199103474263438
    Total Energy =                       -515.2741215203196816
  Basis Set: (AUG-CC-PVTZ AUX)
    Blend: AUG-CC-PVTZ-RI
    Molecular point group: c1

    Geometry (in Angstrom), charge = -1, multiplicity = 1:

       Center              X                  Y                   Z               Mass
    ------------   -----------------  -----------------  -----------------  -----------------
         S            1.319023958190     0.004710569344    -0.064544482913    31.972071174400
         C           -0.428852441810    -0.026620830656     0.412884717087    12.000000000000
         C           -1.178560041810    -1.245665430656    -0.119717482913    12.000000000000
         C           -1.178545041810     1.255129569344    -0.119719482913    12.000000000000
         H           -0.536248041810     0.004714569344     1.482428517087     1.007825032230
         H           -1.139501041810    -1.287736430656    -1.213507482913     1.007825032230
         H           -0.682172141810    -2.131009930656     0.287219517087     1.007825032230
         H           -2.233931041810    -1.249697430656     0.185517517087     1.007825032230
         H           -1.139489041810     1.297170569344    -1.213512482913     1.007825032230
         H           -0.707320041810     2.162256569344     0.268719517087     1.007825032230
         H           -2.233913041810     1.259146569344     0.185520517087     1.007825032230

  Basis Set: AUG-CC-PVTZ
    Blend: AUG-CC-PVTZ
  Basis Set: (AUG-CC-PVTZ AUX)
    Blend: AUG-CC-PVTZ-JKFIT
	 Reference Energy          =    -515.2741215203196816 [Eh]
	 Singles Energy            =      -0.0000000000000000 [Eh]
	 Same-Spin Energy          =      -0.1881933959025633 [Eh]
	 Opposite-Spin Energy      =      -0.6465747802937697 [Eh]
	 Correlation Energy        =      -0.8347681761963330 [Eh]
	 Total Energy              =    -516.1088896965160302 [Eh]

	 ================> DF-SCS-MP2 Energies <==================
	-----------------------------------------------------------
	 SCS Same-Spin Scale       =       0.3333333333333333 [-]
	 SCS Opposite-Spin Scale   =       1.2000000000000000 [-]
	 SCS Same-Spin Energy      =      -0.0627311319675211 [Eh]
	 SCS Opposite-Spin Energy  =      -0.7758897363525236 [Eh]
	 SCS Correlation Energy    =      -0.8386208683200447 [Eh]
	 SCS Total Energy          =    -516.1127423886397310 [Eh]
	-----------------------------------------------------------

  Dipole Moment: [D]
     X:    -5.0427      Y:    -0.0342      Z:     0.5772     Total:     5.0757

*** Psi4 exiting successfully. Buy a developer a beer!
