                               Psi4 1.4a3.dev225

  ==> Input File <==

--------------------------------------------------------------------------
#psi4
#
memory 32 gb

molecule  {
-1 1
  S        0.8760760     1.1282850     0.0000000
  C       -0.5625497    -0.0926543     0.0000000
  C       -0.5244280    -0.9363990     1.2509370
  C       -0.5244280    -0.9363990    -1.2509370
  H       -1.4611330     0.5136640     0.0000000
  H        0.3938430    -1.5316650     1.2938450
  H       -0.5721740    -0.3268970     2.1577640
  H       -1.3798600    -1.6252560     1.2536820
  H        0.3938430    -1.5316650    -1.2938450
  H       -0.5721740    -0.3268970    -2.1577640
  H       -1.3798600    -1.6252560    -1.2536820
units angstrom
no_reorient  #important for SAPT in psi4, default
symmetry c1  #important for SAPT in psi4, default
}

set PROPERTIES_ORIGIN ["COM"]
properties('MP2/aug-cc-pvtz', properties = ['dipole'])
--------------------------------------------------------------------------

    Molecular point group: c1
  Charge       = -1
  Multiplicity = 1
  Basis Set: AUG-CC-PVTZ
    Blend: AUG-CC-PVTZ
  Basis Set: (AUG-CC-PVTZ AUX)
    Blend: AUG-CC-PVTZ-JKFIT

    Orbital Energies [Eh]
    ---------------------

    Doubly Occupied:

       1A    -91.667121     2A    -11.067327     3A    -11.056309
       4A    -11.056278     5A     -8.666493     6A     -6.347916
       7A     -6.346369     8A     -6.346352     9A     -0.901910
      10A     -0.771649    11A     -0.673388    12A     -0.565176
      13A     -0.454160    14A     -0.417058    15A     -0.397898
      16A     -0.378168    17A     -0.324851    18A     -0.319505
      19A     -0.206434    20A     -0.091529    21A     -0.090958

  @DF-RHF Final Energy:  -515.27426015249125

   => Energetics <=

    Nuclear Repulsion Energy =            158.5170560011382577
    One-Electron Energy =               -1031.2889344758464176
    Two-Electron Energy =                 357.4976183222169084
    Total Energy =                       -515.2742601524912516
  Basis Set: (AUG-CC-PVTZ AUX)
    Blend: AUG-CC-PVTZ-RI
    Molecular point group: c1

    Geometry (in Angstrom), charge = -1, multiplicity = 1:

       Center              X                  Y                   Z               Mass
    ------------   -----------------  -----------------  -----------------  -----------------
         S            0.821965214080     1.048530799028     0.000000000000    31.972071174400
         C           -0.616660485920    -0.172408500972     0.000000000000    12.000000000000
         C           -0.578538785920    -1.016153200972     1.250937000000    12.000000000000
         C           -0.578538785920    -1.016153200972    -1.250937000000    12.000000000000
         H           -1.515243785920     0.433909799028     0.000000000000     1.007825032230
         H            0.339732214080    -1.611419200972     1.293845000000     1.007825032230
         H           -0.626284785920    -0.406651200972     2.157764000000     1.007825032230
         H           -1.433970785920    -1.705010200972     1.253682000000     1.007825032230
         H            0.339732214080    -1.611419200972    -1.293845000000     1.007825032230
         H           -0.626284785920    -0.406651200972    -2.157764000000     1.007825032230
         H           -1.433970785920    -1.705010200972    -1.253682000000     1.007825032230

  Basis Set: AUG-CC-PVTZ
    Blend: AUG-CC-PVTZ
  Basis Set: (AUG-CC-PVTZ AUX)
    Blend: AUG-CC-PVTZ-JKFIT
	 Reference Energy          =    -515.2742601524912516 [Eh]
	 Singles Energy            =      -0.0000000000000000 [Eh]
	 Same-Spin Energy          =      -0.1880438069089758 [Eh]
	 Opposite-Spin Energy      =      -0.6465625933552794 [Eh]
	 Correlation Energy        =      -0.8346064002642553 [Eh]
	 Total Energy              =    -516.1088665527555577 [Eh]

	 ================> DF-SCS-MP2 Energies <==================
	-----------------------------------------------------------
	 SCS Same-Spin Scale       =       0.3333333333333333 [-]
	 SCS Opposite-Spin Scale   =       1.2000000000000000 [-]
	 SCS Same-Spin Energy      =      -0.0626812689696586 [Eh]
	 SCS Opposite-Spin Energy  =      -0.7758751120263353 [Eh]
	 SCS Correlation Energy    =      -0.8385563809959938 [Eh]
	 SCS Total Energy          =    -516.1128165334872619 [Eh]
	-----------------------------------------------------------

  Dipole Moment: [D]
     X:    -3.5286      Y:    -4.0000      Z:    -0.0000     Total:     5.3339

*** Psi4 exiting successfully. Buy a developer a beer!
