                               Psi4 1.3.2 release

  ==> Input File <==

--------------------------------------------------------------------------
#psi4
#
memory 32 gb

molecule  {
-1 1
  S        1.4290720    -0.0000060    -0.0599380
  C       -0.4495529    -0.0000144     0.4152312
  C       -1.0685120    -1.2503820    -0.1151110
  C       -1.0684970     1.2504130    -0.1151130
  H       -0.4262000    -0.0000020     1.4870350
  H       -1.0294530    -1.2924530    -1.2089010
  H       -0.5973500    -2.1575670     0.2732900
  H       -2.1238830    -1.2544140     0.1901240
  H       -1.0294410     1.2924540    -1.2089060
  H       -0.5972720     2.1575400     0.2733260
  H       -2.1238650     1.2544300     0.1901270
units angstrom
no_reorient  #important for SAPT in psi4, default
symmetry c1  #important for SAPT in psi4, default
}

set PROPERTIES_ORIGIN ["COM"]
properties('MP2/aug-cc-pvtz', properties = ['dipole'])
--------------------------------------------------------------------------

    Molecular point group: c1
  Charge       = -1
  Multiplicity = 1
  Basis Set: AUG-CC-PVTZ
    Blend: AUG-CC-PVTZ
  Basis Set: (AUG-CC-PVTZ AUX)
    Blend: AUG-CC-PVTZ-JKFIT

    Orbital Energies [Eh]
    ---------------------

    Doubly Occupied:

       1A    -91.667233     2A    -11.066791     3A    -11.057302
       4A    -11.057264     5A     -8.666054     6A     -6.347373
       7A     -6.345889     8A     -6.345867     9A     -0.906388
      10A     -0.775380    11A     -0.666369    12A     -0.568153
      13A     -0.458654    14A     -0.419091    15A     -0.399605
      16A     -0.379742    17A     -0.332717    18A     -0.324864
      19A     -0.191901    20A     -0.090594    21A     -0.090298

  @DF-RHF Final Energy:  -515.26893301047357

   => Energetics <=

    Nuclear Repulsion Energy =            158.1394947274740446
    One-Electron Energy =               -1030.5017939192796348
    Two-Electron Energy =                 357.0933661813320441
    Total Energy =                       -515.2689330104735745
  Basis Set: (AUG-CC-PVTZ AUX)
    Blend: AUG-CC-PVTZ-RI
    Molecular point group: c1

    Geometry (in Angstrom), charge = -1, multiplicity = 1:

       Center              X                  Y                   Z               Mass
    ------------   -----------------  -----------------  -----------------  -----------------
         S            1.340275088552    -0.000005937005    -0.063934020832    31.972071174400
         C           -0.538349811448    -0.000014337005     0.411235179168    12.000000000000
         C           -1.157308911448    -1.250381937005    -0.119107020832    12.000000000000
         C           -1.157293911448     1.250413062995    -0.119109020832    12.000000000000
         H           -0.514996911448    -0.000001937005     1.483038979168     1.007825032230
         H           -1.118249911448    -1.292452937005    -1.212897020832     1.007825032230
         H           -0.686146911448    -2.157566937005     0.269293979168     1.007825032230
         H           -2.212679911448    -1.254413937005     0.186127979168     1.007825032230
         H           -1.118237911448     1.292454062995    -1.212902020832     1.007825032230
         H           -0.686068911448     2.157540062995     0.269329979168     1.007825032230
         H           -2.212661911448     1.254430062995     0.186130979168     1.007825032230

  Basis Set: AUG-CC-PVTZ
    Blend: AUG-CC-PVTZ
  Basis Set: (AUG-CC-PVTZ AUX)
    Blend: AUG-CC-PVTZ-JKFIT
	 Reference Energy          =    -515.2689330104735745 [Eh]
	 Singles Energy            =      -0.0000000000000000 [Eh]
	 Same-Spin Energy          =      -0.1881558861609302 [Eh]
	 Opposite-Spin Energy      =      -0.6469785090912243 [Eh]
	 Correlation Energy        =      -0.8351343952521546 [Eh]
	 Total Energy              =    -516.1040674057256865 [Eh]

	 ================> DF-SCS-MP2 Energies <==================
	-----------------------------------------------------------
	 SCS Same-Spin Scale       =       0.3333333333333333 [-]
	 SCS Opposite-Spin Scale   =       1.2000000000000000 [-]
	 SCS Same-Spin Energy      =      -0.0627186287203101 [Eh]
	 SCS Opposite-Spin Energy  =      -0.7763742109094692 [Eh]
	 SCS Correlation Energy    =      -0.8390928396297793 [Eh]
	 SCS Total Energy          =    -516.1080258501033313 [Eh]
	-----------------------------------------------------------

  Dipole Moment: [D]
     X:    -5.4488      Y:    -0.0000      Z:     0.5525     Total:     5.4768

*** Psi4 exiting successfully. Buy a developer a beer!
