                               Psi4 1.3.2 release

  ==> Input File <==

--------------------------------------------------------------------------
#psi4
#
memory 32 gb

molecule  {
-1 1
  S        1.4290720    -0.0000060    -0.0599380
  C       -0.3526060    -0.0000140     0.3907100
  C       -1.0685120    -1.2503820    -0.1151110
  C       -1.0684970     1.2504130    -0.1151130
  H       -0.4395954     0.0000002     1.6865859
  H       -1.0294530    -1.2924530    -1.2089010
  H       -0.5973500    -2.1575670     0.2732900
  H       -2.1238830    -1.2544140     0.1901240
  H       -1.0294410     1.2924540    -1.2089060
  H       -0.5972720     2.1575400     0.2733260
  H       -2.1238650     1.2544300     0.1901270
units angstrom
no_reorient  #important for SAPT in psi4, default
symmetry c1  #important for SAPT in psi4, default
}

set PROPERTIES_ORIGIN ["COM"]
properties('MP2/aug-cc-pvtz', properties = ['dipole'])
--------------------------------------------------------------------------

    Molecular point group: c1
  Charge       = -1
  Multiplicity = 1
  Basis Set: AUG-CC-PVTZ
    Blend: AUG-CC-PVTZ
  Basis Set: (AUG-CC-PVTZ AUX)
    Blend: AUG-CC-PVTZ-JKFIT

    Orbital Energies [Eh]
    ---------------------

    Doubly Occupied:

       1A    -91.670288     2A    -11.094241     3A    -11.058648
       4A    -11.058631     5A     -8.670275     6A     -6.351802
       7A     -6.350158     8A     -6.350125     9A     -0.894587
      10A     -0.770397    11A     -0.680224    12A     -0.544163
      13A     -0.444331    14A     -0.416611    15A     -0.399059
      16A     -0.378294    17A     -0.320088    18A     -0.292253
      19A     -0.222255    20A     -0.095284    21A     -0.092580

  @DF-RHF Final Energy:  -515.25808976739927

   => Energetics <=

    Nuclear Repulsion Energy =            157.9019673458691955
    One-Electron Energy =               -1030.0115274583658902
    Two-Electron Energy =                 356.8514703450973684
    Total Energy =                       -515.2580897673992695
  Basis Set: (AUG-CC-PVTZ AUX)
    Blend: AUG-CC-PVTZ-RI
    Molecular point group: c1

    Geometry (in Angstrom), charge = -1, multiplicity = 1:

       Center              X                  Y                   Z               Mass
    ------------   -----------------  -----------------  -----------------  -----------------
         S            1.324949073455    -0.000006030534    -0.062692571774    31.972071174400
         C           -0.456728926545    -0.000014030534     0.387955428226    12.000000000000
         C           -1.172634926545    -1.250382030534    -0.117865571774    12.000000000000
         C           -1.172619926545     1.250412969466    -0.117867571774    12.000000000000
         H           -0.543718326545     0.000000169466     1.683831328226     1.007825032230
         H           -1.133575926545    -1.292453030534    -1.211655571774     1.007825032230
         H           -0.701472926545    -2.157567030534     0.270535428226     1.007825032230
         H           -2.228005926545    -1.254414030534     0.187369428226     1.007825032230
         H           -1.133563926545     1.292453969466    -1.211660571774     1.007825032230
         H           -0.701394926545     2.157539969466     0.270571428226     1.007825032230
         H           -2.227987926545     1.254429969466     0.187372428226     1.007825032230

  Basis Set: AUG-CC-PVTZ
    Blend: AUG-CC-PVTZ
  Basis Set: (AUG-CC-PVTZ AUX)
    Blend: AUG-CC-PVTZ-JKFIT
	 Reference Energy          =    -515.2580897673992695 [Eh]
	 Singles Energy            =      -0.0000000000000000 [Eh]
	 Same-Spin Energy          =      -0.1882243291216217 [Eh]
	 Opposite-Spin Energy      =      -0.6479747535470900 [Eh]
	 Correlation Energy        =      -0.8361990826687117 [Eh]
	 Total Energy              =    -516.0942888500679828 [Eh]

	 ================> DF-SCS-MP2 Energies <==================
	-----------------------------------------------------------
	 SCS Same-Spin Scale       =       0.3333333333333333 [-]
	 SCS Opposite-Spin Scale   =       1.2000000000000000 [-]
	 SCS Same-Spin Energy      =      -0.0627414430405406 [Eh]
	 SCS Opposite-Spin Energy  =      -0.7775697042565080 [Eh]
	 SCS Correlation Energy    =      -0.8403111472970485 [Eh]
	 SCS Total Energy          =    -516.0984009146962990 [Eh]
	-----------------------------------------------------------

  Dipole Moment: [D]
     X:    -4.9550      Y:    -0.0000      Z:     0.2552     Total:     4.9615

*** Psi4 exiting successfully. Buy a developer a beer!
