                               Psi4 1.3.2 release

  ==> Input File <==

--------------------------------------------------------------------------
#psi4
#
memory 32 gb

molecule  {
-1 1
  S        1.4377167     0.0848871    -0.0154878
  C       -0.3526060    -0.0000140     0.3907100
  C       -1.1359699    -1.2223377    -0.0826420
  C       -1.0684970     1.2504130    -0.1151130
  H       -0.4262000    -0.0000020     1.4870350
  H       -1.0294530    -1.2924530    -1.2089010
  H       -0.5973500    -2.1575670     0.2732900
  H       -2.1238830    -1.2544140     0.1901240
  H       -1.0294410     1.2924540    -1.2089060
  H       -0.5972720     2.1575400     0.2733260
  H       -2.1238650     1.2544300     0.1901270
units angstrom
no_reorient  #important for SAPT in psi4, default
symmetry c1  #important for SAPT in psi4, default
}

set PROPERTIES_ORIGIN ["COM"]
properties('MP2/aug-cc-pvtz', properties = ['dipole'])
--------------------------------------------------------------------------

    Molecular point group: c1
  Charge       = -1
  Multiplicity = 1
  Basis Set: AUG-CC-PVTZ
    Blend: AUG-CC-PVTZ
  Basis Set: (AUG-CC-PVTZ AUX)
    Blend: AUG-CC-PVTZ-JKFIT

    Orbital Energies [Eh]
    ---------------------

    Doubly Occupied:

       1A    -91.668850     2A    -11.068717     3A    -11.057966
       4A    -11.053528     5A     -8.668712     6A     -6.350258
       7A     -6.348599     8A     -6.348595     9A     -0.898583
      10A     -0.767716    11A     -0.684477    12A     -0.560271
      13A     -0.451404    14A     -0.424103    15A     -0.399558
      16A     -0.372044    17A     -0.309147    18A     -0.305118
      19A     -0.225060    20A     -0.094334    21A     -0.091819

  @DF-RHF Final Energy:  -515.26789142457574

   => Energetics <=

    Nuclear Repulsion Energy =            158.4872156940836021
    One-Electron Energy =               -1031.2124972413664636
    Two-Electron Energy =                 357.4573901227071815
    Total Energy =                       -515.2678914245757369
  Basis Set: (AUG-CC-PVTZ AUX)
    Blend: AUG-CC-PVTZ-RI
    Molecular point group: c1

    Geometry (in Angstrom), charge = -1, multiplicity = 1:

       Center              X                  Y                   Z               Mass
    ------------   -----------------  -----------------  -----------------  -----------------
         S            1.340519369316     0.044225122915    -0.039697099557    31.972071174400
         C           -0.449803330684    -0.040675977085     0.366500700443    12.000000000000
         C           -1.233167230684    -1.262999677085    -0.106851299557    12.000000000000
         C           -1.165694330684     1.209751022915    -0.139322299557    12.000000000000
         H           -0.523397330684    -0.040663977085     1.462825700443     1.007825032230
         H           -1.126650330684    -1.333114977085    -1.233110299557     1.007825032230
         H           -0.694547330684    -2.198228977085     0.249080700443     1.007825032230
         H           -2.221080330684    -1.295075977085     0.165914700443     1.007825032230
         H           -1.126638330684     1.251792022915    -1.233115299557     1.007825032230
         H           -0.694469330684     2.116878022915     0.249116700443     1.007825032230
         H           -2.221062330684     1.213768022915     0.165917700443     1.007825032230

  Basis Set: AUG-CC-PVTZ
    Blend: AUG-CC-PVTZ
  Basis Set: (AUG-CC-PVTZ AUX)
    Blend: AUG-CC-PVTZ-JKFIT
	 Reference Energy          =    -515.2678914245757369 [Eh]
	 Singles Energy            =      -0.0000000000000000 [Eh]
	 Same-Spin Energy          =      -0.1882975020216147 [Eh]
	 Opposite-Spin Energy      =      -0.6469202616459175 [Eh]
	 Correlation Energy        =      -0.8352177636675322 [Eh]
	 Total Energy              =    -516.1031091882432520 [Eh]

	 ================> DF-SCS-MP2 Energies <==================
	-----------------------------------------------------------
	 SCS Same-Spin Scale       =       0.3333333333333333 [-]
	 SCS Opposite-Spin Scale   =       1.2000000000000000 [-]
	 SCS Same-Spin Energy      =      -0.0627658340072049 [Eh]
	 SCS Opposite-Spin Energy  =      -0.7763043139751010 [Eh]
	 SCS Correlation Energy    =      -0.8390701479823059 [Eh]
	 SCS Total Energy          =    -516.1069615725580206 [Eh]
	-----------------------------------------------------------

  Dipole Moment: [D]
     X:    -5.2342      Y:    -0.0935      Z:     0.5572     Total:     5.2646

*** Psi4 exiting successfully. Buy a developer a beer!
