                               Psi4 1.4a3.dev225

  ==> Input File <==

--------------------------------------------------------------------------
#psi4
#
memory 32 gb

molecule  {
0 1
  F        1.4881523     2.3068485     0.0030214
  F        1.4077500    -2.3569030     0.0024500
  C       -1.3651830    -0.0000010    -0.0169560
  C       -0.6574790    -1.2079560    -0.0091570
  C       -0.6574810     1.2079540    -0.0091560
  C       -2.8713810    -0.0000030     0.0124600
  C        0.7312170     1.1805550     0.0005770
  C        0.7312190    -1.1805530     0.0005760
  C        1.4628560     0.0000010     0.0071220
  H       -1.1698750    -2.1658170    -0.0181430
  H       -1.1698790     2.1658150    -0.0181420
  H       -3.2423250     0.0000120     1.0428870
  H       -3.2734640     0.8855870    -0.4868160
  H       -3.2734620    -0.8856090    -0.4867890
  H        2.5469510     0.0000020     0.0101120
units angstrom
no_reorient  #important for SAPT in psi4, default
symmetry c1  #important for SAPT in psi4, default
}

set PROPERTIES_ORIGIN ["COM"]
properties('MP2/aug-cc-pvtz', properties = ['dipole'])
--------------------------------------------------------------------------

    Molecular point group: c1
  Charge       = 0
  Multiplicity = 1
  Basis Set: AUG-CC-PVTZ
    Blend: AUG-CC-PVTZ
  Basis Set: (AUG-CC-PVTZ AUX)
    Blend: AUG-CC-PVTZ-JKFIT

    Orbital Energies [Eh]
    ---------------------

    Doubly Occupied:

       1A    -26.316934     2A    -26.316323     3A    -11.345980
       4A    -11.344998     5A    -11.275295     6A    -11.249219
       7A    -11.248609     8A    -11.246393     9A    -11.242324
      10A     -1.630332    11A     -1.629346    12A     -1.179756
      13A     -1.070356    14A     -1.032643    15A     -0.963314
      16A     -0.863840    17A     -0.843080    18A     -0.754957
      19A     -0.740229    20A     -0.701949    21A     -0.698015
      22A     -0.693869    23A     -0.687373    24A     -0.662437
      25A     -0.602999    26A     -0.598108    27A     -0.593078
      28A     -0.553910    29A     -0.540952    30A     -0.525813
      31A     -0.502766    32A     -0.350405    33A     -0.349052

  @DF-RHF Final Energy:  -467.61062750047336

   => Energetics <=

    Nuclear Repulsion Energy =            420.5652743087542831
    One-Electron Energy =               -1475.6424948439612308
    Two-Electron Energy =                 587.4665930347334779
    Total Energy =                       -467.6106275004733561
  Basis Set: (AUG-CC-PVTZ AUX)
    Blend: AUG-CC-PVTZ-RI
    Molecular point group: c1

    Geometry (in Angstrom), charge = 0, multiplicity = 1:

       Center              X                  Y                   Z               Mass
    ------------   -----------------  -----------------  -----------------  -----------------
         F            1.380019721651     2.314275661427     0.003232373251    18.998403162730
         F            1.299617421651    -2.349475838573     0.002660973251    18.998403162730
         C           -1.473315578349     0.007426161427    -0.016745026749    12.000000000000
         C           -0.765611578349    -1.200528838573    -0.008946026749    12.000000000000
         C           -0.765613578349     1.215381161427    -0.008945026749    12.000000000000
         C           -2.979513578349     0.007424161427     0.012670973251    12.000000000000
         C            0.623084421651     1.187982161427     0.000787973251    12.000000000000
         C            0.623086421651    -1.173125838573     0.000786973251    12.000000000000
         C            1.354723421651     0.007428161427     0.007332973251    12.000000000000
         H           -1.278007578349    -2.158389838573    -0.017932026749     1.007825032230
         H           -1.278011578349     2.173242161427    -0.017931026749     1.007825032230
         H           -3.350457578349     0.007439161427     1.043097973251     1.007825032230
         H           -3.381596578349     0.893014161427    -0.486605026749     1.007825032230
         H           -3.381594578349    -0.878181838573    -0.486578026749     1.007825032230
         H            2.438818421651     0.007429161427     0.010322973251     1.007825032230

  Basis Set: AUG-CC-PVTZ
    Blend: AUG-CC-PVTZ
  Basis Set: (AUG-CC-PVTZ AUX)
    Blend: AUG-CC-PVTZ-JKFIT
	 Reference Energy          =    -467.6106275004733561 [Eh]
	 Singles Energy            =      -0.0000000000000000 [Eh]
	 Same-Spin Energy          =      -0.4451183625272567 [Eh]
	 Opposite-Spin Energy      =      -1.3528740275876496 [Eh]
	 Correlation Energy        =      -1.7979923901149064 [Eh]
	 Total Energy              =    -469.4086198905882839 [Eh]

	 ================> DF-SCS-MP2 Energies <==================
	-----------------------------------------------------------
	 SCS Same-Spin Scale       =       0.3333333333333333 [-]
	 SCS Opposite-Spin Scale   =       1.2000000000000000 [-]
	 SCS Same-Spin Energy      =      -0.1483727875090856 [Eh]
	 SCS Opposite-Spin Energy  =      -1.6234488331051795 [Eh]
	 SCS Correlation Energy    =      -1.7718216206142652 [Eh]
	 SCS Total Energy          =    -469.3824491210876317 [Eh]
	-----------------------------------------------------------

  Dipole Moment: [D]
     X:    -2.1262      Y:     0.0467      Z:     0.0328     Total:     2.1269

*** Psi4 exiting successfully. Buy a developer a beer!
