                               Psi4 1.4a3.dev225

  ==> Input File <==

--------------------------------------------------------------------------
#psi4
#
memory 32 gb

molecule  {
0 1
  F        1.4077440     2.3569060     0.0024490
  F        1.4077500    -2.3569030     0.0024500
  C       -1.4875575     0.0805953    -0.0188322
  C       -0.6574790    -1.2079560    -0.0091570
  C       -0.6574810     1.2079540    -0.0091560
  C       -2.8713810    -0.0000030     0.0124600
  C        0.7312170     1.1805550     0.0005770
  C        0.7312190    -1.1805530     0.0005760
  C        1.4628560     0.0000010     0.0071220
  H       -1.1698750    -2.1658170    -0.0181430
  H       -1.1698790     2.1658150    -0.0181420
  H       -3.2423250     0.0000120     1.0428870
  H       -3.2734640     0.8855870    -0.4868160
  H       -3.2734620    -0.8856090    -0.4867890
  H        2.5469510     0.0000020     0.0101120
units angstrom
no_reorient  #important for SAPT in psi4, default
symmetry c1  #important for SAPT in psi4, default
}

set PROPERTIES_ORIGIN ["COM"]
properties('MP2/aug-cc-pvtz', properties = ['dipole'])
--------------------------------------------------------------------------

    Molecular point group: c1
  Charge       = 0
  Multiplicity = 1
  Basis Set: AUG-CC-PVTZ
    Blend: AUG-CC-PVTZ
  Basis Set: (AUG-CC-PVTZ AUX)
    Blend: AUG-CC-PVTZ-JKFIT

    Orbital Energies [Eh]
    ---------------------

    Doubly Occupied:

       1A    -26.317946     2A    -26.314734     3A    -11.347030
       4A    -11.342754     5A    -11.284618     6A    -11.253961
       7A    -11.251341     8A    -11.248475     9A    -11.240025
      10A     -1.630524    11A     -1.627611    12A     -1.171414
      13A     -1.088804    14A     -1.025679    15A     -0.971368
      16A     -0.860097    17A     -0.836373    18A     -0.756576
      19A     -0.735135    20A     -0.701427    21A     -0.693275
      22A     -0.692903    23A     -0.687937    24A     -0.665466
      25A     -0.613621    26A     -0.607619    27A     -0.605936
      28A     -0.558370    29A     -0.550036    30A     -0.500626
      31A     -0.494757    32A     -0.352661    33A     -0.333241

  @DF-RHF Final Energy:  -467.58272171583332

   => Energetics <=

    Nuclear Repulsion Energy =            419.2531965800963007
    One-Electron Energy =               -1472.9471577548167716
    Two-Electron Energy =                 586.1112394588872121
    Total Energy =                       -467.5827217158332587
  Basis Set: (AUG-CC-PVTZ AUX)
    Blend: AUG-CC-PVTZ-RI
    Molecular point group: c1

    Geometry (in Angstrom), charge = 0, multiplicity = 1:

       Center              X                  Y                   Z               Mass
    ------------   -----------------  -----------------  -----------------  -----------------
         F            1.323010635970     2.349352593702     0.002920736344    18.998403162730
         F            1.323016635970    -2.364456406298     0.002921736344    18.998403162730
         C           -1.572290864030     0.073041893702    -0.018360463656    12.000000000000
         C           -0.742212364030    -1.215509406298    -0.008685263656    12.000000000000
         C           -0.742214364030     1.200400593702    -0.008684263656    12.000000000000
         C           -2.956114364030    -0.007556406298     0.012931736344    12.000000000000
         C            0.646483635970     1.173001593702     0.001048736344    12.000000000000
         C            0.646485635970    -1.188106406298     0.001047736344    12.000000000000
         C            1.378122635970    -0.007552406298     0.007593736344    12.000000000000
         H           -1.254608364030    -2.173370406298    -0.017671263656     1.007825032230
         H           -1.254612364030     2.158261593702    -0.017670263656     1.007825032230
         H           -3.327058364030    -0.007541406298     1.043358736344     1.007825032230
         H           -3.358197364030     0.878033593702    -0.486344263656     1.007825032230
         H           -3.358195364030    -0.893162406298    -0.486317263656     1.007825032230
         H            2.462217635970    -0.007551406298     0.010583736344     1.007825032230

  Basis Set: AUG-CC-PVTZ
    Blend: AUG-CC-PVTZ
  Basis Set: (AUG-CC-PVTZ AUX)
    Blend: AUG-CC-PVTZ-JKFIT
	 Reference Energy          =    -467.5827217158333156 [Eh]
	 Singles Energy            =      -0.0000000000000000 [Eh]
	 Same-Spin Energy          =      -0.4467605717903322 [Eh]
	 Opposite-Spin Energy      =      -1.3561144166563401 [Eh]
	 Correlation Energy        =      -1.8028749884466724 [Eh]
	 Total Energy              =    -469.3855967042799762 [Eh]

	 ================> DF-SCS-MP2 Energies <==================
	-----------------------------------------------------------
	 SCS Same-Spin Scale       =       0.3333333333333333 [-]
	 SCS Opposite-Spin Scale   =       1.2000000000000000 [-]
	 SCS Same-Spin Energy      =      -0.1489201905967774 [Eh]
	 SCS Opposite-Spin Energy  =      -1.6273372999876081 [Eh]
	 SCS Correlation Energy    =      -1.7762574905843855 [Eh]
	 SCS Total Energy          =    -469.3589792064177004 [Eh]
	-----------------------------------------------------------

  Dipole Moment: [D]
     X:    -2.2967      Y:     0.0585      Z:     0.0493     Total:     2.2980

*** Psi4 exiting successfully. Buy a developer a beer!
