                               Psi4 1.4a3.dev225

  ==> Input File <==

--------------------------------------------------------------------------
#psi4
#
memory 32 gb

molecule  {
0 1
  F        1.4077440     2.3569060     0.0024490
  F        1.4077500    -2.3569030     0.0024500
  C       -1.3651830    -0.0000010    -0.0169560
  C       -0.6574790    -1.2079560    -0.0091570
  C       -0.6574810     1.2079540    -0.0091560
  C       -2.8713810    -0.0000030     0.0124600
  C        0.7312170     1.1805550     0.0005770
  C        0.7312190    -1.1805530     0.0005760
  C        1.4628560     0.0000010     0.0071220
  H       -1.1698750    -2.1658170    -0.0181430
  H       -1.1698790     2.1658150    -0.0181420
  H       -3.2423250     0.0000120     1.0428870
  H       -3.2734640     0.8855870    -0.4868160
  H       -3.2734620    -0.8856090    -0.4867890
  H        2.4469514     0.0000019     0.0098362
units angstrom
no_reorient  #important for SAPT in psi4, default
symmetry c1  #important for SAPT in psi4, default
}

set PROPERTIES_ORIGIN ["COM"]
properties('MP2/aug-cc-pvtz', properties = ['dipole'])
--------------------------------------------------------------------------

    Molecular point group: c1
  Charge       = 0
  Multiplicity = 1
  Basis Set: AUG-CC-PVTZ
    Blend: AUG-CC-PVTZ
  Basis Set: (AUG-CC-PVTZ AUX)
    Blend: AUG-CC-PVTZ-JKFIT

    Orbital Energies [Eh]
    ---------------------

    Doubly Occupied:

       1A    -26.317339     2A    -26.317339     3A    -11.345611
       4A    -11.345606     5A    -11.274483     6A    -11.246048
       7A    -11.246011     8A    -11.241796     9A    -11.240560
      10A     -1.630671    11A     -1.630109    12A     -1.180096
      13A     -1.073278    14A     -1.032204    15A     -0.966647
      16A     -0.862923    17A     -0.847034    18A     -0.756579
      19A     -0.740905    20A     -0.712665    21A     -0.702378
      22A     -0.694522    23A     -0.687003    24A     -0.664448
      25A     -0.607639    26A     -0.603071    27A     -0.592783
      28A     -0.555978    29A     -0.540143    30A     -0.526114
      31A     -0.502771    32A     -0.350066    33A     -0.349279

  @DF-RHF Final Energy:  -467.60570212488409

   => Energetics <=

    Nuclear Repulsion Energy =            421.0734255555979644
    One-Electron Energy =               -1476.5900584185028492
    Two-Electron Energy =                 587.9109307380206246
    Total Energy =                       -467.6057021248841465
  Basis Set: (AUG-CC-PVTZ AUX)
    Blend: AUG-CC-PVTZ-RI
    Molecular point group: c1

    Geometry (in Angstrom), charge = 0, multiplicity = 1:

       Center              X                  Y                   Z               Mass
    ------------   -----------------  -----------------  -----------------  -----------------
         F            1.312329038233     2.356905915527     0.002747073508    18.998403162730
         F            1.312335038233    -2.356903084473     0.002748073508    18.998403162730
         C           -1.460597961767    -0.000001084473    -0.016657926492    12.000000000000
         C           -0.752893961767    -1.207956084473    -0.008858926492    12.000000000000
         C           -0.752895961767     1.207953915527    -0.008857926492    12.000000000000
         C           -2.966795961767    -0.000003084473     0.012758073508    12.000000000000
         C            0.635802038233     1.180554915527     0.000875073508    12.000000000000
         C            0.635804038233    -1.180553084473     0.000874073508    12.000000000000
         C            1.367441038233     0.000000915527     0.007420073508    12.000000000000
         H           -1.265289961767    -2.165817084473    -0.017844926492     1.007825032230
         H           -1.265293961767     2.165814915527    -0.017843926492     1.007825032230
         H           -3.337739961767     0.000011915527     1.043185073508     1.007825032230
         H           -3.368878961767     0.885586915527    -0.486517926492     1.007825032230
         H           -3.368876961767    -0.885609084473    -0.486490926492     1.007825032230
         H            2.351536438233     0.000001815527     0.010134273508     1.007825032230

  Basis Set: AUG-CC-PVTZ
    Blend: AUG-CC-PVTZ
  Basis Set: (AUG-CC-PVTZ AUX)
    Blend: AUG-CC-PVTZ-JKFIT
	 Reference Energy          =    -467.6057021248840897 [Eh]
	 Singles Energy            =      -0.0000000000000000 [Eh]
	 Same-Spin Energy          =      -0.4448849719869099 [Eh]
	 Opposite-Spin Energy      =      -1.3523781788414313 [Eh]
	 Correlation Energy        =      -1.7972631508283412 [Eh]
	 Total Energy              =    -469.4029652757124040 [Eh]

	 ================> DF-SCS-MP2 Energies <==================
	-----------------------------------------------------------
	 SCS Same-Spin Scale       =       0.3333333333333333 [-]
	 SCS Opposite-Spin Scale   =       1.2000000000000000 [-]
	 SCS Same-Spin Energy      =      -0.1482949906623033 [Eh]
	 SCS Opposite-Spin Energy  =      -1.6228538146097176 [Eh]
	 SCS Correlation Energy    =      -1.7711488052720208 [Eh]
	 SCS Total Energy          =    -469.3768509301561380 [Eh]
	-----------------------------------------------------------

  Dipole Moment: [D]
     X:    -2.0714      Y:     0.0000      Z:     0.0336     Total:     2.0717

*** Psi4 exiting successfully. Buy a developer a beer!
