                               Psi4 1.4a3.dev225

  ==> Input File <==

--------------------------------------------------------------------------
#psi4
#
memory 32 gb

molecule  {
0 1
  F        1.4077440     2.3569060     0.0024490
  F        1.4077500    -2.3569030     0.0024500
  C       -1.3651830    -0.0000010    -0.0169560
  C       -0.7000646    -1.2319202    -0.0096263
  C       -0.6574810     1.2079540    -0.0091560
  C       -2.8713810    -0.0000030     0.0124600
  C        0.7312170     1.1805550     0.0005770
  C        0.7312190    -1.1805530     0.0005760
  C        1.4628560     0.0000010     0.0071220
  H       -1.1698750    -2.1658170    -0.0181430
  H       -1.1698790     2.1658150    -0.0181420
  H       -3.2423250     0.0000120     1.0428870
  H       -3.2734640     0.8855870    -0.4868160
  H       -3.2734620    -0.8856090    -0.4867890
  H        2.5469510     0.0000020     0.0101120
units angstrom
no_reorient  #important for SAPT in psi4, default
symmetry c1  #important for SAPT in psi4, default
}

set PROPERTIES_ORIGIN ["COM"]
properties('MP2/aug-cc-pvtz', properties = ['dipole'])
--------------------------------------------------------------------------

    Molecular point group: c1
  Charge       = 0
  Multiplicity = 1
  Basis Set: AUG-CC-PVTZ
    Blend: AUG-CC-PVTZ
  Basis Set: (AUG-CC-PVTZ AUX)
    Blend: AUG-CC-PVTZ-JKFIT

    Orbital Energies [Eh]
    ---------------------

    Doubly Occupied:

       1A    -26.318001     2A    -26.317692     3A    -11.351466
       4A    -11.347505     5A    -11.274456     6A    -11.252082
       7A    -11.247775     8A    -11.246160     9A    -11.240135
      10A     -1.631128    11A     -1.630497    12A     -1.176242
      13A     -1.071312    14A     -1.028642    15A     -0.961530
      16A     -0.866179    17A     -0.841393    18A     -0.753097
      19A     -0.740728    20A     -0.705151    21A     -0.702327
      22A     -0.694550    23A     -0.684475    24A     -0.664263
      25A     -0.605756    26A     -0.598899    27A     -0.591793
      28A     -0.560293    29A     -0.542358    30A     -0.518214
      31A     -0.500228    32A     -0.351803    33A     -0.345310

  @DF-RHF Final Energy:  -467.60808126125511

   => Energetics <=

    Nuclear Repulsion Energy =            419.7598034114446364
    One-Electron Energy =               -1474.0128935294774237
    Two-Electron Energy =                 586.6450088567777357
    Total Energy =                       -467.6080812612550517
  Basis Set: (AUG-CC-PVTZ AUX)
    Blend: AUG-CC-PVTZ-RI
    Molecular point group: c1

    Geometry (in Angstrom), charge = 0, multiplicity = 1:

       Center              X                  Y                   Z               Mass
    ------------   -----------------  -----------------  -----------------  -----------------
         F            1.315532982814     2.359151790743     0.002788884542    18.998403162730
         F            1.315538982814    -2.354657209257     0.002789884542    18.998403162730
         C           -1.457394017186     0.002244790743    -0.016616115458    12.000000000000
         C           -0.792275617186    -1.229674409257    -0.009286415458    12.000000000000
         C           -0.749692017186     1.210199790743    -0.008816115458    12.000000000000
         C           -2.963592017186     0.002242790743     0.012799884542    12.000000000000
         C            0.639005982814     1.182800790743     0.000916884542    12.000000000000
         C            0.639007982814    -1.178307209257     0.000915884542    12.000000000000
         C            1.370644982814     0.002246790743     0.007461884542    12.000000000000
         H           -1.262086017186    -2.163571209257    -0.017803115458     1.007825032230
         H           -1.262090017186     2.168060790743    -0.017802115458     1.007825032230
         H           -3.334536017186     0.002257790743     1.043226884542     1.007825032230
         H           -3.365675017186     0.887832790743    -0.486476115458     1.007825032230
         H           -3.365673017186    -0.883363209257    -0.486449115458     1.007825032230
         H            2.454739982814     0.002247790743     0.010451884542     1.007825032230

  Basis Set: AUG-CC-PVTZ
    Blend: AUG-CC-PVTZ
  Basis Set: (AUG-CC-PVTZ AUX)
    Blend: AUG-CC-PVTZ-JKFIT
	 Reference Energy          =    -467.6080812612551085 [Eh]
	 Singles Energy            =      -0.0000000000000000 [Eh]
	 Same-Spin Energy          =      -0.4449964239828835 [Eh]
	 Opposite-Spin Energy      =      -1.3531368640829358 [Eh]
	 Correlation Energy        =      -1.7981332880658192 [Eh]
	 Total Energy              =    -469.4062145493209073 [Eh]

	 ================> DF-SCS-MP2 Energies <==================
	-----------------------------------------------------------
	 SCS Same-Spin Scale       =       0.3333333333333333 [-]
	 SCS Opposite-Spin Scale   =       1.2000000000000000 [-]
	 SCS Same-Spin Energy      =      -0.1483321413276278 [Eh]
	 SCS Opposite-Spin Energy  =      -1.6237642368995229 [Eh]
	 SCS Correlation Energy    =      -1.7720963782271506 [Eh]
	 SCS Total Energy          =    -469.3801776394822696 [Eh]
	-----------------------------------------------------------

  Dipole Moment: [D]
     X:    -1.9859      Y:    -0.0254      Z:     0.0334     Total:     1.9864

*** Psi4 exiting successfully. Buy a developer a beer!
