                               Psi4 1.4a3.dev225

  ==> Input File <==

--------------------------------------------------------------------------
#psi4
#
memory 32 gb

molecule  {
0 1
  F        1.4077440     2.3569060     0.0024490
  F        1.4077500    -2.3569030     0.0024500
  C       -1.3651830    -0.0000010    -0.0169560
  C       -0.6574790    -1.2079560    -0.0091570
  C       -0.6574810     1.2079540    -0.0091560
  C       -2.8513848    -0.0000030     0.0120695
  C        0.7312170     1.1805550     0.0005770
  C        0.7312190    -1.1805530     0.0005760
  C        1.4628560     0.0000010     0.0071220
  H       -1.1698750    -2.1658170    -0.0181430
  H       -1.1698790     2.1658150    -0.0181420
  H       -3.2423250     0.0000120     1.0428870
  H       -3.2734640     0.8855870    -0.4868160
  H       -3.2734620    -0.8856090    -0.4867890
  H        2.5469510     0.0000020     0.0101120
units angstrom
no_reorient  #important for SAPT in psi4, default
symmetry c1  #important for SAPT in psi4, default
}

set PROPERTIES_ORIGIN ["COM"]
properties('MP2/aug-cc-pvtz', properties = ['dipole'])
--------------------------------------------------------------------------

    Molecular point group: c1
  Charge       = 0
  Multiplicity = 1
  Basis Set: AUG-CC-PVTZ
    Blend: AUG-CC-PVTZ
  Basis Set: (AUG-CC-PVTZ AUX)
    Blend: AUG-CC-PVTZ-JKFIT

    Orbital Energies [Eh]
    ---------------------

    Doubly Occupied:

       1A    -26.317134     2A    -26.317133     3A    -11.346089
       4A    -11.346084     5A    -11.273639     6A    -11.251606
       7A    -11.246456     8A    -11.246418     9A    -11.242401
      10A     -1.630444    11A     -1.629896    12A     -1.180504
      13A     -1.072733    14A     -1.032622    15A     -0.962992
      16A     -0.863274    17A     -0.843613    18A     -0.754729
      19A     -0.741129    20A     -0.702245    21A     -0.698532
      22A     -0.694329    23A     -0.687404    24A     -0.663109
      25A     -0.602901    26A     -0.601066    27A     -0.590855
      28A     -0.555488    29A     -0.536925    30A     -0.527782
      31A     -0.502012    32A     -0.349633    33A     -0.349559

  @DF-RHF Final Energy:  -467.61109915002146

   => Energetics <=

    Nuclear Repulsion Energy =            420.8492692367622112
    One-Electron Energy =               -1476.1992703231810538
    Two-Electron Energy =                 587.7389019363973830
    Total Energy =                       -467.6110991500214595
  Basis Set: (AUG-CC-PVTZ AUX)
    Blend: AUG-CC-PVTZ-RI
    Molecular point group: c1

    Geometry (in Angstrom), charge = 0, multiplicity = 1:

       Center              X                  Y                   Z               Mass
    ------------   -----------------  -----------------  -----------------  -----------------
         F            1.309667944015     2.356905914740     0.002781499567    18.998403162730
         F            1.309673944015    -2.356903085260     0.002782499567    18.998403162730
         C           -1.463259055985    -0.000001085260    -0.016623500433    12.000000000000
         C           -0.755555055985    -1.207956085260    -0.008824500433    12.000000000000
         C           -0.755557055985     1.207953914740    -0.008823500433    12.000000000000
         C           -2.949460855985    -0.000003085260     0.012401999567    12.000000000000
         C            0.633140944015     1.180554914740     0.000909499567    12.000000000000
         C            0.633142944015    -1.180553085260     0.000908499567    12.000000000000
         C            1.364779944015     0.000000914740     0.007454499567    12.000000000000
         H           -1.267951055985    -2.165817085260    -0.017810500433     1.007825032230
         H           -1.267955055985     2.165814914740    -0.017809500433     1.007825032230
         H           -3.340401055985     0.000011914740     1.043219499567     1.007825032230
         H           -3.371540055985     0.885586914740    -0.486483500433     1.007825032230
         H           -3.371538055985    -0.885609085260    -0.486456500433     1.007825032230
         H            2.448874944015     0.000001914740     0.010444499567     1.007825032230

  Basis Set: AUG-CC-PVTZ
    Blend: AUG-CC-PVTZ
  Basis Set: (AUG-CC-PVTZ AUX)
    Blend: AUG-CC-PVTZ-JKFIT
	 Reference Energy          =    -467.6110991500214595 [Eh]
	 Singles Energy            =      -0.0000000000000000 [Eh]
	 Same-Spin Energy          =      -0.4452530473388547 [Eh]
	 Opposite-Spin Energy      =      -1.3529664290469245 [Eh]
	 Correlation Energy        =      -1.7982194763857793 [Eh]
	 Total Energy              =    -469.4093186264072415 [Eh]

	 ================> DF-SCS-MP2 Energies <==================
	-----------------------------------------------------------
	 SCS Same-Spin Scale       =       0.3333333333333333 [-]
	 SCS Opposite-Spin Scale   =       1.2000000000000000 [-]
	 SCS Same-Spin Energy      =      -0.1484176824462849 [Eh]
	 SCS Opposite-Spin Energy  =      -1.6235597148563095 [Eh]
	 SCS Correlation Energy    =      -1.7719773973025943 [Eh]
	 SCS Total Energy          =    -469.3830765473240376 [Eh]
	-----------------------------------------------------------

  Dipole Moment: [D]
     X:    -2.0473      Y:     0.0000      Z:     0.0344     Total:     2.0476

*** Psi4 exiting successfully. Buy a developer a beer!
