                               Psi4 1.4a3.dev225

  ==> Input File <==

--------------------------------------------------------------------------
#psi4
#
memory 32 gb

molecule  {
0 1
  F        1.4077440     2.3569060     0.0024490
  F        1.4077500    -2.3569030     0.0024500
  C       -1.3651830    -0.0000010    -0.0169560
  C       -0.6574790    -1.2079560    -0.0091570
  C       -0.6574810     1.2079540    -0.0091560
  C       -2.8713810    -0.0000030     0.0124600
  C        0.7312170     1.1805550     0.0005770
  C        0.7312190    -1.1805530     0.0005760
  C        1.4628560     0.0000010     0.0071220
  H       -1.1698750    -2.1658170    -0.0181430
  H       -1.1698790     2.1658150    -0.0181420
  H       -3.2490992     0.0000123     1.0617048
  H       -3.2734640     0.8855870    -0.4868160
  H       -3.2734620    -0.8856090    -0.4867890
  H        2.5469510     0.0000020     0.0101120
units angstrom
no_reorient  #important for SAPT in psi4, default
symmetry c1  #important for SAPT in psi4, default
}

set PROPERTIES_ORIGIN ["COM"]
properties('MP2/aug-cc-pvtz', properties = ['dipole'])
--------------------------------------------------------------------------

    Molecular point group: c1
  Charge       = 0
  Multiplicity = 1
  Basis Set: AUG-CC-PVTZ
    Blend: AUG-CC-PVTZ
  Basis Set: (AUG-CC-PVTZ AUX)
    Blend: AUG-CC-PVTZ-JKFIT

    Orbital Energies [Eh]
    ---------------------

    Doubly Occupied:

       1A    -26.317110     2A    -26.317110     3A    -11.346065
       4A    -11.346060     5A    -11.274583     6A    -11.251615
       7A    -11.246505     8A    -11.246468     9A    -11.244173
      10A     -1.630421    11A     -1.629873    12A     -1.179787
      13A     -1.070276    14A     -1.032537    15A     -0.961998
      16A     -0.863060    17A     -0.843689    18A     -0.754241
      19A     -0.740881    20A     -0.702216    21A     -0.698506
      22A     -0.694311    23A     -0.687226    24A     -0.662614
      25A     -0.603275    26A     -0.597933    27A     -0.589617
      28A     -0.556269    29A     -0.540404    30A     -0.524198
      31A     -0.502459    32A     -0.349912    33A     -0.349574

  @DF-RHF Final Energy:  -467.61127912356272

   => Energetics <=

    Nuclear Repulsion Energy =            420.4197463786863977
    One-Electron Energy =               -1475.3521163496652662
    Two-Electron Energy =                 587.3210908474161442
    Total Energy =                       -467.6112791235627810
  Basis Set: (AUG-CC-PVTZ AUX)
    Blend: AUG-CC-PVTZ-RI
    Molecular point group: c1

    Geometry (in Angstrom), charge = 0, multiplicity = 1:

       Center              X                  Y                   Z               Mass
    ------------   -----------------  -----------------  -----------------  -----------------
         F            1.311595266479     2.356905912379     0.002596788883    18.998403162730
         F            1.311601266479    -2.356903087621     0.002597788883    18.998403162730
         C           -1.461331733521    -0.000001087621    -0.016808211117    12.000000000000
         C           -0.753627733521    -1.207956087621    -0.009009211117    12.000000000000
         C           -0.753629733521     1.207953912379    -0.009008211117    12.000000000000
         C           -2.967529733521    -0.000003087621     0.012607788883    12.000000000000
         C            0.635068266479     1.180554912379     0.000724788883    12.000000000000
         C            0.635070266479    -1.180553087621     0.000723788883    12.000000000000
         C            1.366707266479     0.000000912379     0.007269788883    12.000000000000
         H           -1.266023733521    -2.165817087621    -0.017995211117     1.007825032230
         H           -1.266027733521     2.165814912379    -0.017994211117     1.007825032230
         H           -3.345247933521     0.000012212379     1.061852588883     1.007825032230
         H           -3.369612733521     0.885586912379    -0.486668211117     1.007825032230
         H           -3.369610733521    -0.885609087621    -0.486641211117     1.007825032230
         H            2.450802266479     0.000001912379     0.010259788883     1.007825032230

  Basis Set: AUG-CC-PVTZ
    Blend: AUG-CC-PVTZ
  Basis Set: (AUG-CC-PVTZ AUX)
    Blend: AUG-CC-PVTZ-JKFIT
	 Reference Energy          =    -467.6112791235627242 [Eh]
	 Singles Energy            =      -0.0000000000000000 [Eh]
	 Same-Spin Energy          =      -0.4450654779332333 [Eh]
	 Opposite-Spin Energy      =      -1.3529038348004598 [Eh]
	 Correlation Energy        =      -1.7979693127336931 [Eh]
	 Total Energy              =    -469.4092484362964228 [Eh]

	 ================> DF-SCS-MP2 Energies <==================
	-----------------------------------------------------------
	 SCS Same-Spin Scale       =       0.3333333333333333 [-]
	 SCS Opposite-Spin Scale   =       1.2000000000000000 [-]
	 SCS Same-Spin Energy      =      -0.1483551593110778 [Eh]
	 SCS Opposite-Spin Energy  =      -1.6234846017605518 [Eh]
	 SCS Correlation Energy    =      -1.7718397610716294 [Eh]
	 SCS Total Energy          =    -469.3831188846343707 [Eh]
	-----------------------------------------------------------

  Dipole Moment: [D]
     X:    -2.0382      Y:     0.0000      Z:     0.0276     Total:     2.0383

*** Psi4 exiting successfully. Buy a developer a beer!
