                               Psi4 1.4a3.dev225

  ==> Input File <==

--------------------------------------------------------------------------
#psi4
#
memory 32 gb

molecule  {
0 1
  F        1.4077440     2.3569060     0.0024490
  F        1.4077500    -2.3569030     0.0024500
  C       -1.2792059    -0.0464280    -0.0156564
  C       -0.6574790    -1.2079560    -0.0091570
  C       -0.6574810     1.2079540    -0.0091560
  C       -2.8713810    -0.0000030     0.0124600
  C        0.7312170     1.1805550     0.0005770
  C        0.7312190    -1.1805530     0.0005760
  C        1.4628560     0.0000010     0.0071220
  H       -1.1698750    -2.1658170    -0.0181430
  H       -1.1698790     2.1658150    -0.0181420
  H       -3.2423250     0.0000120     1.0428870
  H       -3.2734640     0.8855870    -0.4868160
  H       -3.2734620    -0.8856090    -0.4867890
  H        2.5469510     0.0000020     0.0101120
units angstrom
no_reorient  #important for SAPT in psi4, default
symmetry c1  #important for SAPT in psi4, default
}

set PROPERTIES_ORIGIN ["COM"]
properties('MP2/aug-cc-pvtz', properties = ['dipole'])
--------------------------------------------------------------------------

    Molecular point group: c1
  Charge       = 0
  Multiplicity = 1
  Basis Set: AUG-CC-PVTZ
    Blend: AUG-CC-PVTZ
  Basis Set: (AUG-CC-PVTZ AUX)
    Blend: AUG-CC-PVTZ-JKFIT

    Orbital Energies [Eh]
    ---------------------

    Doubly Occupied:

       1A    -26.318314     2A    -26.316320     3A    -11.347994
       4A    -11.345464     5A    -11.267766     6A    -11.251400
       7A    -11.246001     8A    -11.242683     9A    -11.239593
      10A     -1.631543    11A     -1.629661    12A     -1.189065
      13A     -1.065273    14A     -1.037653    15A     -0.954996
      16A     -0.868320    17A     -0.845608    18A     -0.754210
      19A     -0.743052    20A     -0.703203    21A     -0.702747
      22A     -0.694446    23A     -0.686000    24A     -0.661894
      25A     -0.604762    26A     -0.593438    27A     -0.585235
      28A     -0.563671    29A     -0.549263    30A     -0.509906
      31A     -0.496668    32A     -0.361702    33A     -0.347873

  @DF-RHF Final Energy:  -467.60176039624315

   => Energetics <=

    Nuclear Repulsion Energy =            421.5492802295032106
    One-Electron Energy =               -1477.5906245757917077
    Two-Electron Energy =                 588.4395839500454031
    Total Energy =                       -467.6017603962430940
  Basis Set: (AUG-CC-PVTZ AUX)
    Blend: AUG-CC-PVTZ-RI
    Molecular point group: c1

    Geometry (in Angstrom), charge = 0, multiplicity = 1:

       Center              X                  Y                   Z               Mass
    ------------   -----------------  -----------------  -----------------  -----------------
         F            1.303484348489     2.361256958596     0.002623106838    18.998403162730
         F            1.303490348489    -2.352552041404     0.002624106838    18.998403162730
         C           -1.383465551511    -0.042077041404    -0.015482293162    12.000000000000
         C           -0.761738651511    -1.203605041404    -0.008982893162    12.000000000000
         C           -0.761740651511     1.212304958596    -0.008981893162    12.000000000000
         C           -2.975640651511     0.004347958596     0.012634106838    12.000000000000
         C            0.626957348489     1.184905958596     0.000751106838    12.000000000000
         C            0.626959348489    -1.176202041404     0.000750106838    12.000000000000
         C            1.358596348489     0.004351958596     0.007296106838    12.000000000000
         H           -1.274134651511    -2.161466041404    -0.017968893162     1.007825032230
         H           -1.274138651511     2.170165958596    -0.017967893162     1.007825032230
         H           -3.346584651511     0.004362958596     1.043061106838     1.007825032230
         H           -3.377723651511     0.889937958596    -0.486641893162     1.007825032230
         H           -3.377721651511    -0.881258041404    -0.486614893162     1.007825032230
         H            2.442691348489     0.004352958596     0.010286106838     1.007825032230

  Basis Set: AUG-CC-PVTZ
    Blend: AUG-CC-PVTZ
  Basis Set: (AUG-CC-PVTZ AUX)
    Blend: AUG-CC-PVTZ-JKFIT
	 Reference Energy          =    -467.6017603962431508 [Eh]
	 Singles Energy            =      -0.0000000000000000 [Eh]
	 Same-Spin Energy          =      -0.4446351528254250 [Eh]
	 Opposite-Spin Energy      =      -1.3524182546714263 [Eh]
	 Correlation Energy        =      -1.7970534074968514 [Eh]
	 Total Energy              =    -469.3988138037399835 [Eh]

	 ================> DF-SCS-MP2 Energies <==================
	-----------------------------------------------------------
	 SCS Same-Spin Scale       =       0.3333333333333333 [-]
	 SCS Opposite-Spin Scale   =       1.2000000000000000 [-]
	 SCS Same-Spin Energy      =      -0.1482117176084750 [Eh]
	 SCS Opposite-Spin Energy  =      -1.6229019056057115 [Eh]
	 SCS Correlation Energy    =      -1.7711136232141864 [Eh]
	 SCS Total Energy          =    -469.3728740194573561 [Eh]
	-----------------------------------------------------------

  Dipole Moment: [D]
     X:    -1.8997      Y:    -0.0374      Z:     0.0249     Total:     1.9003

*** Psi4 exiting successfully. Buy a developer a beer!
