                               Psi4 1.4a3.dev225

  ==> Input File <==

--------------------------------------------------------------------------
#psi4
#
memory 32 gb

molecule  {
0 1
  F        1.5269973     2.2797457     0.0033034
  F        1.4077500    -2.3569030     0.0024500
  C       -1.3651830    -0.0000010    -0.0169560
  C       -0.6574790    -1.2079560    -0.0091570
  C       -0.6574810     1.2079540    -0.0091560
  C       -2.8713810    -0.0000030     0.0124600
  C        0.7312170     1.1805550     0.0005770
  C        0.7312190    -1.1805530     0.0005760
  C        1.4628560     0.0000010     0.0071220
  H       -1.1698750    -2.1658170    -0.0181430
  H       -1.1698790     2.1658150    -0.0181420
  H       -3.2423250     0.0000120     1.0428870
  H       -3.2734640     0.8855870    -0.4868160
  H       -3.2734620    -0.8856090    -0.4867890
  H        2.5469510     0.0000020     0.0101120
units angstrom
no_reorient  #important for SAPT in psi4, default
symmetry c1  #important for SAPT in psi4, default
}

set PROPERTIES_ORIGIN ["COM"]
properties('MP2/aug-cc-pvtz', properties = ['dipole'])
--------------------------------------------------------------------------

    Molecular point group: c1
  Charge       = 0
  Multiplicity = 1
  Basis Set: AUG-CC-PVTZ
    Blend: AUG-CC-PVTZ
  Basis Set: (AUG-CC-PVTZ AUX)
    Blend: AUG-CC-PVTZ-JKFIT

    Orbital Energies [Eh]
    ---------------------

    Doubly Occupied:

       1A    -26.316790     2A    -26.315906     3A    -11.345954
       4A    -11.344415     5A    -11.275650     6A    -11.249693
       7A    -11.248041     8A    -11.246360     9A    -11.242546
      10A     -1.630460    11A     -1.629004    12A     -1.179715
      13A     -1.070205    14A     -1.032697    15A     -0.963370
      16A     -0.864262    17A     -0.842607    18A     -0.755222
      19A     -0.739920    20A     -0.701871    21A     -0.697920
      22A     -0.693653    23A     -0.687451    24A     -0.662067
      25A     -0.602785    26A     -0.597929    27A     -0.593240
      28A     -0.552686    29A     -0.541183    30A     -0.526495
      31A     -0.502627    32A     -0.350771    33A     -0.348550

  @DF-RHF Final Energy:  -467.60914857363565

   => Energetics <=

    Nuclear Repulsion Energy =            420.6358206590936675
    One-Electron Energy =               -1475.7858458354066897
    Two-Electron Energy =                 587.5408766026772582
    Total Energy =                       -467.6091485736357072
  Basis Set: (AUG-CC-PVTZ AUX)
    Blend: AUG-CC-PVTZ-RI
    Molecular point group: c1

    Geometry (in Angstrom), charge = 0, multiplicity = 1:

       Center              X                  Y                   Z               Mass
    ------------   -----------------  -----------------  -----------------  -----------------
         F            1.413101121840     2.291194220494     0.003472531698    18.998403162730
         F            1.293853821840    -2.345454479506     0.002619131698    18.998403162730
         C           -1.479079178160     0.011447520494    -0.016786868302    12.000000000000
         C           -0.771375178160    -1.196507479506    -0.008987868302    12.000000000000
         C           -0.771377178160     1.219402520494    -0.008986868302    12.000000000000
         C           -2.985277178160     0.011445520494     0.012629131698    12.000000000000
         C            0.617320821840     1.192003520494     0.000746131698    12.000000000000
         C            0.617322821840    -1.169104479506     0.000745131698    12.000000000000
         C            1.348959821840     0.011449520494     0.007291131698    12.000000000000
         H           -1.283771178160    -2.154368479506    -0.017973868302     1.007825032230
         H           -1.283775178160     2.177263520494    -0.017972868302     1.007825032230
         H           -3.356221178160     0.011460520494     1.043056131698     1.007825032230
         H           -3.387360178160     0.897035520494    -0.486646868302     1.007825032230
         H           -3.387358178160    -0.874160479506    -0.486619868302     1.007825032230
         H            2.433054821840     0.011450520494     0.010281131698     1.007825032230

  Basis Set: AUG-CC-PVTZ
    Blend: AUG-CC-PVTZ
  Basis Set: (AUG-CC-PVTZ AUX)
    Blend: AUG-CC-PVTZ-JKFIT
	 Reference Energy          =    -467.6091485736356503 [Eh]
	 Singles Energy            =      -0.0000000000000000 [Eh]
	 Same-Spin Energy          =      -0.4451745904300197 [Eh]
	 Opposite-Spin Energy      =      -1.3529828448804331 [Eh]
	 Correlation Energy        =      -1.7981574353104528 [Eh]
	 Total Energy              =    -469.4073060089460796 [Eh]

	 ================> DF-SCS-MP2 Energies <==================
	-----------------------------------------------------------
	 SCS Same-Spin Scale       =       0.3333333333333333 [-]
	 SCS Opposite-Spin Scale   =       1.2000000000000000 [-]
	 SCS Same-Spin Energy      =      -0.1483915301433399 [Eh]
	 SCS Opposite-Spin Energy  =      -1.6235794138565196 [Eh]
	 SCS Correlation Energy    =      -1.7719709439998594 [Eh]
	 SCS Total Energy          =    -469.3811195176355113 [Eh]
	-----------------------------------------------------------

  Dipole Moment: [D]
     X:    -2.1636      Y:     0.0742      Z:     0.0324     Total:     2.1651

*** Psi4 exiting successfully. Buy a developer a beer!
