                               Psi4 1.4a3.dev225

  ==> Input File <==

--------------------------------------------------------------------------
#psi4
#
memory 32 gb

molecule  {
0 1
  F        1.4077440     2.3569060     0.0024490
  F        1.4077500    -2.3569030     0.0024500
  C       -1.3651830    -0.0000010    -0.0169560
  C       -0.6574790    -1.2079560    -0.0091570
  C       -0.5563822     1.3805164    -0.0080417
  C       -2.8713810    -0.0000030     0.0124600
  C        0.7312170     1.1805550     0.0005770
  C        0.7312190    -1.1805530     0.0005760
  C        1.4628560     0.0000010     0.0071220
  H       -1.1698750    -2.1658170    -0.0181430
  H       -1.1698790     2.1658150    -0.0181420
  H       -3.2423250     0.0000120     1.0428870
  H       -3.2734640     0.8855870    -0.4868160
  H       -3.2734620    -0.8856090    -0.4867890
  H        2.5469510     0.0000020     0.0101120
units angstrom
no_reorient  #important for SAPT in psi4, default
symmetry c1  #important for SAPT in psi4, default
}

set PROPERTIES_ORIGIN ["COM"]
properties('MP2/aug-cc-pvtz', properties = ['dipole'])
--------------------------------------------------------------------------

    Molecular point group: c1
  Charge       = 0
  Multiplicity = 1
  Basis Set: AUG-CC-PVTZ
    Blend: AUG-CC-PVTZ
  Basis Set: (AUG-CC-PVTZ AUX)
    Blend: AUG-CC-PVTZ-JKFIT

    Orbital Energies [Eh]
    ---------------------

    Doubly Occupied:

       1A    -26.319741     2A    -26.301366     3A    -11.350401
       4A    -11.333943     5A    -11.293712     6A    -11.249625
       7A    -11.248517     8A    -11.245446     9A    -11.244770
      10A     -1.632585    11A     -1.621189    12A     -1.171032
      13A     -1.063841    14A     -1.044545    15A     -0.966587
      16A     -0.864608    17A     -0.834780    18A     -0.750527
      19A     -0.741074    20A     -0.713844    21A     -0.701615
      22A     -0.689104    23A     -0.684150    24A     -0.659901
      25A     -0.600162    26A     -0.596232    27A     -0.591984
      28A     -0.577052    29A     -0.540658    30A     -0.499561
      31A     -0.498420    32A     -0.366005    33A     -0.332862

  @DF-RHF Final Energy:  -467.57045801805947

   => Energetics <=

    Nuclear Repulsion Energy =            419.2632299786732801
    One-Electron Energy =               -1473.0076987273580471
    Two-Electron Energy =                 586.1740107306253549
    Total Energy =                       -467.5704580180594121
  Basis Set: (AUG-CC-PVTZ AUX)
    Blend: AUG-CC-PVTZ-RI
    Molecular point group: c1

    Geometry (in Angstrom), charge = 0, multiplicity = 1:

       Center              X                  Y                   Z               Mass
    ------------   -----------------  -----------------  -----------------  -----------------
         F            1.302067173572     2.340733718170     0.002640472777    18.998403162730
         F            1.302073173572    -2.373075281830     0.002641472777    18.998403162730
         C           -1.470859826428    -0.016173281830    -0.016764527223    12.000000000000
         C           -0.763155826428    -1.224128281830    -0.008965527223    12.000000000000
         C           -0.662059026428     1.364344118170    -0.007850227223    12.000000000000
         C           -2.977057826428    -0.016175281830     0.012651472777    12.000000000000
         C            0.625540173572     1.164382718170     0.000768472777    12.000000000000
         C            0.625542173572    -1.196725281830     0.000767472777    12.000000000000
         C            1.357179173572    -0.016171281830     0.007313472777    12.000000000000
         H           -1.275551826428    -2.181989281830    -0.017951527223     1.007825032230
         H           -1.275555826428     2.149642718170    -0.017950527223     1.007825032230
         H           -3.348001826428    -0.016160281830     1.043078472777     1.007825032230
         H           -3.379140826428     0.869414718170    -0.486624527223     1.007825032230
         H           -3.379138826428    -0.901781281830    -0.486597527223     1.007825032230
         H            2.441274173572    -0.016170281830     0.010303472777     1.007825032230

  Basis Set: AUG-CC-PVTZ
    Blend: AUG-CC-PVTZ
  Basis Set: (AUG-CC-PVTZ AUX)
    Blend: AUG-CC-PVTZ-JKFIT
	 Reference Energy          =    -467.5704580180594689 [Eh]
	 Singles Energy            =      -0.0000000000000000 [Eh]
	 Same-Spin Energy          =      -0.4443318804733754 [Eh]
	 Opposite-Spin Energy      =      -1.3540378301767704 [Eh]
	 Correlation Energy        =      -1.7983697106501457 [Eh]
	 Total Energy              =    -469.3688277287096184 [Eh]

	 ================> DF-SCS-MP2 Energies <==================
	-----------------------------------------------------------
	 SCS Same-Spin Scale       =       0.3333333333333333 [-]
	 SCS Opposite-Spin Scale   =       1.2000000000000000 [-]
	 SCS Same-Spin Energy      =      -0.1481106268244584 [Eh]
	 SCS Opposite-Spin Energy  =      -1.6248453962121243 [Eh]
	 SCS Correlation Energy    =      -1.7729560230365828 [Eh]
	 SCS Total Energy          =    -469.3434140410960254 [Eh]
	-----------------------------------------------------------

  Dipole Moment: [D]
     X:    -2.2258      Y:    -0.2115      Z:     0.0376     Total:     2.2361

*** Psi4 exiting successfully. Buy a developer a beer!
