                               Psi4 1.4a3.dev225

  ==> Input File <==

--------------------------------------------------------------------------
#psi4
#
memory 32 gb

molecule  {
0 1
  F        1.4077440     2.3569060     0.0024490
  F        1.4077500    -2.3569030     0.0024500
  C       -1.3651830    -0.0000010    -0.0169560
  C       -0.6574790    -1.2079560    -0.0091570
  C       -0.6574810     1.2079540    -0.0091560
  C       -2.8713810    -0.0000030     0.0124600
  C        0.7312170     1.1805550     0.0005770
  C        0.9311752    -1.1766073     0.0019774
  C        1.4628560     0.0000010     0.0071220
  H       -1.1698750    -2.1658170    -0.0181430
  H       -1.1698790     2.1658150    -0.0181420
  H       -3.2423250     0.0000120     1.0428870
  H       -3.2734640     0.8855870    -0.4868160
  H       -3.2734620    -0.8856090    -0.4867890
  H        2.5469510     0.0000020     0.0101120
units angstrom
no_reorient  #important for SAPT in psi4, default
symmetry c1  #important for SAPT in psi4, default
}

set PROPERTIES_ORIGIN ["COM"]
properties('MP2/aug-cc-pvtz', properties = ['dipole'])
--------------------------------------------------------------------------

    Molecular point group: c1
  Charge       = 0
  Multiplicity = 1
  Basis Set: AUG-CC-PVTZ
    Blend: AUG-CC-PVTZ
  Basis Set: (AUG-CC-PVTZ AUX)
    Blend: AUG-CC-PVTZ-JKFIT

    Orbital Energies [Eh]
    ---------------------

    Doubly Occupied:

       1A    -26.345141     2A    -26.316989     3A    -11.352253
       4A    -11.345725     5A    -11.264962     6A    -11.251884
       7A    -11.242950     8A    -11.241225     9A    -11.236430
      10A     -1.687696    11A     -1.629508    12A     -1.170840
      13A     -1.080895    14A     -1.014008    15A     -0.950653
      16A     -0.879542    17A     -0.848305    18A     -0.771836
      19A     -0.758915    20A     -0.737952    21A     -0.705997
      22A     -0.697452    23A     -0.685457    24A     -0.666319
      25A     -0.604277    26A     -0.588621    27A     -0.586454
      28A     -0.554104    29A     -0.534515    30A     -0.496872
      31A     -0.484600    32A     -0.366095    33A     -0.322649

  @DF-RHF Final Energy:  -467.57026253994098

   => Energetics <=

    Nuclear Repulsion Energy =            420.1465133797708518
    One-Electron Energy =               -1474.5913051383963648
    Two-Electron Energy =                 586.8745292186845290
    Total Energy =                       -467.5702625399410408
  Basis Set: (AUG-CC-PVTZ AUX)
    Blend: AUG-CC-PVTZ-RI
    Molecular point group: c1

    Geometry (in Angstrom), charge = 0, multiplicity = 1:

       Center              X                  Y                   Z               Mass
    ------------   -----------------  -----------------  -----------------  -----------------
         F            1.292802459444     2.356536131775     0.002613566350    18.998403162730
         F            1.292808459444    -2.357272868225     0.002614566350    18.998403162730
         C           -1.480124540556    -0.000370868225    -0.016791433650    12.000000000000
         C           -0.772420540556    -1.208325868225    -0.008992433650    12.000000000000
         C           -0.772422540556     1.207584131775    -0.008991433650    12.000000000000
         C           -2.986322540556    -0.000372868225     0.012624566350    12.000000000000
         C            0.616275459444     1.180185131775     0.000741566350    12.000000000000
         C            0.816233659444    -1.176977168225     0.002141966350    12.000000000000
         C            1.347914459444    -0.000368868225     0.007286566350    12.000000000000
         H           -1.284816540556    -2.166186868225    -0.017978433650     1.007825032230
         H           -1.284820540556     2.165445131775    -0.017977433650     1.007825032230
         H           -3.357266540556    -0.000357868225     1.043051566350     1.007825032230
         H           -3.388405540556     0.885217131775    -0.486651433650     1.007825032230
         H           -3.388403540556    -0.885978868225    -0.486624433650     1.007825032230
         H            2.432009459444    -0.000367868225     0.010276566350     1.007825032230

  Basis Set: AUG-CC-PVTZ
    Blend: AUG-CC-PVTZ
  Basis Set: (AUG-CC-PVTZ AUX)
    Blend: AUG-CC-PVTZ-JKFIT
	 Reference Energy          =    -467.5702625399409840 [Eh]
	 Singles Energy            =      -0.0000000000000000 [Eh]
	 Same-Spin Energy          =      -0.4441789871832282 [Eh]
	 Opposite-Spin Energy      =      -1.3534669243276429 [Eh]
	 Correlation Energy        =      -1.7976459115108712 [Eh]
	 Total Energy              =    -469.3679084514518536 [Eh]

	 ================> DF-SCS-MP2 Energies <==================
	-----------------------------------------------------------
	 SCS Same-Spin Scale       =       0.3333333333333333 [-]
	 SCS Opposite-Spin Scale   =       1.2000000000000000 [-]
	 SCS Same-Spin Energy      =      -0.1480596623944094 [Eh]
	 SCS Opposite-Spin Energy  =      -1.6241603091931716 [Eh]
	 SCS Correlation Energy    =      -1.7722199715875810 [Eh]
	 SCS Total Energy          =    -469.3424825115285444 [Eh]
	-----------------------------------------------------------

  Dipole Moment: [D]
     X:    -1.4267      Y:    -0.4506      Z:     0.0365     Total:     1.4966

*** Psi4 exiting successfully. Buy a developer a beer!
