                               Psi4 1.4a3.dev225

  ==> Input File <==

--------------------------------------------------------------------------
#psi4
#
memory 32 gb

molecule  {
0 1
  F        1.4077440     2.3569060     0.0024490
  F        1.4077500    -2.3569030     0.0024500
  C       -1.3651830    -0.0000010    -0.0169560
  C       -0.6574790    -1.2079560    -0.0091570
  C       -0.6574810     1.2079540    -0.0091560
  C       -2.8713810    -0.0000030     0.0124600
  C        0.7312170     1.1805550     0.0005770
  C        0.7312190    -1.1805530     0.0005760
  C        1.4628560     0.0000010     0.0071220
  H       -1.1698750    -2.1658170    -0.0181430
  H       -1.1698790     2.1658150    -0.0181420
  H       -3.2592606     0.0000127     1.0899315
  H       -3.2734640     0.8855870    -0.4868160
  H       -3.2734620    -0.8856090    -0.4867890
  H        2.5469510     0.0000020     0.0101120
units angstrom
no_reorient  #important for SAPT in psi4, default
symmetry c1  #important for SAPT in psi4, default
}

set PROPERTIES_ORIGIN ["COM"]
properties('MP2/aug-cc-pvtz', properties = ['dipole'])
--------------------------------------------------------------------------

    Molecular point group: c1
  Charge       = 0
  Multiplicity = 1
  Basis Set: AUG-CC-PVTZ
    Blend: AUG-CC-PVTZ
  Basis Set: (AUG-CC-PVTZ AUX)
    Blend: AUG-CC-PVTZ-JKFIT

    Orbital Energies [Eh]
    ---------------------

    Doubly Occupied:

       1A    -26.317180     2A    -26.317180     3A    -11.346149
       4A    -11.346144     5A    -11.274795     6A    -11.251742
       7A    -11.247648     8A    -11.246648     9A    -11.246610
      10A     -1.630490    11A     -1.629942    12A     -1.179860
      13A     -1.069890    14A     -1.032643    15A     -0.960396
      16A     -0.863158    17A     -0.843174    18A     -0.754007
      19A     -0.740980    20A     -0.702283    21A     -0.698592
      22A     -0.694381    23A     -0.687333    24A     -0.662657
      25A     -0.603461    26A     -0.597834    27A     -0.584617
      28A     -0.556445    29A     -0.540673    30A     -0.524152
      31A     -0.501612    32A     -0.349744    33A     -0.349664

  @DF-RHF Final Energy:  -467.60970758288693

   => Energetics <=

    Nuclear Repulsion Energy =            420.2945817147289063
    One-Electron Energy =               -1475.1044094797475736
    Two-Electron Energy =                 587.2001201821318546
    Total Energy =                       -467.6097075828869265
  Basis Set: (AUG-CC-PVTZ AUX)
    Blend: AUG-CC-PVTZ-RI
    Molecular point group: c1

    Geometry (in Angstrom), charge = 0, multiplicity = 1:

       Center              X                  Y                   Z               Mass
    ------------   -----------------  -----------------  -----------------  -----------------
         F            1.311675246273     2.356905909231     0.002374618153    18.998403162730
         F            1.311681246273    -2.356903090769     0.002375618153    18.998403162730
         C           -1.461251753727    -0.000001090769    -0.017030381847    12.000000000000
         C           -0.753547753727    -1.207956090769    -0.009231381847    12.000000000000
         C           -0.753549753727     1.207953909231    -0.009230381847    12.000000000000
         C           -2.967449753727    -0.000003090769     0.012385618153    12.000000000000
         C            0.635148246273     1.180554909231     0.000502618153    12.000000000000
         C            0.635150246273    -1.180553090769     0.000501618153    12.000000000000
         C            1.366787246273     0.000000909231     0.007047618153    12.000000000000
         H           -1.265943753727    -2.165817090769    -0.018217381847     1.007825032230
         H           -1.265947753727     2.165814909231    -0.018216381847     1.007825032230
         H           -3.355329353727     0.000012609231     1.089857118153     1.007825032230
         H           -3.369532753727     0.885586909231    -0.486890381847     1.007825032230
         H           -3.369530753727    -0.885609090769    -0.486863381847     1.007825032230
         H            2.450882246273     0.000001909231     0.010037618153     1.007825032230

  Basis Set: AUG-CC-PVTZ
    Blend: AUG-CC-PVTZ
  Basis Set: (AUG-CC-PVTZ AUX)
    Blend: AUG-CC-PVTZ-JKFIT
	 Reference Energy          =    -467.6097075828869265 [Eh]
	 Singles Energy            =      -0.0000000000000000 [Eh]
	 Same-Spin Energy          =      -0.4450677723000903 [Eh]
	 Opposite-Spin Energy      =      -1.3531061996100311 [Eh]
	 Correlation Energy        =      -1.7981739719101213 [Eh]
	 Total Energy              =    -469.4078815547970294 [Eh]

	 ================> DF-SCS-MP2 Energies <==================
	-----------------------------------------------------------
	 SCS Same-Spin Scale       =       0.3333333333333333 [-]
	 SCS Opposite-Spin Scale   =       1.2000000000000000 [-]
	 SCS Same-Spin Energy      =      -0.1483559241000301 [Eh]
	 SCS Opposite-Spin Energy  =      -1.6237274395320374 [Eh]
	 SCS Correlation Energy    =      -1.7720833636320674 [Eh]
	 SCS Total Energy          =    -469.3817909465190041 [Eh]
	-----------------------------------------------------------

  Dipole Moment: [D]
     X:    -2.0259      Y:     0.0000      Z:     0.0175     Total:     2.0260

*** Psi4 exiting successfully. Buy a developer a beer!
