                               Psi4 1.4a3.dev225

  ==> Input File <==

--------------------------------------------------------------------------
#psi4
#
memory 32 gb

molecule  {
0 1
  F        1.4281707     2.3449198     0.0025931
  F        1.4077500    -2.3569030     0.0024500
  C       -1.3651830    -0.0000010    -0.0169560
  C       -0.6574790    -1.2079560    -0.0091570
  C       -0.6574810     1.2079540    -0.0091560
  C       -2.8713810    -0.0000030     0.0124600
  C        0.7312170     1.1805550     0.0005770
  C        0.7312190    -1.1805530     0.0005760
  C        1.4628560     0.0000010     0.0071220
  H       -1.1698750    -2.1658170    -0.0181430
  H       -1.1698790     2.1658150    -0.0181420
  H       -3.2423250     0.0000120     1.0428870
  H       -3.2734640     0.8855870    -0.4868160
  H       -3.2734620    -0.8856090    -0.4867890
  H        2.5469510     0.0000020     0.0101120
units angstrom
no_reorient  #important for SAPT in psi4, default
symmetry c1  #important for SAPT in psi4, default
}

set PROPERTIES_ORIGIN ["COM"]
properties('MP2/aug-cc-pvtz', properties = ['dipole'])
--------------------------------------------------------------------------

    Molecular point group: c1
  Charge       = 0
  Multiplicity = 1
  Basis Set: AUG-CC-PVTZ
    Blend: AUG-CC-PVTZ
  Basis Set: (AUG-CC-PVTZ AUX)
    Blend: AUG-CC-PVTZ-JKFIT

    Orbital Energies [Eh]
    ---------------------

    Doubly Occupied:

       1A    -26.317054     2A    -26.316892     3A    -11.346007
       4A    -11.345778     5A    -11.274678     6A    -11.250965
       7A    -11.246960     8A    -11.246407     9A    -11.241954
      10A     -1.630324    11A     -1.629742    12A     -1.179763
      13A     -1.070536    14A     -1.032523    15A     -0.963213
      16A     -0.863210    17A     -0.843816    18A     -0.754556
      19A     -0.740677    20A     -0.702113    21A     -0.698317
      22A     -0.694172    23A     -0.687222    24A     -0.662628
      25A     -0.603156    26A     -0.598313    27A     -0.592787
      28A     -0.555628    29A     -0.540441    30A     -0.524654
      31A     -0.502920    32A     -0.349908    33A     -0.349639

  @DF-RHF Final Energy:  -467.61172486985959

   => Energetics <=

    Nuclear Repulsion Energy =            420.5104134187147338
    One-Electron Energy =               -1475.5303705530836851
    Two-Electron Energy =                 587.4082322645093655
    Total Energy =                       -467.6117248698595859
  Basis Set: (AUG-CC-PVTZ AUX)
    Blend: AUG-CC-PVTZ-RI
    Molecular point group: c1

    Geometry (in Angstrom), charge = 0, multiplicity = 1:

       Center              X                  Y                   Z               Mass
    ------------   -----------------  -----------------  -----------------  -----------------
         F            1.328937849760     2.346698158814     0.002867621965    18.998403162730
         F            1.308517149760    -2.355124641186     0.002724521965    18.998403162730
         C           -1.464415850240     0.001777358814    -0.016681478035    12.000000000000
         C           -0.756711850240    -1.206177641186    -0.008882478035    12.000000000000
         C           -0.756713850240     1.209732358814    -0.008881478035    12.000000000000
         C           -2.970613850240     0.001775358814     0.012734521965    12.000000000000
         C            0.631984149760     1.182333358814     0.000851521965    12.000000000000
         C            0.631986149760    -1.178774641186     0.000850521965    12.000000000000
         C            1.363623149760     0.001779358814     0.007396521965    12.000000000000
         H           -1.269107850240    -2.164038641186    -0.017868478035     1.007825032230
         H           -1.269111850240     2.167593358814    -0.017867478035     1.007825032230
         H           -3.341557850240     0.001790358814     1.043161521965     1.007825032230
         H           -3.372696850240     0.887365358814    -0.486541478035     1.007825032230
         H           -3.372694850240    -0.883830641186    -0.486514478035     1.007825032230
         H            2.447718149760     0.001780358814     0.010386521965     1.007825032230

  Basis Set: AUG-CC-PVTZ
    Blend: AUG-CC-PVTZ
  Basis Set: (AUG-CC-PVTZ AUX)
    Blend: AUG-CC-PVTZ-JKFIT
	 Reference Energy          =    -467.6117248698595859 [Eh]
	 Singles Energy            =      -0.0000000000000000 [Eh]
	 Same-Spin Energy          =      -0.4450710784393125 [Eh]
	 Opposite-Spin Energy      =      -1.3527872373995469 [Eh]
	 Correlation Energy        =      -1.7978583158388592 [Eh]
	 Total Energy              =    -469.4095831856984660 [Eh]

	 ================> DF-SCS-MP2 Energies <==================
	-----------------------------------------------------------
	 SCS Same-Spin Scale       =       0.3333333333333333 [-]
	 SCS Opposite-Spin Scale   =       1.2000000000000000 [-]
	 SCS Same-Spin Energy      =      -0.1483570261464375 [Eh]
	 SCS Opposite-Spin Energy  =      -1.6233446848794562 [Eh]
	 SCS Correlation Energy    =      -1.7717017110258937 [Eh]
	 SCS Total Energy          =    -469.3834265808854980 [Eh]
	-----------------------------------------------------------

  Dipole Moment: [D]
     X:    -2.0663      Y:     0.0106      Z:     0.0334     Total:     2.0666

*** Psi4 exiting successfully. Buy a developer a beer!
