                               Psi4 1.4a3.dev225

  ==> Input File <==

--------------------------------------------------------------------------
#psi4
#
memory 32 gb

molecule  {
0 1
  F        1.4077440     2.3569060     0.0024490
  F        1.4077500    -2.3569030     0.0024500
  C       -1.3651830    -0.0000010    -0.0169560
  C       -0.6675889    -1.1906998    -0.0092684
  C       -0.6574810     1.2079540    -0.0091560
  C       -2.8713810    -0.0000030     0.0124600
  C        0.7312170     1.1805550     0.0005770
  C        0.7312190    -1.1805530     0.0005760
  C        1.4628560     0.0000010     0.0071220
  H       -1.1698750    -2.1658170    -0.0181430
  H       -1.1698790     2.1658150    -0.0181420
  H       -3.2423250     0.0000120     1.0428870
  H       -3.2734640     0.8855870    -0.4868160
  H       -3.2734620    -0.8856090    -0.4867890
  H        2.5469510     0.0000020     0.0101120
units angstrom
no_reorient  #important for SAPT in psi4, default
symmetry c1  #important for SAPT in psi4, default
}

set PROPERTIES_ORIGIN ["COM"]
properties('MP2/aug-cc-pvtz', properties = ['dipole'])
--------------------------------------------------------------------------

    Molecular point group: c1
  Charge       = 0
  Multiplicity = 1
  Basis Set: AUG-CC-PVTZ
    Blend: AUG-CC-PVTZ
  Basis Set: (AUG-CC-PVTZ AUX)
    Blend: AUG-CC-PVTZ-JKFIT

    Orbital Energies [Eh]
    ---------------------

    Doubly Occupied:

       1A    -26.318588     2A    -26.316842     3A    -11.347334
       4A    -11.345630     5A    -11.271754     6A    -11.251765
       7A    -11.246589     8A    -11.246137     9A    -11.241404
      10A     -1.631136    11A     -1.629833    12A     -1.181031
      13A     -1.071820    14A     -1.031109    15A     -0.962929
      16A     -0.863779    17A     -0.844264    18A     -0.755066
      19A     -0.741306    20A     -0.702531    21A     -0.697497
      22A     -0.694595    23A     -0.686954    24A     -0.662790
      25A     -0.603552    26A     -0.598849    27A     -0.592872
      28A     -0.554240    29A     -0.541765    30A     -0.522049
      31A     -0.503465    32A     -0.352360    33A     -0.348008

  @DF-RHF Final Energy:  -467.61119776386937

   => Energetics <=

    Nuclear Repulsion Energy =            420.6584860175140648
    One-Electron Energy =               -1475.8196860304822167
    Two-Electron Energy =                 587.5500022490987249
    Total Energy =                       -467.6111977638693133
  Basis Set: (AUG-CC-PVTZ AUX)
    Blend: AUG-CC-PVTZ-RI
    Molecular point group: c1

    Geometry (in Angstrom), charge = 0, multiplicity = 1:

       Center              X                  Y                   Z               Mass
    ------------   -----------------  -----------------  -----------------  -----------------
         F            1.312489426372     2.355288698832     0.002755342884    18.998403162730
         F            1.312495426372    -2.358520301168     0.002756342884    18.998403162730
         C           -1.460437573628    -0.001618301168    -0.016649657116    12.000000000000
         C           -0.762843473628    -1.192317101168    -0.008962057116    12.000000000000
         C           -0.752735573628     1.206336698832    -0.008849657116    12.000000000000
         C           -2.966635573628    -0.001620301168     0.012766342884    12.000000000000
         C            0.635962426372     1.178937698832     0.000883342884    12.000000000000
         C            0.635964426372    -1.182170301168     0.000882342884    12.000000000000
         C            1.367601426372    -0.001616301168     0.007428342884    12.000000000000
         H           -1.265129573628    -2.167434301168    -0.017836657116     1.007825032230
         H           -1.265133573628     2.164197698832    -0.017835657116     1.007825032230
         H           -3.337579573628    -0.001605301168     1.043193342884     1.007825032230
         H           -3.368718573628     0.883969698832    -0.486509657116     1.007825032230
         H           -3.368716573628    -0.887226301168    -0.486482657116     1.007825032230
         H            2.451696426372    -0.001615301168     0.010418342884     1.007825032230

  Basis Set: AUG-CC-PVTZ
    Blend: AUG-CC-PVTZ
  Basis Set: (AUG-CC-PVTZ AUX)
    Blend: AUG-CC-PVTZ-JKFIT
	 Reference Energy          =    -467.6111977638693702 [Eh]
	 Singles Energy            =      -0.0000000000000000 [Eh]
	 Same-Spin Energy          =      -0.4451228326216607 [Eh]
	 Opposite-Spin Energy      =      -1.3528778365957863 [Eh]
	 Correlation Energy        =      -1.7980006692174471 [Eh]
	 Total Energy              =    -469.4091984330868286 [Eh]

	 ================> DF-SCS-MP2 Energies <==================
	-----------------------------------------------------------
	 SCS Same-Spin Scale       =       0.3333333333333333 [-]
	 SCS Opposite-Spin Scale   =       1.2000000000000000 [-]
	 SCS Same-Spin Energy      =      -0.1483742775405536 [Eh]
	 SCS Opposite-Spin Energy  =      -1.6234534039149435 [Eh]
	 SCS Correlation Energy    =      -1.7718276814554972 [Eh]
	 SCS Total Energy          =    -469.3830254453248472 [Eh]
	-----------------------------------------------------------

  Dipole Moment: [D]
     X:    -2.0249      Y:    -0.0190      Z:     0.0331     Total:     2.0253

*** Psi4 exiting successfully. Buy a developer a beer!
