                               Psi4 1.4a3.dev225

  ==> Input File <==

--------------------------------------------------------------------------
#psi4
#
memory 32 gb

molecule  {
0 1
  F        1.4077440     2.3569060     0.0024490
  F        1.4077500    -2.3569030     0.0024500
  C       -1.3651830    -0.0000010    -0.0169560
  C       -0.5749454    -1.1556435    -0.0082474
  C       -0.6574810     1.2079540    -0.0091560
  C       -2.8713810    -0.0000030     0.0124600
  C        0.7312170     1.1805550     0.0005770
  C        0.7312190    -1.1805530     0.0005760
  C        1.4628560     0.0000010     0.0071220
  H       -1.1698750    -2.1658170    -0.0181430
  H       -1.1698790     2.1658150    -0.0181420
  H       -3.2423250     0.0000120     1.0428870
  H       -3.2734640     0.8855870    -0.4868160
  H       -3.2734620    -0.8856090    -0.4867890
  H        2.5469510     0.0000020     0.0101120
units angstrom
no_reorient  #important for SAPT in psi4, default
symmetry c1  #important for SAPT in psi4, default
}

set PROPERTIES_ORIGIN ["COM"]
properties('MP2/aug-cc-pvtz', properties = ['dipole'])
--------------------------------------------------------------------------

    Molecular point group: c1
  Charge       = 0
  Multiplicity = 1
  Basis Set: AUG-CC-PVTZ
    Blend: AUG-CC-PVTZ
  Basis Set: (AUG-CC-PVTZ AUX)
    Blend: AUG-CC-PVTZ-JKFIT

    Orbital Energies [Eh]
    ---------------------

    Doubly Occupied:

       1A    -26.315946     2A    -26.315499     3A    -11.343355
       4A    -11.334293     5A    -11.275385     6A    -11.250677
       7A    -11.247344     8A    -11.245337     9A    -11.244143
      10A     -1.629118    11A     -1.628477    12A     -1.188834
      13A     -1.070980    14A     -1.040644    15A     -0.966023
      16A     -0.857420    17A     -0.850569    18A     -0.758311
      19A     -0.740735    20A     -0.702261    21A     -0.693886
      22A     -0.693740    23A     -0.687473    24A     -0.658344
      25A     -0.601150    26A     -0.597169    27A     -0.594459
      28A     -0.554045    29A     -0.537637    30A     -0.518442
      31A     -0.509758    32A     -0.358827    33A     -0.346967

  @DF-RHF Final Energy:  -467.59934220187273

   => Energetics <=

    Nuclear Repulsion Energy =            422.0944727265238612
    One-Electron Energy =               -1478.6731377967753360
    Two-Electron Energy =                 588.9793228683786310
    Total Energy =                       -467.5993422018727870
  Basis Set: (AUG-CC-PVTZ AUX)
    Blend: AUG-CC-PVTZ-RI
    Molecular point group: c1

    Geometry (in Angstrom), charge = 0, multiplicity = 1:

       Center              X                  Y                   Z               Mass
    ------------   -----------------  -----------------  -----------------  -----------------
         F            1.303807066293     2.352003293816     0.002659656844    18.998403162730
         F            1.303813066293    -2.361805706184     0.002660656844    18.998403162730
         C           -1.469119933707    -0.004903706184    -0.016745343156    12.000000000000
         C           -0.678882333707    -1.160546206184    -0.008036743156    12.000000000000
         C           -0.761417933707     1.203051293816    -0.008945343156    12.000000000000
         C           -2.975317933707    -0.004905706184     0.012670656844    12.000000000000
         C            0.627280066293     1.175652293816     0.000787656844    12.000000000000
         C            0.627282066293    -1.185455706184     0.000786656844    12.000000000000
         C            1.358919066293    -0.004901706184     0.007332656844    12.000000000000
         H           -1.273811933707    -2.170719706184    -0.017932343156     1.007825032230
         H           -1.273815933707     2.160912293816    -0.017931343156     1.007825032230
         H           -3.346261933707    -0.004890706184     1.043097656844     1.007825032230
         H           -3.377400933707     0.880684293816    -0.486605343156     1.007825032230
         H           -3.377398933707    -0.890511706184    -0.486578343156     1.007825032230
         H            2.443014066293    -0.004900706184     0.010322656844     1.007825032230

  Basis Set: AUG-CC-PVTZ
    Blend: AUG-CC-PVTZ
  Basis Set: (AUG-CC-PVTZ AUX)
    Blend: AUG-CC-PVTZ-JKFIT
	 Reference Energy          =    -467.5993422018727301 [Eh]
	 Singles Energy            =      -0.0000000000000000 [Eh]
	 Same-Spin Energy          =      -0.4454089103099788 [Eh]
	 Opposite-Spin Energy      =      -1.3530793934076772 [Eh]
	 Correlation Energy        =      -1.7984883037176560 [Eh]
	 Total Energy              =    -469.3978305055903775 [Eh]

	 ================> DF-SCS-MP2 Energies <==================
	-----------------------------------------------------------
	 SCS Same-Spin Scale       =       0.3333333333333333 [-]
	 SCS Opposite-Spin Scale   =       1.2000000000000000 [-]
	 SCS Same-Spin Energy      =      -0.1484696367699929 [Eh]
	 SCS Opposite-Spin Energy  =      -1.6236952720892126 [Eh]
	 SCS Correlation Energy    =      -1.7721649088592055 [Eh]
	 SCS Total Energy          =    -469.3715071107319545 [Eh]
	-----------------------------------------------------------

  Dipole Moment: [D]
     X:    -2.1650      Y:     0.0750      Z:     0.0339     Total:     2.1666

*** Psi4 exiting successfully. Buy a developer a beer!
