                               Psi4 1.4a3.dev225

  ==> Input File <==

--------------------------------------------------------------------------
#psi4
#
memory 32 gb

molecule  {
0 1
  F        1.4077440     2.3569060     0.0024490
  F        1.4077500    -2.3569030     0.0024500
  C       -1.2350548    -0.0673627    -0.0149944
  C       -0.6574790    -1.2079560    -0.0091570
  C       -0.6574810     1.2079540    -0.0091560
  C       -2.8713810    -0.0000030     0.0124600
  C        0.7312170     1.1805550     0.0005770
  C        0.7312190    -1.1805530     0.0005760
  C        1.4628560     0.0000010     0.0071220
  H       -1.1698750    -2.1658170    -0.0181430
  H       -1.1698790     2.1658150    -0.0181420
  H       -3.2423250     0.0000120     1.0428870
  H       -3.2734640     0.8855870    -0.4868160
  H       -3.2734620    -0.8856090    -0.4867890
  H        2.5469510     0.0000020     0.0101120
units angstrom
no_reorient  #important for SAPT in psi4, default
symmetry c1  #important for SAPT in psi4, default
}

set PROPERTIES_ORIGIN ["COM"]
properties('MP2/aug-cc-pvtz', properties = ['dipole'])
--------------------------------------------------------------------------

    Molecular point group: c1
  Charge       = 0
  Multiplicity = 1
  Basis Set: AUG-CC-PVTZ
    Blend: AUG-CC-PVTZ
  Basis Set: (AUG-CC-PVTZ AUX)
    Blend: AUG-CC-PVTZ-JKFIT

    Orbital Energies [Eh]
    ---------------------

    Doubly Occupied:

       1A    -26.318891     2A    -26.315948     3A    -11.349039
       4A    -11.345307     5A    -11.264701     6A    -11.251299
       7A    -11.246177     8A    -11.242736     9A    -11.236051
      10A     -1.632198    11A     -1.629479    12A     -1.194916
      13A     -1.065497    14A     -1.039235    15A     -0.950565
      16A     -0.871447    17A     -0.845623    18A     -0.754841
      19A     -0.743356    20A     -0.705703    21A     -0.703194
      22A     -0.694456    23A     -0.685306    24A     -0.661697
      25A     -0.607454    26A     -0.592284    27A     -0.582234
      28A     -0.569424    29A     -0.548924    30A     -0.513879
      31A     -0.480333    32A     -0.367658    33A     -0.347159

  @DF-RHF Final Energy:  -467.58728969396736

   => Energetics <=

    Nuclear Repulsion Energy =            422.1337296578771543
    One-Electron Energy =               -1478.7280158421590386
    Two-Electron Energy =                 589.0069964903144637
    Total Energy =                       -467.5872896939673637
  Basis Set: (AUG-CC-PVTZ AUX)
    Blend: AUG-CC-PVTZ-RI
    Molecular point group: c1

    Geometry (in Angstrom), charge = 0, multiplicity = 1:

       Center              X                  Y                   Z               Mass
    ------------   -----------------  -----------------  -----------------  -----------------
         F            1.299346597345     2.363218916030     0.002561065547    18.998403162730
         F            1.299352597345    -2.350590083970     0.002562065547    18.998403162730
         C           -1.343452202655    -0.061049783970    -0.014882334453    12.000000000000
         C           -0.765876402655    -1.201643083970    -0.009044934453    12.000000000000
         C           -0.765878402655     1.214266916030    -0.009043934453    12.000000000000
         C           -2.979778402655     0.006309916030     0.012572065547    12.000000000000
         C            0.622819597345     1.186867916030     0.000689065547    12.000000000000
         C            0.622821597345    -1.174240083970     0.000688065547    12.000000000000
         C            1.354458597345     0.006313916030     0.007234065547    12.000000000000
         H           -1.278272402655    -2.159504083970    -0.018030934453     1.007825032230
         H           -1.278276402655     2.172127916030    -0.018029934453     1.007825032230
         H           -3.350722402655     0.006324916030     1.042999065547     1.007825032230
         H           -3.381861402655     0.891899916030    -0.486703934453     1.007825032230
         H           -3.381859402655    -0.879296083970    -0.486676934453     1.007825032230
         H            2.438553597345     0.006314916030     0.010224065547     1.007825032230

  Basis Set: AUG-CC-PVTZ
    Blend: AUG-CC-PVTZ
  Basis Set: (AUG-CC-PVTZ AUX)
    Blend: AUG-CC-PVTZ-JKFIT
	 Reference Energy          =    -467.5872896939673637 [Eh]
	 Singles Energy            =      -0.0000000000000000 [Eh]
	 Same-Spin Energy          =      -0.4446587202498394 [Eh]
	 Opposite-Spin Energy      =      -1.3527973343721154 [Eh]
	 Correlation Energy        =      -1.7974560546219547 [Eh]
	 Total Energy              =    -469.3847457485892960 [Eh]

	 ================> DF-SCS-MP2 Energies <==================
	-----------------------------------------------------------
	 SCS Same-Spin Scale       =       0.3333333333333333 [-]
	 SCS Opposite-Spin Scale   =       1.2000000000000000 [-]
	 SCS Same-Spin Energy      =      -0.1482195734166131 [Eh]
	 SCS Opposite-Spin Energy  =      -1.6233568012465385 [Eh]
	 SCS Correlation Energy    =      -1.7715763746631517 [Eh]
	 SCS Total Energy          =    -469.3588660686305047 [Eh]
	-----------------------------------------------------------

  Dipole Moment: [D]
     X:    -1.8270      Y:    -0.0563      Z:     0.0211     Total:     1.8279

*** Psi4 exiting successfully. Buy a developer a beer!
