                               Psi4 1.4a3.dev225

  ==> Input File <==

--------------------------------------------------------------------------
#psi4
#
memory 32 gb

molecule  {
0 1
  F        1.4077440     2.3569060     0.0024490
  F        1.4077500    -2.3569030     0.0024500
  C       -1.3439959    -0.0121688    -0.0166344
  C       -0.6574790    -1.2079560    -0.0091570
  C       -0.6574810     1.2079540    -0.0091560
  C       -2.8713810    -0.0000030     0.0124600
  C        0.7312170     1.1805550     0.0005770
  C        0.7312190    -1.1805530     0.0005760
  C        1.4628560     0.0000010     0.0071220
  H       -1.1698750    -2.1658170    -0.0181430
  H       -1.1698790     2.1658150    -0.0181420
  H       -3.2423250     0.0000120     1.0428870
  H       -3.2734640     0.8855870    -0.4868160
  H       -3.2734620    -0.8856090    -0.4867890
  H        2.5469510     0.0000020     0.0101120
units angstrom
no_reorient  #important for SAPT in psi4, default
symmetry c1  #important for SAPT in psi4, default
}

set PROPERTIES_ORIGIN ["COM"]
properties('MP2/aug-cc-pvtz', properties = ['dipole'])
--------------------------------------------------------------------------

    Molecular point group: c1
  Charge       = 0
  Multiplicity = 1
  Basis Set: AUG-CC-PVTZ
    Blend: AUG-CC-PVTZ
  Basis Set: (AUG-CC-PVTZ AUX)
    Blend: AUG-CC-PVTZ-JKFIT

    Orbital Energies [Eh]
    ---------------------

    Doubly Occupied:

       1A    -26.317396     2A    -26.316887     3A    -11.346508
       4A    -11.345855     5A    -11.272745     6A    -11.251521
       7A    -11.246220     8A    -11.244781     9A    -11.242101
      10A     -1.630596    11A     -1.629881    12A     -1.181791
      13A     -1.068627    14A     -1.033871    15A     -0.961266
      16A     -0.864125    17A     -0.844710    18A     -0.754215
      19A     -0.741561    20A     -0.702321    21A     -0.699571
      22A     -0.694341    23A     -0.686907    24A     -0.662370
      25A     -0.603190    26A     -0.596757    27A     -0.590636
      28A     -0.556735    29A     -0.544238    30A     -0.518293
      31A     -0.504560    32A     -0.352817    33A     -0.349172

  @DF-RHF Final Energy:  -467.61159379725922

   => Energetics <=

    Nuclear Repulsion Energy =            420.7506143994410195
    One-Electron Energy =               -1476.0112817013025506
    Two-Electron Energy =                 587.6490735046022564
    Total Energy =                       -467.6115937972592747
  Basis Set: (AUG-CC-PVTZ AUX)
    Blend: AUG-CC-PVTZ-RI
    Molecular point group: c1

    Geometry (in Angstrom), charge = 0, multiplicity = 1:

       Center              X                  Y                   Z               Mass
    ------------   -----------------  -----------------  -----------------  -----------------
         F            1.309556335293     2.358046256167     0.002714763006    18.998403162730
         F            1.309562335293    -2.355762743833     0.002715763006    18.998403162730
         C           -1.442183564707    -0.011028543833    -0.016368636994    12.000000000000
         C           -0.755666664707    -1.206815743833    -0.008891236994    12.000000000000
         C           -0.755668664707     1.209094256167    -0.008890236994    12.000000000000
         C           -2.969568664707     0.001137256167     0.012725763006    12.000000000000
         C            0.633029335293     1.181695256167     0.000842763006    12.000000000000
         C            0.633031335293    -1.179412743833     0.000841763006    12.000000000000
         C            1.364668335293     0.001141256167     0.007387763006    12.000000000000
         H           -1.268062664707    -2.164676743833    -0.017877236994     1.007825032230
         H           -1.268066664707     2.166955256167    -0.017876236994     1.007825032230
         H           -3.340512664707     0.001152256167     1.043152763006     1.007825032230
         H           -3.371651664707     0.886727256167    -0.486550236994     1.007825032230
         H           -3.371649664707    -0.884468743833    -0.486523236994     1.007825032230
         H            2.448763335293     0.001142256167     0.010377763006     1.007825032230

  Basis Set: AUG-CC-PVTZ
    Blend: AUG-CC-PVTZ
  Basis Set: (AUG-CC-PVTZ AUX)
    Blend: AUG-CC-PVTZ-JKFIT
	 Reference Energy          =    -467.6115937972592178 [Eh]
	 Singles Energy            =      -0.0000000000000000 [Eh]
	 Same-Spin Energy          =      -0.4449019337224333 [Eh]
	 Opposite-Spin Energy      =      -1.3525476942681074 [Eh]
	 Correlation Energy        =      -1.7974496279905408 [Eh]
	 Total Energy              =    -469.4090434252497630 [Eh]

	 ================> DF-SCS-MP2 Energies <==================
	-----------------------------------------------------------
	 SCS Same-Spin Scale       =       0.3333333333333333 [-]
	 SCS Opposite-Spin Scale   =       1.2000000000000000 [-]
	 SCS Same-Spin Energy      =      -0.1483006445741444 [Eh]
	 SCS Opposite-Spin Energy  =      -1.6230572331217288 [Eh]
	 SCS Correlation Energy    =      -1.7713578776958732 [Eh]
	 SCS Total Energy          =    -469.3829516749551090 [Eh]
	-----------------------------------------------------------

  Dipole Moment: [D]
     X:    -2.0083      Y:    -0.0093      Z:     0.0313     Total:     2.0085

*** Psi4 exiting successfully. Buy a developer a beer!
