                               Psi4 1.4a3.dev225

  ==> Input File <==

--------------------------------------------------------------------------
#psi4
#
memory 32 gb

molecule  {
0 1
  F        1.4077440     2.3569060     0.0024490
  F        1.4077500    -2.3569030     0.0024500
  C       -1.3651830    -0.0000010    -0.0169560
  C       -0.6574790    -1.2079560    -0.0091570
  C       -0.6574810     1.2079540    -0.0091560
  C       -2.8713810    -0.0000030     0.0124600
  C        0.7312170     1.1805550     0.0005770
  C        0.7312190    -1.1805530     0.0005760
  C        1.4628560     0.0000010     0.0071220
  H       -1.1698750    -2.1658170    -0.0181430
  H       -1.1698790     2.1658150    -0.0181420
  H       -3.2423250     0.0000120     1.0428870
  H       -3.2734640     0.8855870    -0.4868160
  H       -3.2734620    -0.8856090    -0.4867890
  H        2.3469518     0.0000018     0.0095604
units angstrom
no_reorient  #important for SAPT in psi4, default
symmetry c1  #important for SAPT in psi4, default
}

set PROPERTIES_ORIGIN ["COM"]
properties('MP2/aug-cc-pvtz', properties = ['dipole'])
--------------------------------------------------------------------------

    Molecular point group: c1
  Charge       = 0
  Multiplicity = 1
  Basis Set: AUG-CC-PVTZ
    Blend: AUG-CC-PVTZ
  Basis Set: (AUG-CC-PVTZ AUX)
    Blend: AUG-CC-PVTZ-JKFIT

    Orbital Energies [Eh]
    ---------------------

    Doubly Occupied:

       1A    -26.317649     2A    -26.317649     3A    -11.345461
       4A    -11.345457     5A    -11.274651     6A    -11.245777
       7A    -11.245741     8A    -11.241850     9A    -11.229520
      10A     -1.630990    11A     -1.630410    12A     -1.180902
      13A     -1.077442    14A     -1.032051    15A     -0.971532
      16A     -0.862949    17A     -0.851458    18A     -0.761210
      19A     -0.741063    20A     -0.727751    21A     -0.702617
      22A     -0.694790    23A     -0.686934    24A     -0.665784
      25A     -0.614199    26A     -0.603088    27A     -0.592852
      28A     -0.555952    29A     -0.540136    30A     -0.527392
      31A     -0.502727    32A     -0.350322    33A     -0.349130

  @DF-RHF Final Energy:  -467.57610192438619

   => Energetics <=

    Nuclear Repulsion Energy =            421.7175897985160873
    One-Electron Energy =               -1477.7525096619947362
    Two-Electron Energy =                 588.4588179390923415
    Total Energy =                       -467.5761019243861938
  Basis Set: (AUG-CC-PVTZ AUX)
    Blend: AUG-CC-PVTZ-RI
    Molecular point group: c1

    Geometry (in Angstrom), charge = 0, multiplicity = 1:

       Center              X                  Y                   Z               Mass
    ------------   -----------------  -----------------  -----------------  -----------------
         F            1.313116129324     2.356905916315     0.002749244314    18.998403162730
         F            1.313122129324    -2.356903083685     0.002750244314    18.998403162730
         C           -1.459810870676    -0.000001083685    -0.016655755686    12.000000000000
         C           -0.752106870676    -1.207956083685    -0.008856755686    12.000000000000
         C           -0.752108870676     1.207953916315    -0.008855755686    12.000000000000
         C           -2.966008870676    -0.000003083685     0.012760244314    12.000000000000
         C            0.636589129324     1.180554916315     0.000877244314    12.000000000000
         C            0.636591129324    -1.180553083685     0.000876244314    12.000000000000
         C            1.368228129324     0.000000916315     0.007422244314    12.000000000000
         H           -1.264502870676    -2.165817083685    -0.017842755686     1.007825032230
         H           -1.264506870676     2.165814916315    -0.017841755686     1.007825032230
         H           -3.336952870676     0.000011916315     1.043187244314     1.007825032230
         H           -3.368091870676     0.885586916315    -0.486515755686     1.007825032230
         H           -3.368089870676    -0.885609083685    -0.486488755686     1.007825032230
         H            2.252323929324     0.000001716315     0.009860644314     1.007825032230

  Basis Set: AUG-CC-PVTZ
    Blend: AUG-CC-PVTZ
  Basis Set: (AUG-CC-PVTZ AUX)
    Blend: AUG-CC-PVTZ-JKFIT
	 Reference Energy          =    -467.5761019243861938 [Eh]
	 Singles Energy            =      -0.0000000000000000 [Eh]
	 Same-Spin Energy          =      -0.4448145144824038 [Eh]
	 Opposite-Spin Energy      =      -1.3524157263801651 [Eh]
	 Correlation Energy        =      -1.7972302408625689 [Eh]
	 Total Energy              =    -469.3733321652487689 [Eh]

	 ================> DF-SCS-MP2 Energies <==================
	-----------------------------------------------------------
	 SCS Same-Spin Scale       =       0.3333333333333333 [-]
	 SCS Opposite-Spin Scale   =       1.2000000000000000 [-]
	 SCS Same-Spin Energy      =      -0.1482715048274679 [Eh]
	 SCS Opposite-Spin Energy  =      -1.6228988716561981 [Eh]
	 SCS Correlation Energy    =      -1.7711703764836659 [Eh]
	 SCS Total Energy          =    -469.3472723008698608 [Eh]
	-----------------------------------------------------------

  Dipole Moment: [D]
     X:    -2.1048      Y:     0.0000      Z:     0.0336     Total:     2.1051

*** Psi4 exiting successfully. Buy a developer a beer!
