                               Psi4 1.4a3.dev225

  ==> Input File <==

--------------------------------------------------------------------------
#psi4
#
memory 32 gb

molecule  {
0 1
  F        1.4077440     2.3569060     0.0024490
  F        1.4077500    -2.3569030     0.0024500
  C       -1.3651830    -0.0000010    -0.0169560
  C       -0.6574790    -1.2079560    -0.0091570
  C       -0.6574810     1.2079540    -0.0091560
  C       -2.8713810    -0.0000030     0.0124600
  C        0.7312170     1.1805550     0.0005770
  C        0.7312190    -1.1805530     0.0005760
  C        1.4628560     0.0000010     0.0071220
  H       -1.1698750    -2.1658170    -0.0181430
  H       -1.1698790     2.1658150    -0.0181420
  H       -3.2423250     0.0000120     1.0428870
  H       -3.2366856     0.8045825    -0.4411474
  H       -3.2734620    -0.8856090    -0.4867890
  H        2.5469510     0.0000020     0.0101120
units angstrom
no_reorient  #important for SAPT in psi4, default
symmetry c1  #important for SAPT in psi4, default
}

set PROPERTIES_ORIGIN ["COM"]
properties('MP2/aug-cc-pvtz', properties = ['dipole'])
--------------------------------------------------------------------------

    Molecular point group: c1
  Charge       = 0
  Multiplicity = 1
  Basis Set: AUG-CC-PVTZ
    Blend: AUG-CC-PVTZ
  Basis Set: (AUG-CC-PVTZ AUX)
    Blend: AUG-CC-PVTZ-JKFIT

    Orbital Energies [Eh]
    ---------------------

    Doubly Occupied:

       1A    -26.316949     2A    -26.316790     3A    -11.345897
       4A    -11.345670     5A    -11.273723     6A    -11.251272
       7A    -11.246313     8A    -11.245771     9A    -11.229622
      10A     -1.630200    11A     -1.629630    12A     -1.179661
      13A     -1.072820    14A     -1.032217    15A     -0.970423
      16A     -0.862874    17A     -0.846330    18A     -0.755583
      19A     -0.740905    20A     -0.701986    21A     -0.698243
      22A     -0.694076    23A     -0.687651    24A     -0.662688
      25A     -0.610512    26A     -0.598348    27A     -0.595279
      28A     -0.559825    29A     -0.544806    30A     -0.523830
      31A     -0.503110    32A     -0.349925    33A     -0.349253

  @DF-RHF Final Energy:  -467.60581565476542

   => Energetics <=

    Nuclear Repulsion Energy =            420.9624685513281861
    One-Electron Energy =               -1476.3922062207630006
    Two-Electron Energy =                 587.8239220146695061
    Total Energy =                       -467.6058156547653653
  Basis Set: (AUG-CC-PVTZ AUX)
    Blend: AUG-CC-PVTZ-RI
    Molecular point group: c1

    Geometry (in Angstrom), charge = 0, multiplicity = 1:

       Center              X                  Y                   Z               Mass
    ------------   -----------------  -----------------  -----------------  -----------------
         F            1.311252466473     2.357543496494     0.002385447782    18.998403162730
         F            1.311258466473    -2.356265503506     0.002386447782    18.998403162730
         C           -1.461674533527     0.000636496494    -0.017019552218    12.000000000000
         C           -0.753970533527    -1.207318503506    -0.009220552218    12.000000000000
         C           -0.753972533527     1.208591496494    -0.009219552218    12.000000000000
         C           -2.967872533527     0.000634496494     0.012396447782    12.000000000000
         C            0.634725466473     1.181192496494     0.000513447782    12.000000000000
         C            0.634727466473    -1.179915503506     0.000512447782    12.000000000000
         C            1.366364466473     0.000638496494     0.007058447782    12.000000000000
         H           -1.266366533527    -2.165179503506    -0.018206552218     1.007825032230
         H           -1.266370533527     2.166452496494    -0.018205552218     1.007825032230
         H           -3.338816533527     0.000649496494     1.042823447782     1.007825032230
         H           -3.333177133527     0.805219996494    -0.441210952218     1.007825032230
         H           -3.369953533527    -0.884971503506    -0.486852552218     1.007825032230
         H            2.450459466473     0.000639496494     0.010048447782     1.007825032230

  Basis Set: AUG-CC-PVTZ
    Blend: AUG-CC-PVTZ
  Basis Set: (AUG-CC-PVTZ AUX)
    Blend: AUG-CC-PVTZ-JKFIT
	 Reference Energy          =    -467.6058156547654221 [Eh]
	 Singles Energy            =      -0.0000000000000000 [Eh]
	 Same-Spin Energy          =      -0.4450658219499641 [Eh]
	 Opposite-Spin Energy      =      -1.3522687652007233 [Eh]
	 Correlation Energy        =      -1.7973345871506874 [Eh]
	 Total Energy              =    -469.4031502419161370 [Eh]

	 ================> DF-SCS-MP2 Energies <==================
	-----------------------------------------------------------
	 SCS Same-Spin Scale       =       0.3333333333333333 [-]
	 SCS Opposite-Spin Scale   =       1.2000000000000000 [-]
	 SCS Same-Spin Energy      =      -0.1483552739833214 [Eh]
	 SCS Opposite-Spin Energy  =      -1.6227225182408678 [Eh]
	 SCS Correlation Energy    =      -1.7710777922241892 [Eh]
	 SCS Total Energy          =    -469.3768934469895839 [Eh]
	-----------------------------------------------------------

  Dipole Moment: [D]
     X:    -2.0786      Y:     0.0255      Z:     0.0210     Total:     2.0788

*** Psi4 exiting successfully. Buy a developer a beer!
