                               Psi4 1.4a3.dev225

  ==> Input File <==

--------------------------------------------------------------------------
#psi4
#
memory 32 gb

molecule  {
0 1
  F        1.4077440     2.3569060     0.0024490
  F        1.5270021    -2.2797426     0.0034661
  C       -1.3651830    -0.0000010    -0.0169560
  C       -0.6574790    -1.2079560    -0.0091570
  C       -0.6574810     1.2079540    -0.0091560
  C       -2.8713810    -0.0000030     0.0124600
  C        0.7312170     1.1805550     0.0005770
  C        0.7312190    -1.1805530     0.0005760
  C        1.4628560     0.0000010     0.0071220
  H       -1.1698750    -2.1658170    -0.0181430
  H       -1.1698790     2.1658150    -0.0181420
  H       -3.2423250     0.0000120     1.0428870
  H       -3.2734640     0.8855870    -0.4868160
  H       -3.2734620    -0.8856090    -0.4867890
  H        2.5469510     0.0000020     0.0101120
units angstrom
no_reorient  #important for SAPT in psi4, default
symmetry c1  #important for SAPT in psi4, default
}

set PROPERTIES_ORIGIN ["COM"]
properties('MP2/aug-cc-pvtz', properties = ['dipole'])
--------------------------------------------------------------------------

    Molecular point group: c1
  Charge       = 0
  Multiplicity = 1
  Basis Set: AUG-CC-PVTZ
    Blend: AUG-CC-PVTZ
  Basis Set: (AUG-CC-PVTZ AUX)
    Blend: AUG-CC-PVTZ-JKFIT

    Orbital Energies [Eh]
    ---------------------

    Doubly Occupied:

       1A    -26.316789     2A    -26.315906     3A    -11.345954
       4A    -11.344415     5A    -11.275650     6A    -11.249693
       7A    -11.248041     8A    -11.246360     9A    -11.242546
      10A     -1.630459    11A     -1.629004    12A     -1.179715
      13A     -1.070205    14A     -1.032697    15A     -0.963370
      16A     -0.864262    17A     -0.842607    18A     -0.755222
      19A     -0.739920    20A     -0.701871    21A     -0.697920
      22A     -0.693653    23A     -0.687451    24A     -0.662067
      25A     -0.602785    26A     -0.597929    27A     -0.593240
      28A     -0.552686    29A     -0.541183    30A     -0.526495
      31A     -0.502627    32A     -0.350771    33A     -0.348550

  @DF-RHF Final Energy:  -467.60914853438027

   => Energetics <=

    Nuclear Repulsion Energy =            420.6358231247576214
    One-Electron Energy =               -1475.7858510354467398
    Two-Electron Energy =                 587.5408793763086805
    Total Energy =                       -467.6091485343803242
  Basis Set: (AUG-CC-PVTZ AUX)
    Blend: AUG-CC-PVTZ-RI
    Molecular point group: c1

    Geometry (in Angstrom), charge = 0, multiplicity = 1:

       Center              X                  Y                   Z               Mass
    ------------   -----------------  -----------------  -----------------  -----------------
         F            1.293847999889     2.345457294150     0.002594139573    18.998403162730
         F            1.413106099889    -2.291191305850     0.003611239573    18.998403162730
         C           -1.479079000111    -0.011449705850    -0.016810860427    12.000000000000
         C           -0.771375000111    -1.219404705850    -0.009011860427    12.000000000000
         C           -0.771377000111     1.196505294150    -0.009010860427    12.000000000000
         C           -2.985277000111    -0.011451705850     0.012605139573    12.000000000000
         C            0.617320999889     1.169106294150     0.000722139573    12.000000000000
         C            0.617322999889    -1.192001705850     0.000721139573    12.000000000000
         C            1.348959999889    -0.011447705850     0.007267139573    12.000000000000
         H           -1.283771000111    -2.177265705850    -0.017997860427     1.007825032230
         H           -1.283775000111     2.154366294150    -0.017996860427     1.007825032230
         H           -3.356221000111    -0.011436705850     1.043032139573     1.007825032230
         H           -3.387360000111     0.874138294150    -0.486670860427     1.007825032230
         H           -3.387358000111    -0.897057705850    -0.486643860427     1.007825032230
         H            2.433054999889    -0.011446705850     0.010257139573     1.007825032230

  Basis Set: AUG-CC-PVTZ
    Blend: AUG-CC-PVTZ
  Basis Set: (AUG-CC-PVTZ AUX)
    Blend: AUG-CC-PVTZ-JKFIT
	 Reference Energy          =    -467.6091485343802674 [Eh]
	 Singles Energy            =      -0.0000000000000000 [Eh]
	 Same-Spin Energy          =      -0.4451745868751154 [Eh]
	 Opposite-Spin Energy      =      -1.3529828365998222 [Eh]
	 Correlation Energy        =      -1.7981574234749376 [Eh]
	 Total Energy              =    -469.4073059578552147 [Eh]

	 ================> DF-SCS-MP2 Energies <==================
	-----------------------------------------------------------
	 SCS Same-Spin Scale       =       0.3333333333333333 [-]
	 SCS Opposite-Spin Scale   =       1.2000000000000000 [-]
	 SCS Same-Spin Energy      =      -0.1483915289583718 [Eh]
	 SCS Opposite-Spin Energy  =      -1.6235794039197866 [Eh]
	 SCS Correlation Energy    =      -1.7719709328781583 [Eh]
	 SCS Total Energy          =    -469.3811194672584293 [Eh]
	-----------------------------------------------------------

  Dipole Moment: [D]
     X:    -2.1636      Y:    -0.0742      Z:     0.0323     Total:     2.1651

*** Psi4 exiting successfully. Buy a developer a beer!
