                               Psi4 1.4a3.dev225

  ==> Input File <==

--------------------------------------------------------------------------
#psi4
#
memory 32 gb

molecule  {
0 1
  F        1.4077440     2.3569060     0.0024490
  F        1.4077500    -2.3569030     0.0024500
  C       -1.3651830    -0.0000010    -0.0169560
  C       -0.6574790    -1.2079560    -0.0091570
  C       -0.6574810     1.2079540    -0.0091560
  C       -2.8713810    -0.0000030     0.0124600
  C        0.7312170     1.1805550     0.0005770
  C        0.7312190    -1.1805530     0.0005760
  C        1.5682111    -0.1699973     0.0080645
  H       -1.1698750    -2.1658170    -0.0181430
  H       -1.1698790     2.1658150    -0.0181420
  H       -3.2423250     0.0000120     1.0428870
  H       -3.2734640     0.8855870    -0.4868160
  H       -3.2734620    -0.8856090    -0.4867890
  H        2.5469510     0.0000020     0.0101120
units angstrom
no_reorient  #important for SAPT in psi4, default
symmetry c1  #important for SAPT in psi4, default
}

set PROPERTIES_ORIGIN ["COM"]
properties('MP2/aug-cc-pvtz', properties = ['dipole'])
--------------------------------------------------------------------------

    Molecular point group: c1
  Charge       = 0
  Multiplicity = 1
  Basis Set: AUG-CC-PVTZ
    Blend: AUG-CC-PVTZ
  Basis Set: (AUG-CC-PVTZ AUX)
    Blend: AUG-CC-PVTZ-JKFIT

    Orbital Energies [Eh]
    ---------------------

    Doubly Occupied:

       1A    -26.323194     2A    -26.302684     3A    -11.363765
       4A    -11.336318     5A    -11.278491     6A    -11.254193
       7A    -11.247446     8A    -11.245216     9A    -11.243391
      10A     -1.633854    11A     -1.622426    12A     -1.172500
      13A     -1.072109    14A     -1.026504    15A     -0.968273
      16A     -0.858955    17A     -0.843219    18A     -0.749638
      19A     -0.739143    20A     -0.720674    21A     -0.700834
      22A     -0.690288    23A     -0.677907    24A     -0.663730
      25A     -0.621375    26A     -0.594066    27A     -0.588654
      28A     -0.546811    29A     -0.541551    30A     -0.513439
      31A     -0.496786    32A     -0.365718    33A     -0.332783

  @DF-RHF Final Energy:  -467.56861575549317

   => Energetics <=

    Nuclear Repulsion Energy =            418.8997078490657486
    One-Electron Energy =               -1472.2647762395940845
    Two-Electron Energy =                 585.7964526350352799
    Total Energy =                       -467.5686157554931697
  Basis Set: (AUG-CC-PVTZ AUX)
    Blend: AUG-CC-PVTZ-RI
    Molecular point group: c1

    Geometry (in Angstrom), charge = 0, multiplicity = 1:

       Center              X                  Y                   Z               Mass
    ------------   -----------------  -----------------  -----------------  -----------------
         F            1.301668281807     2.372837809082     0.002656573523    18.998403162730
         F            1.301674281807    -2.340971190918     0.002657573523    18.998403162730
         C           -1.471258718193     0.015930809082    -0.016748426477    12.000000000000
         C           -0.763554718193    -1.192024190918    -0.008949426477    12.000000000000
         C           -0.763556718193     1.223885809082    -0.008948426477    12.000000000000
         C           -2.977456718193     0.015928809082     0.012667573523    12.000000000000
         C            0.625141281807     1.196486809082     0.000784573523    12.000000000000
         C            0.625143281807    -1.164621190918     0.000783573523    12.000000000000
         C            1.462135381807    -0.154065490918     0.008272073523    12.000000000000
         H           -1.275950718193    -2.149885190918    -0.017935426477     1.007825032230
         H           -1.275954718193     2.181746809082    -0.017934426477     1.007825032230
         H           -3.348400718193     0.015943809082     1.043094573523     1.007825032230
         H           -3.379539718193     0.901518809082    -0.486608426477     1.007825032230
         H           -3.379537718193    -0.869677190918    -0.486581426477     1.007825032230
         H            2.440875281807     0.015933809082     0.010319573523     1.007825032230

  Basis Set: AUG-CC-PVTZ
    Blend: AUG-CC-PVTZ
  Basis Set: (AUG-CC-PVTZ AUX)
    Blend: AUG-CC-PVTZ-JKFIT
	 Reference Energy          =    -467.5686157554931697 [Eh]
	 Singles Energy            =      -0.0000000000000000 [Eh]
	 Same-Spin Energy          =      -0.4445066925957840 [Eh]
	 Opposite-Spin Energy      =      -1.3549461939443237 [Eh]
	 Correlation Energy        =      -1.7994528865401076 [Eh]
	 Total Energy              =    -469.3680686420332790 [Eh]

	 ================> DF-SCS-MP2 Energies <==================
	-----------------------------------------------------------
	 SCS Same-Spin Scale       =       0.3333333333333333 [-]
	 SCS Opposite-Spin Scale   =       1.2000000000000000 [-]
	 SCS Same-Spin Energy      =      -0.1481688975319280 [Eh]
	 SCS Opposite-Spin Energy  =      -1.6259354327331883 [Eh]
	 SCS Correlation Energy    =      -1.7741043302651163 [Eh]
	 SCS Total Energy          =    -469.3427200857582875 [Eh]
	-----------------------------------------------------------

  Dipole Moment: [D]
     X:    -2.1154      Y:     0.2403      Z:     0.0331     Total:     2.1292

*** Psi4 exiting successfully. Buy a developer a beer!
