                               Psi4 1.4a3.dev225

  ==> Input File <==

--------------------------------------------------------------------------
#psi4
#
memory 32 gb

molecule  {
0 1
  F        1.4077440     2.3569060     0.0024490
  F        1.3240465    -2.4012295     0.0017605
  C       -1.3651830    -0.0000010    -0.0169560
  C       -0.6574790    -1.2079560    -0.0091570
  C       -0.6574810     1.2079540    -0.0091560
  C       -2.8713810    -0.0000030     0.0124600
  C        0.7312170     1.1805550     0.0005770
  C        0.7312190    -1.1805530     0.0005760
  C        1.4628560     0.0000010     0.0071220
  H       -1.1698750    -2.1658170    -0.0181430
  H       -1.1698790     2.1658150    -0.0181420
  H       -3.2423250     0.0000120     1.0428870
  H       -3.2734640     0.8855870    -0.4868160
  H       -3.2734620    -0.8856090    -0.4867890
  H        2.5469510     0.0000020     0.0101120
units angstrom
no_reorient  #important for SAPT in psi4, default
symmetry c1  #important for SAPT in psi4, default
}

set PROPERTIES_ORIGIN ["COM"]
properties('MP2/aug-cc-pvtz', properties = ['dipole'])
--------------------------------------------------------------------------

    Molecular point group: c1
  Charge       = 0
  Multiplicity = 1
  Basis Set: AUG-CC-PVTZ
    Blend: AUG-CC-PVTZ
  Basis Set: (AUG-CC-PVTZ AUX)
    Blend: AUG-CC-PVTZ-JKFIT

    Orbital Energies [Eh]
    ---------------------

    Doubly Occupied:

       1A    -26.317699     2A    -26.316993     3A    -11.346834
       4A    -11.346021     5A    -11.273421     6A    -11.253816
       7A    -11.246339     8A    -11.244147     9A    -11.241231
      10A     -1.630775    11A     -1.630099    12A     -1.179631
      13A     -1.070710    14A     -1.032229    15A     -0.963000
      16A     -0.862179    17A     -0.845095    18A     -0.753889
      19A     -0.741374    20A     -0.702467    21A     -0.699230
      22A     -0.694653    23A     -0.686845    24A     -0.662018
      25A     -0.602925    26A     -0.598520    27A     -0.592176
      28A     -0.558112    29A     -0.539314    30A     -0.522306
      31A     -0.503032    32A     -0.350793    33A     -0.348597

  @DF-RHF Final Energy:  -467.61060007294458

   => Energetics <=

    Nuclear Repulsion Energy =            420.5543068339632100
    One-Electron Energy =               -1475.6168729710605021
    Two-Electron Energy =                 587.4519660641526571
    Total Energy =                       -467.6106000729446350
  Basis Set: (AUG-CC-PVTZ AUX)
    Blend: AUG-CC-PVTZ-RI
    Molecular point group: c1

    Geometry (in Angstrom), charge = 0, multiplicity = 1:

       Center              X                  Y                   Z               Mass
    ------------   -----------------  -----------------  -----------------  -----------------
         F            1.323961395636     2.363482828295     0.002847206785    18.998403162730
         F            1.240263895636    -2.394652671705     0.002158706785    18.998403162730
         C           -1.448965604364     0.006575828295    -0.016557793215    12.000000000000
         C           -0.741261604364    -1.201379171705    -0.008758793215    12.000000000000
         C           -0.741263604364     1.214530828295    -0.008757793215    12.000000000000
         C           -2.955163604364     0.006573828295     0.012858206785    12.000000000000
         C            0.647434395636     1.187131828295     0.000975206785    12.000000000000
         C            0.647436395636    -1.173976171705     0.000974206785    12.000000000000
         C            1.379073395636     0.006577828295     0.007520206785    12.000000000000
         H           -1.253657604364    -2.159240171705    -0.017744793215     1.007825032230
         H           -1.253661604364     2.172391828295    -0.017743793215     1.007825032230
         H           -3.326107604364     0.006588828295     1.043285206785     1.007825032230
         H           -3.357246604364     0.892163828295    -0.486417793215     1.007825032230
         H           -3.357244604364    -0.879032171705    -0.486390793215     1.007825032230
         H            2.463168395636     0.006578828295     0.010510206785     1.007825032230

  Basis Set: AUG-CC-PVTZ
    Blend: AUG-CC-PVTZ
  Basis Set: (AUG-CC-PVTZ AUX)
    Blend: AUG-CC-PVTZ-JKFIT
	 Reference Energy          =    -467.6106000729445782 [Eh]
	 Singles Energy            =      -0.0000000000000000 [Eh]
	 Same-Spin Energy          =      -0.4450901887955981 [Eh]
	 Opposite-Spin Energy      =      -1.3528523709279947 [Eh]
	 Correlation Energy        =      -1.7979425597235927 [Eh]
	 Total Energy              =    -469.4085426326681727 [Eh]

	 ================> DF-SCS-MP2 Energies <==================
	-----------------------------------------------------------
	 SCS Same-Spin Scale       =       0.3333333333333333 [-]
	 SCS Opposite-Spin Scale   =       1.2000000000000000 [-]
	 SCS Same-Spin Energy      =      -0.1483633962651994 [Eh]
	 SCS Opposite-Spin Energy  =      -1.6234228451135937 [Eh]
	 SCS Correlation Energy    =      -1.7717862413787930 [Eh]
	 SCS Total Energy          =    -469.3823863143233552 [Eh]
	-----------------------------------------------------------

  Dipole Moment: [D]
     X:    -1.9579      Y:     0.0351      Z:     0.0345     Total:     1.9585

*** Psi4 exiting successfully. Buy a developer a beer!
