                               Psi4 1.4a3.dev225

  ==> Input File <==

--------------------------------------------------------------------------
#psi4
#
memory 32 gb

molecule  {
0 1
  F        1.4077440     2.3569060     0.0024490
  F        1.4077500    -2.3569030     0.0024500
  C       -1.3651830    -0.0000010    -0.0169560
  C       -0.6574790    -1.2079560    -0.0091570
  C       -0.6574810     1.2079540    -0.0091560
  C       -2.8713810    -0.0000030     0.0124600
  C        0.7312170     1.1805550     0.0005770
  C        0.7312190    -1.1805530     0.0005760
  C        1.4628560     0.0000010     0.0071220
  H       -1.1698750    -2.1658170    -0.0181430
  H       -1.1934627     2.2099017    -0.0185556
  H       -3.2423250     0.0000120     1.0428870
  H       -3.2734640     0.8855870    -0.4868160
  H       -3.2734620    -0.8856090    -0.4867890
  H        2.5469510     0.0000020     0.0101120
units angstrom
no_reorient  #important for SAPT in psi4, default
symmetry c1  #important for SAPT in psi4, default
}

set PROPERTIES_ORIGIN ["COM"]
properties('MP2/aug-cc-pvtz', properties = ['dipole'])
--------------------------------------------------------------------------

    Molecular point group: c1
  Charge       = 0
  Multiplicity = 1
  Basis Set: AUG-CC-PVTZ
    Blend: AUG-CC-PVTZ
  Basis Set: (AUG-CC-PVTZ AUX)
    Blend: AUG-CC-PVTZ-JKFIT

    Orbital Energies [Eh]
    ---------------------

    Doubly Occupied:

       1A    -26.317196     2A    -26.317008     3A    -11.346449
       4A    -11.346157     5A    -11.274860     6A    -11.251902
       7A    -11.251866     8A    -11.246744     9A    -11.241776
      10A     -1.630424    11A     -1.629839    12A     -1.179764
      13A     -1.070582    14A     -1.031388    15A     -0.962843
      16A     -0.861577    17A     -0.843931    18A     -0.754525
      19A     -0.740835    20A     -0.702226    21A     -0.694303
      22A     -0.694188    23A     -0.685927    24A     -0.661475
      25A     -0.602235    26A     -0.597578    27A     -0.592577
      28A     -0.553535    29A     -0.539170    30A     -0.523523
      31A     -0.503193    32A     -0.350263    33A     -0.349725

  @DF-RHF Final Energy:  -467.60930493030855

   => Energetics <=

    Nuclear Repulsion Energy =            420.2493774198920846
    One-Electron Energy =               -1475.0181941230498524
    Two-Electron Energy =                 587.1595117728493278
    Total Energy =                       -467.6093049303085536
  Basis Set: (AUG-CC-PVTZ AUX)
    Blend: AUG-CC-PVTZ-RI
    Molecular point group: c1

    Geometry (in Angstrom), charge = 0, multiplicity = 1:

       Center              X                  Y                   Z               Mass
    ------------   -----------------  -----------------  -----------------  -----------------
         F            1.311727573085     2.356558910864     0.002748158124    18.998403162730
         F            1.311733573085    -2.357250089136     0.002749158124    18.998403162730
         C           -1.461199426915    -0.000348089136    -0.016656841876    12.000000000000
         C           -0.753495426915    -1.208303089136    -0.008857841876    12.000000000000
         C           -0.753497426915     1.207606910864    -0.008856841876    12.000000000000
         C           -2.967397426915    -0.000350089136     0.012759158124    12.000000000000
         C            0.635200573085     1.180207910864     0.000876158124    12.000000000000
         C            0.635202573085    -1.180900089136     0.000875158124    12.000000000000
         C            1.366839573085    -0.000346089136     0.007421158124    12.000000000000
         H           -1.265891426915    -2.166164089136    -0.017843841876     1.007825032230
         H           -1.289479126915     2.209554610864    -0.018256441876     1.007825032230
         H           -3.338341426915    -0.000335089136     1.043186158124     1.007825032230
         H           -3.369480426915     0.885239910864    -0.486516841876     1.007825032230
         H           -3.369478426915    -0.885956089136    -0.486489841876     1.007825032230
         H            2.450934573085    -0.000345089136     0.010411158124     1.007825032230

  Basis Set: AUG-CC-PVTZ
    Blend: AUG-CC-PVTZ
  Basis Set: (AUG-CC-PVTZ AUX)
    Blend: AUG-CC-PVTZ-JKFIT
	 Reference Energy          =    -467.6093049303085536 [Eh]
	 Singles Energy            =      -0.0000000000000000 [Eh]
	 Same-Spin Energy          =      -0.4451897483403478 [Eh]
	 Opposite-Spin Energy      =      -1.3531612305287106 [Eh]
	 Correlation Energy        =      -1.7983509788690584 [Eh]
	 Total Energy              =    -469.4076559091776062 [Eh]

	 ================> DF-SCS-MP2 Energies <==================
	-----------------------------------------------------------
	 SCS Same-Spin Scale       =       0.3333333333333333 [-]
	 SCS Opposite-Spin Scale   =       1.2000000000000000 [-]
	 SCS Same-Spin Energy      =      -0.1483965827801159 [Eh]
	 SCS Opposite-Spin Energy  =      -1.6237934766344526 [Eh]
	 SCS Correlation Energy    =      -1.7721900594145685 [Eh]
	 SCS Total Energy          =    -469.3814949897231372 [Eh]
	-----------------------------------------------------------

  Dipole Moment: [D]
     X:    -2.0432      Y:    -0.0046      Z:     0.0337     Total:     2.0435

*** Psi4 exiting successfully. Buy a developer a beer!
