                               Psi4 1.4a3.dev225

  ==> Input File <==

--------------------------------------------------------------------------
#psi4
#
memory 32 gb

molecule  {
0 1
  F        1.4077440     2.3569060     0.0024490
  F        1.4077500    -2.3569030     0.0024500
  C       -1.3651830    -0.0000010    -0.0169560
  C       -0.6574790    -1.2079560    -0.0091570
  C       -0.6574810     1.2079540    -0.0091560
  C       -2.8713810    -0.0000030     0.0124600
  C        0.7312170     1.1805550     0.0005770
  C        0.7312190    -1.1805530     0.0005760
  C        1.4628560     0.0000010     0.0071220
  H       -1.1698750    -2.1658170    -0.0181430
  H       -1.1698790     2.1658150    -0.0181420
  H       -3.2355508     0.0000117     1.0240692
  H       -3.2734640     0.8855870    -0.4868160
  H       -3.2734620    -0.8856090    -0.4867890
  H        2.5469510     0.0000020     0.0101120
units angstrom
no_reorient  #important for SAPT in psi4, default
symmetry c1  #important for SAPT in psi4, default
}

set PROPERTIES_ORIGIN ["COM"]
properties('MP2/aug-cc-pvtz', properties = ['dipole'])
--------------------------------------------------------------------------

    Molecular point group: c1
  Charge       = 0
  Multiplicity = 1
  Basis Set: AUG-CC-PVTZ
    Blend: AUG-CC-PVTZ
  Basis Set: (AUG-CC-PVTZ AUX)
    Blend: AUG-CC-PVTZ-JKFIT

    Orbital Energies [Eh]
    ---------------------

    Doubly Occupied:

       1A    -26.317031     2A    -26.317030     3A    -11.345970
       4A    -11.345965     5A    -11.274323     6A    -11.251477
       7A    -11.246346     8A    -11.246309     9A    -11.239438
      10A     -1.630343    11A     -1.629795    12A     -1.179724
      13A     -1.070934    14A     -1.032417    15A     -0.964442
      16A     -0.862948    17A     -0.844474    18A     -0.754623
      19A     -0.740768    20A     -0.702142    21A     -0.698418
      22A     -0.694231    23A     -0.687104    24A     -0.662588
      25A     -0.603058    26A     -0.599745    27A     -0.594853
      28A     -0.556067    29A     -0.540085    30A     -0.524260
      31A     -0.503407    32A     -0.350139    33A     -0.349472

  @DF-RHF Final Energy:  -467.61182532115038

   => Energetics <=

    Nuclear Repulsion Energy =            420.5936774422884810
    One-Electron Energy =               -1475.6911487551801656
    Two-Electron Energy =                 587.4856459917413076
    Total Energy =                       -467.6118253211503770
  Basis Set: (AUG-CC-PVTZ AUX)
    Blend: AUG-CC-PVTZ-RI
    Molecular point group: c1

    Geometry (in Angstrom), charge = 0, multiplicity = 1:

       Center              X                  Y                   Z               Mass
    ------------   -----------------  -----------------  -----------------  -----------------
         F            1.311488627803     2.356905917102     0.002893016522    18.998403162730
         F            1.311494627803    -2.356903082898     0.002894016522    18.998403162730
         C           -1.461438372197    -0.000001082898    -0.016511983478    12.000000000000
         C           -0.753734372197    -1.207956082898    -0.008712983478    12.000000000000
         C           -0.753736372197     1.207953917102    -0.008711983478    12.000000000000
         C           -2.967636372197    -0.000003082898     0.012904016522    12.000000000000
         C            0.634961627803     1.180554917102     0.001021016522    12.000000000000
         C            0.634963627803    -1.180553082898     0.001020016522    12.000000000000
         C            1.366600627803     0.000000917102     0.007566016522    12.000000000000
         H           -1.266130372197    -2.165817082898    -0.017698983478     1.007825032230
         H           -1.266134372197     2.165814917102    -0.017697983478     1.007825032230
         H           -3.331806172197     0.000011617102     1.024513216522     1.007825032230
         H           -3.369719372197     0.885586917102    -0.486371983478     1.007825032230
         H           -3.369717372197    -0.885609082898    -0.486344983478     1.007825032230
         H            2.450695627803     0.000001917102     0.010556016522     1.007825032230

  Basis Set: AUG-CC-PVTZ
    Blend: AUG-CC-PVTZ
  Basis Set: (AUG-CC-PVTZ AUX)
    Blend: AUG-CC-PVTZ-JKFIT
	 Reference Energy          =    -467.6118253211503770 [Eh]
	 Singles Energy            =      -0.0000000000000000 [Eh]
	 Same-Spin Energy          =      -0.4450659902566904 [Eh]
	 Opposite-Spin Energy      =      -1.3526635629869139 [Eh]
	 Correlation Energy        =      -1.7977295532436042 [Eh]
	 Total Energy              =    -469.4095548743939617 [Eh]

	 ================> DF-SCS-MP2 Energies <==================
	-----------------------------------------------------------
	 SCS Same-Spin Scale       =       0.3333333333333333 [-]
	 SCS Opposite-Spin Scale   =       1.2000000000000000 [-]
	 SCS Same-Spin Energy      =      -0.1483553300855635 [Eh]
	 SCS Opposite-Spin Energy  =      -1.6231962755842966 [Eh]
	 SCS Correlation Energy    =      -1.7715516056698599 [Eh]
	 SCS Total Energy          =    -469.3833769268202332 [Eh]
	-----------------------------------------------------------

  Dipole Moment: [D]
     X:    -2.0522      Y:     0.0000      Z:     0.0391     Total:     2.0525

*** Psi4 exiting successfully. Buy a developer a beer!
