                               Psi4 1.4a3.dev225

  ==> Input File <==

--------------------------------------------------------------------------
#psi4
#
memory 32 gb

molecule  {
0 1
  F        1.4077440     2.3569060     0.0024490
  F        1.4483906    -2.3325760     0.0027915
  C       -1.3651830    -0.0000010    -0.0169560
  C       -0.6574790    -1.2079560    -0.0091570
  C       -0.6574810     1.2079540    -0.0091560
  C       -2.8713810    -0.0000030     0.0124600
  C        0.7312170     1.1805550     0.0005770
  C        0.7312190    -1.1805530     0.0005760
  C        1.4628560     0.0000010     0.0071220
  H       -1.1698750    -2.1658170    -0.0181430
  H       -1.1698790     2.1658150    -0.0181420
  H       -3.2423250     0.0000120     1.0428870
  H       -3.2734640     0.8855870    -0.4868160
  H       -3.2734620    -0.8856090    -0.4867890
  H        2.5469510     0.0000020     0.0101120
units angstrom
no_reorient  #important for SAPT in psi4, default
symmetry c1  #important for SAPT in psi4, default
}

set PROPERTIES_ORIGIN ["COM"]
properties('MP2/aug-cc-pvtz', properties = ['dipole'])
--------------------------------------------------------------------------

    Molecular point group: c1
  Charge       = 0
  Multiplicity = 1
  Basis Set: AUG-CC-PVTZ
    Blend: AUG-CC-PVTZ
  Basis Set: (AUG-CC-PVTZ AUX)
    Blend: AUG-CC-PVTZ-JKFIT

    Orbital Energies [Eh]
    ---------------------

    Doubly Occupied:

       1A    -26.317027     2A    -26.316710     3A    -11.345999
       4A    -11.345530     5A    -11.274895     6A    -11.250386
       7A    -11.247513     8A    -11.246407     9A    -11.242082
      10A     -1.630298    11A     -1.629631    12A     -1.179768
      13A     -1.070482    14A     -1.032568    15A     -0.963249
      16A     -0.863419    17A     -0.843568    18A     -0.754690
      19A     -0.740530    20A     -0.702053    21A     -0.698196
      22A     -0.694073    23A     -0.687277    24A     -0.662613
      25A     -0.603127    26A     -0.598252    27A     -0.592890
      28A     -0.555073    29A     -0.540629    30A     -0.525060
      31A     -0.502876    32A     -0.350027    33A     -0.349504

  @DF-RHF Final Energy:  -467.61150720695173

   => Energetics <=

    Nuclear Repulsion Energy =            420.5219261981619638
    One-Electron Energy =               -1475.5540623161643907
    Two-Electron Energy =                 587.4206289110506987
    Total Energy =                       -467.6115072069517282
  Basis Set: (AUG-CC-PVTZ AUX)
    Blend: AUG-CC-PVTZ-RI
    Molecular point group: c1

    Geometry (in Angstrom), charge = 0, multiplicity = 1:

       Center              X                  Y                   Z               Mass
    ------------   -----------------  -----------------  -----------------  -----------------
         F            1.305511926431     2.353296413065     0.002694232878    18.998403162730
         F            1.346158526431    -2.336185586935     0.003036732878    18.998403162730
         C           -1.467415073569    -0.003610586935    -0.016710767122    12.000000000000
         C           -0.759711073569    -1.211565586935    -0.008911767122    12.000000000000
         C           -0.759713073569     1.204344413065    -0.008910767122    12.000000000000
         C           -2.973613073569    -0.003612586935     0.012705232878    12.000000000000
         C            0.628984926431     1.176945413065     0.000822232878    12.000000000000
         C            0.628986926431    -1.184162586935     0.000821232878    12.000000000000
         C            1.360623926431    -0.003608586935     0.007367232878    12.000000000000
         H           -1.272107073569    -2.169426586935    -0.017897767122     1.007825032230
         H           -1.272111073569     2.162205413065    -0.017896767122     1.007825032230
         H           -3.344557073569    -0.003597586935     1.043132232878     1.007825032230
         H           -3.375696073569     0.881977413065    -0.486570767122     1.007825032230
         H           -3.375694073569    -0.889218586935    -0.486543767122     1.007825032230
         H            2.444718926431    -0.003607586935     0.010357232878     1.007825032230

  Basis Set: AUG-CC-PVTZ
    Blend: AUG-CC-PVTZ
  Basis Set: (AUG-CC-PVTZ AUX)
    Blend: AUG-CC-PVTZ-JKFIT
	 Reference Energy          =    -467.6115072069517282 [Eh]
	 Singles Energy            =      -0.0000000000000000 [Eh]
	 Same-Spin Energy          =      -0.4450819335897346 [Eh]
	 Opposite-Spin Energy      =      -1.3528058192030974 [Eh]
	 Correlation Energy        =      -1.7978877527928319 [Eh]
	 Total Energy              =    -469.4093949597445317 [Eh]

	 ================> DF-SCS-MP2 Energies <==================
	-----------------------------------------------------------
	 SCS Same-Spin Scale       =       0.3333333333333333 [-]
	 SCS Opposite-Spin Scale   =       1.2000000000000000 [-]
	 SCS Same-Spin Energy      =      -0.1483606445299115 [Eh]
	 SCS Opposite-Spin Energy  =      -1.6233669830437167 [Eh]
	 SCS Correlation Energy    =      -1.7717276275736282 [Eh]
	 SCS Total Energy          =    -469.3832348345253536 [Eh]
	-----------------------------------------------------------

  Dipole Moment: [D]
     X:    -2.0868      Y:    -0.0219      Z:     0.0331     Total:     2.0871

*** Psi4 exiting successfully. Buy a developer a beer!
