                               Psi4 1.4a3.dev225

  ==> Input File <==

--------------------------------------------------------------------------
#psi4
#
memory 32 gb

molecule  {
0 1
  F        1.4077440     2.3569060     0.0024490
  F        1.4077500    -2.3569030     0.0024500
  C       -1.3651830    -0.0000010    -0.0169560
  C       -0.6574790    -1.2079560    -0.0091570
  C       -0.6574810     1.2079540    -0.0091560
  C       -3.0713429    -0.0000033     0.0163652
  C        0.7312170     1.1805550     0.0005770
  C        0.7312190    -1.1805530     0.0005760
  C        1.4628560     0.0000010     0.0071220
  H       -1.1698750    -2.1658170    -0.0181430
  H       -1.1698790     2.1658150    -0.0181420
  H       -3.2423250     0.0000120     1.0428870
  H       -3.2734640     0.8855870    -0.4868160
  H       -3.2734620    -0.8856090    -0.4867890
  H        2.5469510     0.0000020     0.0101120
units angstrom
no_reorient  #important for SAPT in psi4, default
symmetry c1  #important for SAPT in psi4, default
}

set PROPERTIES_ORIGIN ["COM"]
properties('MP2/aug-cc-pvtz', properties = ['dipole'])
--------------------------------------------------------------------------

    Molecular point group: c1
  Charge       = 0
  Multiplicity = 1
  Basis Set: AUG-CC-PVTZ
    Blend: AUG-CC-PVTZ
  Basis Set: (AUG-CC-PVTZ AUX)
    Blend: AUG-CC-PVTZ-JKFIT

    Orbital Energies [Eh]
    ---------------------

    Doubly Occupied:

       1A    -26.316259     2A    -26.316258     3A    -11.345096
       4A    -11.345091     5A    -11.279106     6A    -11.250775
       7A    -11.246058     8A    -11.246024     9A    -11.243167
      10A     -1.629599    11A     -1.629051    12A     -1.174620
      13A     -1.054876    14A     -1.031004    15A     -0.967184
      16A     -0.860644    17A     -0.846436    18A     -0.751679
      19A     -0.738249    20A     -0.701370    21A     -0.697603
      22A     -0.693522    23A     -0.685134    24A     -0.659320
      25A     -0.616673    26A     -0.613244    27A     -0.580190
      28A     -0.574167    29A     -0.548794    30A     -0.508027
      31A     -0.474509    32A     -0.352176    33A     -0.348339

  @DF-RHF Final Energy:  -467.58475906403334

   => Energetics <=

    Nuclear Repulsion Energy =            417.2853111532518824
    One-Electron Energy =               -1469.0916544943634108
    Two-Electron Energy =                 584.2215842770783638
    Total Energy =                       -467.5847590640332783
  Basis Set: (AUG-CC-PVTZ AUX)
    Blend: AUG-CC-PVTZ-RI
    Molecular point group: c1

    Geometry (in Angstrom), charge = 0, multiplicity = 1:

       Center              X                  Y                   Z               Mass
    ------------   -----------------  -----------------  -----------------  -----------------
         F            1.330281969031     2.356905942856     0.002378915314    18.998403162730
         F            1.330287969031    -2.356903057144     0.002379915314    18.998403162730
         C           -1.442645030969    -0.000001057144    -0.017026084686    12.000000000000
         C           -0.734941030969    -1.207956057144    -0.009227084686    12.000000000000
         C           -0.734943030969     1.207953942856    -0.009226084686    12.000000000000
         C           -3.148804930969    -0.000003357144     0.016295115314    12.000000000000
         C            0.653754969031     1.180554942856     0.000506915314    12.000000000000
         C            0.653756969031    -1.180553057144     0.000505915314    12.000000000000
         C            1.385393969031     0.000000942856     0.007051915314    12.000000000000
         H           -1.247337030969    -2.165817057144    -0.018213084686     1.007825032230
         H           -1.247341030969     2.165814942856    -0.018212084686     1.007825032230
         H           -3.319787030969     0.000011942856     1.042816915314     1.007825032230
         H           -3.350926030969     0.885586942856    -0.486886084686     1.007825032230
         H           -3.350924030969    -0.885609057144    -0.486859084686     1.007825032230
         H            2.469488969031     0.000001942856     0.010041915314     1.007825032230

  Basis Set: AUG-CC-PVTZ
    Blend: AUG-CC-PVTZ
  Basis Set: (AUG-CC-PVTZ AUX)
    Blend: AUG-CC-PVTZ-JKFIT
	 Reference Energy          =    -467.5847590640333351 [Eh]
	 Singles Energy            =      -0.0000000000000000 [Eh]
	 Same-Spin Energy          =      -0.4447920532325440 [Eh]
	 Opposite-Spin Energy      =      -1.3536888265980411 [Eh]
	 Correlation Energy        =      -1.7984808798305851 [Eh]
	 Total Energy              =    -469.3832399438639413 [Eh]

	 ================> DF-SCS-MP2 Energies <==================
	-----------------------------------------------------------
	 SCS Same-Spin Scale       =       0.3333333333333333 [-]
	 SCS Opposite-Spin Scale   =       1.2000000000000000 [-]
	 SCS Same-Spin Energy      =      -0.1482640177441813 [Eh]
	 SCS Opposite-Spin Energy  =      -1.6244265919176493 [Eh]
	 SCS Correlation Energy    =      -1.7726906096618307 [Eh]
	 SCS Total Energy          =    -469.3574496736951573 [Eh]
	-----------------------------------------------------------

  Dipole Moment: [D]
     X:    -1.9985      Y:     0.0000      Z:     0.0277     Total:     1.9987

*** Psi4 exiting successfully. Buy a developer a beer!
