                               Psi4 1.4a3.dev225

  ==> Input File <==

--------------------------------------------------------------------------
#psi4
#
memory 32 gb

molecule  {
0 1
  F        1.4077440     2.3569060     0.0024490
  F        1.4077500    -2.3569030     0.0024500
  C       -1.3651830    -0.0000010    -0.0169560
  C       -0.6574790    -1.2079560    -0.0091570
  C       -0.6574810     1.2079540    -0.0091560
  C       -2.8713810    -0.0000030     0.0124600
  C        0.7312170     1.1805550     0.0005770
  C        0.7312190    -1.1805530     0.0005760
  C        1.4628560     0.0000010     0.0071220
  H       -1.1698750    -2.1658170    -0.0181430
  H       -1.1793125     2.1834497    -0.0183074
  H       -3.2423250     0.0000120     1.0428870
  H       -3.2734640     0.8855870    -0.4868160
  H       -3.2734620    -0.8856090    -0.4867890
  H        2.5469510     0.0000020     0.0101120
units angstrom
no_reorient  #important for SAPT in psi4, default
symmetry c1  #important for SAPT in psi4, default
}

set PROPERTIES_ORIGIN ["COM"]
properties('MP2/aug-cc-pvtz', properties = ['dipole'])
--------------------------------------------------------------------------

    Molecular point group: c1
  Charge       = 0
  Multiplicity = 1
  Basis Set: AUG-CC-PVTZ
    Blend: AUG-CC-PVTZ
  Basis Set: (AUG-CC-PVTZ AUX)
    Blend: AUG-CC-PVTZ-JKFIT

    Orbital Energies [Eh]
    ---------------------

    Doubly Occupied:

       1A    -26.317116     2A    -26.317042     3A    -11.346180
       4A    -11.346066     5A    -11.274607     6A    -11.251669
       7A    -11.248628     8A    -11.246535     9A    -11.241801
      10A     -1.630390    11A     -1.629837    12A     -1.179744
      13A     -1.070574    14A     -1.032006    15A     -0.963031
      16A     -0.862388    17A     -0.844010    18A     -0.754459
      19A     -0.740819    20A     -0.702192    21A     -0.696492
      22A     -0.694280    23A     -0.686787    24A     -0.662173
      25A     -0.602730    26A     -0.598093    27A     -0.592640
      28A     -0.555106    29A     -0.539864    30A     -0.523996
      31A     -0.503047    32A     -0.350115    33A     -0.349597

  @DF-RHF Final Energy:  -467.61114255532965

   => Energetics <=

    Nuclear Repulsion Energy =            420.4014974517683072
    One-Electron Energy =               -1475.3172577232733147
    Two-Electron Energy =                 587.3046177161752439
    Total Energy =                       -467.6111425553297067
  Basis Set: (AUG-CC-PVTZ AUX)
    Blend: AUG-CC-PVTZ-RI
    Molecular point group: c1

    Geometry (in Angstrom), charge = 0, multiplicity = 1:

       Center              X                  Y                   Z               Mass
    ------------   -----------------  -----------------  -----------------  -----------------
         F            1.311616197676     2.356767113032     0.002746204556    18.998403162730
         F            1.311622197676    -2.357041886968     0.002747204556    18.998403162730
         C           -1.461310802324    -0.000139886968    -0.016658795444    12.000000000000
         C           -0.753606802324    -1.208094886968    -0.008859795444    12.000000000000
         C           -0.753608802324     1.207815113032    -0.008858795444    12.000000000000
         C           -2.967508802324    -0.000141886968     0.012757204556    12.000000000000
         C            0.635089197676     1.180416113032     0.000874204556    12.000000000000
         C            0.635091197676    -1.180691886968     0.000873204556    12.000000000000
         C            1.366728197676    -0.000137886968     0.007419204556    12.000000000000
         H           -1.266002802324    -2.165955886968    -0.017845795444     1.007825032230
         H           -1.275440302324     2.183310813032    -0.018010195444     1.007825032230
         H           -3.338452802324    -0.000126886968     1.043184204556     1.007825032230
         H           -3.369591802324     0.885448113032    -0.486518795444     1.007825032230
         H           -3.369589802324    -0.885747886968    -0.486491795444     1.007825032230
         H            2.450823197676    -0.000136886968     0.010409204556     1.007825032230

  Basis Set: AUG-CC-PVTZ
    Blend: AUG-CC-PVTZ
  Basis Set: (AUG-CC-PVTZ AUX)
    Blend: AUG-CC-PVTZ-JKFIT
	 Reference Energy          =    -467.6111425553296499 [Eh]
	 Singles Energy            =      -0.0000000000000000 [Eh]
	 Same-Spin Energy          =      -0.4451129898310334 [Eh]
	 Opposite-Spin Energy      =      -1.3529202648005418 [Eh]
	 Correlation Energy        =      -1.7980332546315752 [Eh]
	 Total Energy              =    -469.4091758099611980 [Eh]

	 ================> DF-SCS-MP2 Energies <==================
	-----------------------------------------------------------
	 SCS Same-Spin Scale       =       0.3333333333333333 [-]
	 SCS Opposite-Spin Scale   =       1.2000000000000000 [-]
	 SCS Same-Spin Energy      =      -0.1483709966103445 [Eh]
	 SCS Opposite-Spin Energy  =      -1.6235043177606501 [Eh]
	 SCS Correlation Energy    =      -1.7718753143709944 [Eh]
	 SCS Total Energy          =    -469.3830178697006659 [Eh]
	-----------------------------------------------------------

  Dipole Moment: [D]
     X:    -2.0447      Y:    -0.0016      Z:     0.0337     Total:     2.0450

*** Psi4 exiting successfully. Buy a developer a beer!
