                               Psi4 1.4a3.dev225

  ==> Input File <==

--------------------------------------------------------------------------
#psi4
#
memory 32 gb

molecule  {
0 1
  F        1.4077440     2.3569060     0.0024490
  F        1.4077500    -2.3569030     0.0024500
  C       -1.3651830    -0.0000010    -0.0169560
  C       -0.6574790    -1.2079560    -0.0091570
  C       -0.6574810     1.2079540    -0.0091560
  C       -2.8713810    -0.0000030     0.0124600
  C        0.7312170     1.1805550     0.0005770
  C        0.7812080    -1.1795666     0.0009264
  C        1.4628560     0.0000010     0.0071220
  H       -1.1698750    -2.1658170    -0.0181430
  H       -1.1698790     2.1658150    -0.0181420
  H       -3.2423250     0.0000120     1.0428870
  H       -3.2734640     0.8855870    -0.4868160
  H       -3.2734620    -0.8856090    -0.4867890
  H        2.5469510     0.0000020     0.0101120
units angstrom
no_reorient  #important for SAPT in psi4, default
symmetry c1  #important for SAPT in psi4, default
}

set PROPERTIES_ORIGIN ["COM"]
properties('MP2/aug-cc-pvtz', properties = ['dipole'])
--------------------------------------------------------------------------

    Molecular point group: c1
  Charge       = 0
  Multiplicity = 1
  Basis Set: AUG-CC-PVTZ
    Blend: AUG-CC-PVTZ
  Basis Set: (AUG-CC-PVTZ AUX)
    Blend: AUG-CC-PVTZ-JKFIT

    Orbital Energies [Eh]
    ---------------------

    Doubly Occupied:

       1A    -26.324398     2A    -26.317192     3A    -11.347935
       4A    -11.346151     5A    -11.272161     6A    -11.248762
       7A    -11.248733     8A    -11.245222     9A    -11.240473
      10A     -1.644924    11A     -1.630086    12A     -1.176501
      13A     -1.073072    14A     -1.025516    15A     -0.961029
      16A     -0.867580    17A     -0.843459    18A     -0.758745
      19A     -0.745203    20A     -0.709539    21A     -0.697873
      22A     -0.696877    23A     -0.688277    24A     -0.665295
      25A     -0.603825    26A     -0.596476    27A     -0.591145
      28A     -0.556383    29A     -0.538890    30A     -0.517328
      31A     -0.500781    32A     -0.353881    33A     -0.341577

  @DF-RHF Final Energy:  -467.60922871251279

   => Energetics <=

    Nuclear Repulsion Energy =            420.3955610501312208
    One-Electron Energy =               -1475.2590024667201760
    Two-Electron Energy =                 587.2542127040762807
    Total Energy =                       -467.6092287125127314
  Basis Set: (AUG-CC-PVTZ AUX)
    Blend: AUG-CC-PVTZ-RI
    Molecular point group: c1

    Geometry (in Angstrom), charge = 0, multiplicity = 1:

       Center              X                  Y                   Z               Mass
    ------------   -----------------  -----------------  -----------------  -----------------
         F            1.306857079903     2.356813471342     0.002712063928    18.998403162730
         F            1.306863079903    -2.356995528658     0.002713063928    18.998403162730
         C           -1.466069920097    -0.000093528658    -0.016692936072    12.000000000000
         C           -0.758365920097    -1.208048528658    -0.008893936072    12.000000000000
         C           -0.758367920097     1.207861471342    -0.008892936072    12.000000000000
         C           -2.972267920097    -0.000095528658     0.012723063928    12.000000000000
         C            0.630330079903     1.180462471342     0.000840063928    12.000000000000
         C            0.680321079903    -1.179659128658     0.001189463928    12.000000000000
         C            1.361969079903    -0.000091528658     0.007385063928    12.000000000000
         H           -1.270761920097    -2.165909528658    -0.017879936072     1.007825032230
         H           -1.270765920097     2.165722471342    -0.017878936072     1.007825032230
         H           -3.343211920097    -0.000080528658     1.043150063928     1.007825032230
         H           -3.374350920097     0.885494471342    -0.486552936072     1.007825032230
         H           -3.374348920097    -0.885701528658    -0.486525936072     1.007825032230
         H            2.446064079903    -0.000090528658     0.010375063928     1.007825032230

  Basis Set: AUG-CC-PVTZ
    Blend: AUG-CC-PVTZ
  Basis Set: (AUG-CC-PVTZ AUX)
    Blend: AUG-CC-PVTZ-JKFIT
	 Reference Energy          =    -467.6092287125127882 [Eh]
	 Singles Energy            =      -0.0000000000000000 [Eh]
	 Same-Spin Energy          =      -0.4449051812101955 [Eh]
	 Opposite-Spin Energy      =      -1.3525095786508277 [Eh]
	 Correlation Energy        =      -1.7974147598610233 [Eh]
	 Total Energy              =    -469.4066434723737871 [Eh]

	 ================> DF-SCS-MP2 Energies <==================
	-----------------------------------------------------------
	 SCS Same-Spin Scale       =       0.3333333333333333 [-]
	 SCS Opposite-Spin Scale   =       1.2000000000000000 [-]
	 SCS Same-Spin Energy      =      -0.1483017270700652 [Eh]
	 SCS Opposite-Spin Energy  =      -1.6230114943809932 [Eh]
	 SCS Correlation Energy    =      -1.7713132214510583 [Eh]
	 SCS Total Energy          =    -469.3805419339638547 [Eh]
	-----------------------------------------------------------

  Dipole Moment: [D]
     X:    -1.8896      Y:    -0.1128      Z:     0.0344     Total:     1.8932

*** Psi4 exiting successfully. Buy a developer a beer!
