                               Psi4 1.4a3.dev225

  ==> Input File <==

--------------------------------------------------------------------------
#psi4
#
memory 32 gb

molecule  {
0 1
  F        1.4077440     2.3569060     0.0024490
  F        1.4077500    -2.3569030     0.0024500
  C       -1.3651830    -0.0000010    -0.0169560
  C       -0.6574790    -1.2079560    -0.0091570
  C       -0.6574810     1.2079540    -0.0091560
  C       -2.8713810    -0.0000030     0.0124600
  C        0.7312170     1.1805550     0.0005770
  C        0.6812300    -1.1815394     0.0002256
  C        1.4628560     0.0000010     0.0071220
  H       -1.1698750    -2.1658170    -0.0181430
  H       -1.1698790     2.1658150    -0.0181420
  H       -3.2423250     0.0000120     1.0428870
  H       -3.2734640     0.8855870    -0.4868160
  H       -3.2734620    -0.8856090    -0.4867890
  H        2.5469510     0.0000020     0.0101120
units angstrom
no_reorient  #important for SAPT in psi4, default
symmetry c1  #important for SAPT in psi4, default
}

set PROPERTIES_ORIGIN ["COM"]
properties('MP2/aug-cc-pvtz', properties = ['dipole'])
--------------------------------------------------------------------------

    Molecular point group: c1
  Charge       = 0
  Multiplicity = 1
  Basis Set: AUG-CC-PVTZ
    Blend: AUG-CC-PVTZ
  Basis Set: (AUG-CC-PVTZ AUX)
    Blend: AUG-CC-PVTZ-JKFIT

    Orbital Energies [Eh]
    ---------------------

    Doubly Occupied:

       1A    -26.316867     2A    -26.309488     3A    -11.345751
       4A    -11.343596     5A    -11.276698     6A    -11.254307
       7A    -11.247761     8A    -11.243433     9A    -11.243177
      10A     -1.630050    11A     -1.615180    12A     -1.183930
      13A     -1.068224    14A     -1.041043    15A     -0.964451
      16A     -0.858177    17A     -0.845469    18A     -0.750283
      19A     -0.737242    20A     -0.700252    21A     -0.699533
      22A     -0.686835    23A     -0.685075    24A     -0.659046
      25A     -0.602195    26A     -0.599482    27A     -0.594196
      28A     -0.555416    29A     -0.541150    30A     -0.529480
      31A     -0.505690    32A     -0.358348    33A     -0.346356

  @DF-RHF Final Energy:  -467.60800114586527

   => Energetics <=

    Nuclear Repulsion Energy =            420.6431337401165820
    One-Electron Energy =               -1475.8259062049532986
    Two-Electron Energy =                 587.5747713189714432
    Total Energy =                       -467.6080011458652734
  Basis Set: (AUG-CC-PVTZ AUX)
    Blend: AUG-CC-PVTZ-RI
    Molecular point group: c1

    Geometry (in Angstrom), charge = 0, multiplicity = 1:

       Center              X                  Y                   Z               Mass
    ------------   -----------------  -----------------  -----------------  -----------------
         F            1.316226814380     2.356998358139     0.002777741477    18.998403162730
         F            1.316232814380    -2.356810641861     0.002778741477    18.998403162730
         C           -1.456700185620     0.000091358139    -0.016627258523    12.000000000000
         C           -0.748996185620    -1.207863641861    -0.008828258523    12.000000000000
         C           -0.748998185620     1.208046358139    -0.008827258523    12.000000000000
         C           -2.962898185620     0.000089358139     0.012788741477    12.000000000000
         C            0.639699814380     1.180647358139     0.000905741477    12.000000000000
         C            0.589712814380    -1.181447041861     0.000554341477    12.000000000000
         C            1.371338814380     0.000093358139     0.007450741477    12.000000000000
         H           -1.261392185620    -2.165724641861    -0.017814258523     1.007825032230
         H           -1.261396185620     2.165907358139    -0.017813258523     1.007825032230
         H           -3.333842185620     0.000104358139     1.043215741477     1.007825032230
         H           -3.364981185620     0.885679358139    -0.486487258523     1.007825032230
         H           -3.364979185620    -0.885516641861    -0.486460258523     1.007825032230
         H            2.455433814380     0.000094358139     0.010440741477     1.007825032230

  Basis Set: AUG-CC-PVTZ
    Blend: AUG-CC-PVTZ
  Basis Set: (AUG-CC-PVTZ AUX)
    Blend: AUG-CC-PVTZ-JKFIT
	 Reference Energy          =    -467.6080011458652734 [Eh]
	 Singles Energy            =      -0.0000000000000000 [Eh]
	 Same-Spin Energy          =      -0.4451071928435897 [Eh]
	 Opposite-Spin Energy      =      -1.3533265866840414 [Eh]
	 Correlation Energy        =      -1.7984337795276311 [Eh]
	 Total Energy              =    -469.4064349253928867 [Eh]

	 ================> DF-SCS-MP2 Energies <==================
	-----------------------------------------------------------
	 SCS Same-Spin Scale       =       0.3333333333333333 [-]
	 SCS Opposite-Spin Scale   =       1.2000000000000000 [-]
	 SCS Same-Spin Energy      =      -0.1483690642811966 [Eh]
	 SCS Opposite-Spin Energy  =      -1.6239919040208497 [Eh]
	 SCS Correlation Energy    =      -1.7723609683020463 [Eh]
	 SCS Total Energy          =    -469.3803621141673261 [Eh]
	-----------------------------------------------------------

  Dipole Moment: [D]
     X:    -2.2061      Y:     0.1106      Z:     0.0327     Total:     2.2091

*** Psi4 exiting successfully. Buy a developer a beer!
