                               Psi4 1.4a3.dev225

  ==> Input File <==

--------------------------------------------------------------------------
#psi4
#
memory 32 gb

molecule  {
0 1
  F        1.4077440     2.3569060     0.0024490
  F        1.4077500    -2.3569030     0.0024500
  C       -1.3651830    -0.0000010    -0.0169560
  C       -0.6574790    -1.2079560    -0.0091570
  C       -0.6574810     1.2079540    -0.0091560
  C       -2.8713810    -0.0000030     0.0124600
  C        0.7312170     1.1805550     0.0005770
  C        0.5312628    -1.1844987    -0.0008254
  C        1.4628560     0.0000010     0.0071220
  H       -1.1698750    -2.1658170    -0.0181430
  H       -1.1698790     2.1658150    -0.0181420
  H       -3.2423250     0.0000120     1.0428870
  H       -3.2734640     0.8855870    -0.4868160
  H       -3.2734620    -0.8856090    -0.4867890
  H        2.5469510     0.0000020     0.0101120
units angstrom
no_reorient  #important for SAPT in psi4, default
symmetry c1  #important for SAPT in psi4, default
}

set PROPERTIES_ORIGIN ["COM"]
properties('MP2/aug-cc-pvtz', properties = ['dipole'])
--------------------------------------------------------------------------

    Molecular point group: c1
  Charge       = 0
  Multiplicity = 1
  Basis Set: AUG-CC-PVTZ
    Blend: AUG-CC-PVTZ
  Basis Set: (AUG-CC-PVTZ AUX)
    Blend: AUG-CC-PVTZ-JKFIT

    Orbital Energies [Eh]
    ---------------------

    Doubly Occupied:

       1A    -26.315950     2A    -26.284880     3A    -11.344378
       4A    -11.333272     5A    -11.283382     6A    -11.262016
       7A    -11.252692     8A    -11.247337     9A    -11.231238
      10A     -1.629514    11A     -1.570571    12A     -1.204220
      13A     -1.072705    14A     -1.061832    15A     -0.964176
      16A     -0.854315    17A     -0.841007    18A     -0.738180
      19A     -0.733389    20A     -0.708189    21A     -0.698084
      22A     -0.676341    23A     -0.658908    24A     -0.645729
      25A     -0.600373    26A     -0.599439    27A     -0.595492
      28A     -0.555912    29A     -0.539380    30A     -0.530618
      31A     -0.518729    32A     -0.388250    33A     -0.337346

  @DF-RHF Final Energy:  -467.54666460209444

   => Energetics <=

    Nuclear Repulsion Energy =            421.3057891821326280
    One-Electron Energy =               -1477.1492198559228655
    Two-Electron Energy =                 588.2967660716957425
    Total Energy =                       -467.5466646020944381
  Basis Set: (AUG-CC-PVTZ AUX)
    Blend: AUG-CC-PVTZ-RI
    Molecular point group: c1

    Geometry (in Angstrom), charge = 0, multiplicity = 1:

       Center              X                  Y                   Z               Mass
    ------------   -----------------  -----------------  -----------------  -----------------
         F            1.330281434838     2.357275697706     0.002876239055    18.998403162730
         F            1.330287434838    -2.356533302294     0.002877239055    18.998403162730
         C           -1.442645565162     0.000368697706    -0.016528760945    12.000000000000
         C           -0.734941565162    -1.207586302294    -0.008729760945    12.000000000000
         C           -0.734943565162     1.208323697706    -0.008728760945    12.000000000000
         C           -2.948843565162     0.000366697706     0.012887239055    12.000000000000
         C            0.653754434838     1.180924697706     0.001004239055    12.000000000000
         C            0.453800234838    -1.184129002294    -0.000398160945    12.000000000000
         C            1.385393434838     0.000370697706     0.007549239055    12.000000000000
         H           -1.247337565162    -2.165447302294    -0.017715760945     1.007825032230
         H           -1.247341565162     2.166184697706    -0.017714760945     1.007825032230
         H           -3.319787565162     0.000381697706     1.043314239055     1.007825032230
         H           -3.350926565162     0.885956697706    -0.486388760945     1.007825032230
         H           -3.350924565162    -0.885239302294    -0.486361760945     1.007825032230
         H            2.469488434838     0.000371697706     0.010539239055     1.007825032230

  Basis Set: AUG-CC-PVTZ
    Blend: AUG-CC-PVTZ
  Basis Set: (AUG-CC-PVTZ AUX)
    Blend: AUG-CC-PVTZ-JKFIT
	 Reference Energy          =    -467.5466646020944381 [Eh]
	 Singles Energy            =      -0.0000000000000000 [Eh]
	 Same-Spin Energy          =      -0.4447600275466502 [Eh]
	 Opposite-Spin Energy      =      -1.3564259032279651 [Eh]
	 Correlation Energy        =      -1.8011859307746154 [Eh]
	 Total Energy              =    -469.3478505328690744 [Eh]

	 ================> DF-SCS-MP2 Energies <==================
	-----------------------------------------------------------
	 SCS Same-Spin Scale       =       0.3333333333333333 [-]
	 SCS Opposite-Spin Scale   =       1.2000000000000000 [-]
	 SCS Same-Spin Energy      =      -0.1482533425155501 [Eh]
	 SCS Opposite-Spin Energy  =      -1.6277110838735580 [Eh]
	 SCS Correlation Energy    =      -1.7759644263891081 [Eh]
	 SCS Total Energy          =    -469.3226290284835613 [Eh]
	-----------------------------------------------------------

  Dipole Moment: [D]
     X:    -2.7421      Y:     0.4211      Z:     0.0295     Total:     2.7744

*** Psi4 exiting successfully. Buy a developer a beer!
