                               Psi4 1.4a3.dev225

  ==> Input File <==

--------------------------------------------------------------------------
#psi4
#
memory 32 gb

molecule  {
0 1
  F        1.4077440     2.3569060     0.0024490
  F        1.4077500    -2.3569030     0.0024500
  C       -1.3651830    -0.0000010    -0.0169560
  C       -0.6574790    -1.2079560    -0.0091570
  C       -0.6574810     1.2079540    -0.0091560
  C       -2.8713810    -0.0000030     0.0124600
  C        0.7312170     1.1805550     0.0005770
  C        0.6312409    -1.1825259    -0.0001247
  C        1.4628560     0.0000010     0.0071220
  H       -1.1698750    -2.1658170    -0.0181430
  H       -1.1698790     2.1658150    -0.0181420
  H       -3.2423250     0.0000120     1.0428870
  H       -3.2734640     0.8855870    -0.4868160
  H       -3.2734620    -0.8856090    -0.4867890
  H        2.5469510     0.0000020     0.0101120
units angstrom
no_reorient  #important for SAPT in psi4, default
symmetry c1  #important for SAPT in psi4, default
}

set PROPERTIES_ORIGIN ["COM"]
properties('MP2/aug-cc-pvtz', properties = ['dipole'])
--------------------------------------------------------------------------

    Molecular point group: c1
  Charge       = 0
  Multiplicity = 1
  Basis Set: AUG-CC-PVTZ
    Blend: AUG-CC-PVTZ
  Basis Set: (AUG-CC-PVTZ AUX)
    Blend: AUG-CC-PVTZ-JKFIT

    Orbital Energies [Eh]
    ---------------------

    Doubly Occupied:

       1A    -26.316603     2A    -26.301632     3A    -11.345380
       4A    -11.340641     5A    -11.278915     6A    -11.256980
       7A    -11.249272     8A    -11.244548     9A    -11.239874
      10A     -1.629917    11A     -1.600250    12A     -1.189250
      13A     -1.066064    14A     -1.050864    15A     -0.964933
      16A     -0.853498    17A     -0.847110    18A     -0.746227
      19A     -0.734873    20A     -0.702569    21A     -0.698815
      22A     -0.682316    23A     -0.677569    24A     -0.654960
      25A     -0.601388    26A     -0.599463    27A     -0.595619
      28A     -0.554637    29A     -0.540784    30A     -0.533345
      31A     -0.509113    32A     -0.367885    33A     -0.343006

  @DF-RHF Final Energy:  -467.59684775055251

   => Energetics <=

    Nuclear Repulsion Energy =            420.8164416527382627
    One-Electron Energy =               -1476.1899759525606441
    Two-Electron Energy =                 587.7766865492700390
    Total Energy =                       -467.5968477505524561
  Basis Set: (AUG-CC-PVTZ AUX)
    Blend: AUG-CC-PVTZ-RI
    Molecular point group: c1

    Geometry (in Angstrom), charge = 0, multiplicity = 1:

       Center              X                  Y                   Z               Mass
    ------------   -----------------  -----------------  -----------------  -----------------
         F            1.320911690990     2.357090810909     0.002810570879    18.998403162730
         F            1.320917690990    -2.356718189091     0.002811570879    18.998403162730
         C           -1.452015309010     0.000183810909    -0.016594429121    12.000000000000
         C           -0.744311309010    -1.207771189091    -0.008795429121    12.000000000000
         C           -0.744313309010     1.208138810909    -0.008794429121    12.000000000000
         C           -2.958213309010     0.000181810909     0.012821570879    12.000000000000
         C            0.644384690990     1.180739810909     0.000938570879    12.000000000000
         C            0.544408590990    -1.182341089091     0.000236870879    12.000000000000
         C            1.376023690990     0.000185810909     0.007483570879    12.000000000000
         H           -1.256707309010    -2.165632189091    -0.017781429121     1.007825032230
         H           -1.256711309010     2.165999810909    -0.017780429121     1.007825032230
         H           -3.329157309010     0.000196810909     1.043248570879     1.007825032230
         H           -3.360296309010     0.885771810909    -0.486454429121     1.007825032230
         H           -3.360294309010    -0.885424189091    -0.486427429121     1.007825032230
         H            2.460118690990     0.000186810909     0.010473570879     1.007825032230

  Basis Set: AUG-CC-PVTZ
    Blend: AUG-CC-PVTZ
  Basis Set: (AUG-CC-PVTZ AUX)
    Blend: AUG-CC-PVTZ-JKFIT
	 Reference Energy          =    -467.5968477505525129 [Eh]
	 Singles Energy            =      -0.0000000000000000 [Eh]
	 Same-Spin Energy          =      -0.4450356779400962 [Eh]
	 Opposite-Spin Energy      =      -1.3541314732200957 [Eh]
	 Correlation Energy        =      -1.7991671511601921 [Eh]
	 Total Energy              =    -469.3960149017127037 [Eh]

	 ================> DF-SCS-MP2 Energies <==================
	-----------------------------------------------------------
	 SCS Same-Spin Scale       =       0.3333333333333333 [-]
	 SCS Opposite-Spin Scale   =       1.2000000000000000 [-]
	 SCS Same-Spin Energy      =      -0.1483452259800321 [Eh]
	 SCS Opposite-Spin Energy  =      -1.6249577678641149 [Eh]
	 SCS Correlation Energy    =      -1.7733029938441469 [Eh]
	 SCS Total Energy          =    -469.3701507443966534 [Eh]
	-----------------------------------------------------------

  Dipole Moment: [D]
     X:    -2.3740      Y:     0.2179      Z:     0.0318     Total:     2.3842

*** Psi4 exiting successfully. Buy a developer a beer!
