                               Psi4 1.4a3.dev225

  ==> Input File <==

--------------------------------------------------------------------------
#psi4
#
memory 32 gb

molecule  {
0 1
  F        1.4077440     2.3569060     0.0024490
  F        1.4077500    -2.3569030     0.0024500
  C       -1.3651830    -0.0000010    -0.0169560
  C       -0.6574790    -1.2079560    -0.0091570
  C       -0.6574810     1.2079540    -0.0091560
  C       -2.8713810    -0.0000030     0.0124600
  C        0.7312170     1.1805550     0.0005770
  C        0.7312190    -1.1805530     0.0005760
  C        1.4628560     0.0000010     0.0071220
  H       -1.1698750    -2.1658170    -0.0181430
  H       -1.1698790     2.1658150    -0.0181420
  H       -3.2423250     0.0000120     1.0428870
  H       -3.2661083     0.8693861    -0.4776823
  H       -3.2734620    -0.8856090    -0.4867890
  H        2.5469510     0.0000020     0.0101120
units angstrom
no_reorient  #important for SAPT in psi4, default
symmetry c1  #important for SAPT in psi4, default
}

set PROPERTIES_ORIGIN ["COM"]
properties('MP2/aug-cc-pvtz', properties = ['dipole'])
--------------------------------------------------------------------------

    Molecular point group: c1
  Charge       = 0
  Multiplicity = 1
  Basis Set: AUG-CC-PVTZ
    Blend: AUG-CC-PVTZ
  Basis Set: (AUG-CC-PVTZ AUX)
    Blend: AUG-CC-PVTZ-JKFIT

    Orbital Energies [Eh]
    ---------------------

    Doubly Occupied:

       1A    -26.317039     2A    -26.317005     3A    -11.345984
       4A    -11.345935     5A    -11.274288     6A    -11.251478
       7A    -11.246379     8A    -11.246258     9A    -11.239415
      10A     -1.630336    11A     -1.629787    12A     -1.179714
      13A     -1.070927    14A     -1.032414    15A     -0.964431
      16A     -0.862965    17A     -0.844470    18A     -0.754610
      19A     -0.740831    20A     -0.702132    21A     -0.698406
      22A     -0.694224    23A     -0.687234    24A     -0.662596
      25A     -0.604015    26A     -0.598326    27A     -0.593490
      28A     -0.556841    29A     -0.541512    30A     -0.524159
      31A     -0.503007    32A     -0.349992    33A     -0.349464

  @DF-RHF Final Energy:  -467.61184068311422

   => Energetics <=

    Nuclear Repulsion Energy =            420.5923820480498421
    One-Electron Energy =               -1475.6891179137951440
    Two-Electron Energy =                 587.4848951826311350
    Total Energy =                       -467.6118406831142238
  Basis Set: (AUG-CC-PVTZ AUX)
    Blend: AUG-CC-PVTZ-RI
    Molecular point group: c1

    Geometry (in Angstrom), charge = 0, multiplicity = 1:

       Center              X                  Y                   Z               Mass
    ------------   -----------------  -----------------  -----------------  -----------------
         F            1.311484050850     2.357033431091     0.002673011876    18.998403162730
         F            1.311490050850    -2.356775568909     0.002674011876    18.998403162730
         C           -1.461442949150     0.000126431091    -0.016731988124    12.000000000000
         C           -0.753738949150    -1.207828568909    -0.008932988124    12.000000000000
         C           -0.753740949150     1.208081431091    -0.008931988124    12.000000000000
         C           -2.967640949150     0.000124431091     0.012684011876    12.000000000000
         C            0.634957050850     1.180682431091     0.000801011876    12.000000000000
         C            0.634959050850    -1.180425568909     0.000800011876    12.000000000000
         C            1.366596050850     0.000128431091     0.007346011876    12.000000000000
         H           -1.266134949150    -2.165689568909    -0.017918988124     1.007825032230
         H           -1.266138949150     2.165942431091    -0.017917988124     1.007825032230
         H           -3.338584949150     0.000139431091     1.043111011876     1.007825032230
         H           -3.362368249150     0.869513531091    -0.477458288124     1.007825032230
         H           -3.369721949150    -0.885481568909    -0.486564988124     1.007825032230
         H            2.450691050850     0.000129431091     0.010336011876     1.007825032230

  Basis Set: AUG-CC-PVTZ
    Blend: AUG-CC-PVTZ
  Basis Set: (AUG-CC-PVTZ AUX)
    Blend: AUG-CC-PVTZ-JKFIT
	 Reference Energy          =    -467.6118406831142238 [Eh]
	 Singles Energy            =      -0.0000000000000000 [Eh]
	 Same-Spin Energy          =      -0.4450615907890496 [Eh]
	 Opposite-Spin Energy      =      -1.3526531332953120 [Eh]
	 Correlation Energy        =      -1.7977147240843616 [Eh]
	 Total Energy              =    -469.4095554071985816 [Eh]

	 ================> DF-SCS-MP2 Energies <==================
	-----------------------------------------------------------
	 SCS Same-Spin Scale       =       0.3333333333333333 [-]
	 SCS Opposite-Spin Scale   =       1.2000000000000000 [-]
	 SCS Same-Spin Energy      =      -0.1483538635963499 [Eh]
	 SCS Opposite-Spin Energy  =      -1.6231837599543744 [Eh]
	 SCS Correlation Energy    =      -1.7715376235507243 [Eh]
	 SCS Total Energy          =    -469.3833783066649517 [Eh]
	-----------------------------------------------------------

  Dipole Moment: [D]
     X:    -2.0530      Y:     0.0059      Z:     0.0306     Total:     2.0532

*** Psi4 exiting successfully. Buy a developer a beer!
