                               Psi4 1.4a3.dev225

  ==> Input File <==

--------------------------------------------------------------------------
#psi4
#
memory 32 gb

molecule  {
0 1
  F        1.4077440     2.3569060     0.0024490
  F        1.4077500    -2.3569030     0.0024500
  C       -1.3651830    -0.0000010    -0.0169560
  C       -0.6574790    -1.2079560    -0.0091570
  C       -0.6574810     1.2079540    -0.0091560
  C       -2.8713810    -0.0000030     0.0124600
  C        0.7312170     1.1805550     0.0005770
  C        0.7312190    -1.1805530     0.0005760
  C        1.4628560     0.0000010     0.0071220
  H       -1.1698750    -2.1658170    -0.0181430
  H       -1.1698790     2.1658150    -0.0181420
  H       -3.2423250     0.0000120     1.0428870
  H       -3.3102424     0.9665915    -0.5324846
  H       -3.2734620    -0.8856090    -0.4867890
  H        2.5469510     0.0000020     0.0101120
units angstrom
no_reorient  #important for SAPT in psi4, default
symmetry c1  #important for SAPT in psi4, default
}

set PROPERTIES_ORIGIN ["COM"]
properties('MP2/aug-cc-pvtz', properties = ['dipole'])
--------------------------------------------------------------------------

    Molecular point group: c1
  Charge       = 0
  Multiplicity = 1
  Basis Set: AUG-CC-PVTZ
    Blend: AUG-CC-PVTZ
  Basis Set: (AUG-CC-PVTZ AUX)
    Blend: AUG-CC-PVTZ-JKFIT

    Orbital Energies [Eh]
    ---------------------

    Doubly Occupied:

       1A    -26.317442     2A    -26.317254     3A    -11.346466
       4A    -11.346211     5A    -11.275380     6A    -11.253429
       7A    -11.251943     8A    -11.247233     9A    -11.246613
      10A     -1.630665    11A     -1.630086    12A     -1.180060
      13A     -1.069462    14A     -1.032844    15A     -0.958206
      16A     -0.863258    17A     -0.842452    18A     -0.753786
      19A     -0.740850    20A     -0.702453    21A     -0.698790
      22A     -0.694539    23A     -0.686973    24A     -0.662715
      25A     -0.601765    26A     -0.598973    27A     -0.588291
      28A     -0.553883    29A     -0.531689    30A     -0.523718
      31A     -0.502271    32A     -0.350319    33A     -0.349798

  @DF-RHF Final Energy:  -467.60515315327410

   => Energetics <=

    Nuclear Repulsion Energy =            420.1014715611486849
    One-Electron Energy =               -1474.7136239563230902
    Two-Electron Energy =                 587.0069992419004166
    Total Energy =                       -467.6051531532740455
  Basis Set: (AUG-CC-PVTZ AUX)
    Blend: AUG-CC-PVTZ-RI
    Molecular point group: c1

    Geometry (in Angstrom), charge = 0, multiplicity = 1:

       Center              X                  Y                   Z               Mass
    ------------   -----------------  -----------------  -----------------  -----------------
         F            1.311831427809     2.356268332987     0.003104357623    18.998403162730
         F            1.311837427809    -2.357540667013     0.003105357623    18.998403162730
         C           -1.461095572191    -0.000638667013    -0.016300642377    12.000000000000
         C           -0.753391572191    -1.208593667013    -0.008501642377    12.000000000000
         C           -0.753393572191     1.207316332987    -0.008500642377    12.000000000000
         C           -2.967293572191    -0.000640667013     0.013115357623    12.000000000000
         C            0.635304427809     1.179917332987     0.001232357623    12.000000000000
         C            0.635306427809    -1.181190667013     0.001231357623    12.000000000000
         C            1.366943427809    -0.000636667013     0.007777357623    12.000000000000
         H           -1.265787572191    -2.166454667013    -0.017487642377     1.007825032230
         H           -1.265791572191     2.165177332987    -0.017486642377     1.007825032230
         H           -3.338237572191    -0.000625667013     1.043542357623     1.007825032230
         H           -3.406154972191     0.965953832987    -0.531829242377     1.007825032230
         H           -3.369374572191    -0.886246667013    -0.486133642377     1.007825032230
         H            2.451038427809    -0.000635667013     0.010767357623     1.007825032230

  Basis Set: AUG-CC-PVTZ
    Blend: AUG-CC-PVTZ
  Basis Set: (AUG-CC-PVTZ AUX)
    Blend: AUG-CC-PVTZ-JKFIT
	 Reference Energy          =    -467.6051531532741024 [Eh]
	 Singles Energy            =      -0.0000000000000000 [Eh]
	 Same-Spin Energy          =      -0.4450961917934255 [Eh]
	 Opposite-Spin Energy      =      -1.3535440836738990 [Eh]
	 Correlation Energy        =      -1.7986402754673245 [Eh]
	 Total Energy              =    -469.4037934287414373 [Eh]

	 ================> DF-SCS-MP2 Energies <==================
	-----------------------------------------------------------
	 SCS Same-Spin Scale       =       0.3333333333333333 [-]
	 SCS Opposite-Spin Scale   =       1.2000000000000000 [-]
	 SCS Same-Spin Energy      =      -0.1483653972644751 [Eh]
	 SCS Opposite-Spin Energy  =      -1.6242529004086788 [Eh]
	 SCS Correlation Energy    =      -1.7726182976731539 [Eh]
	 SCS Total Energy          =    -469.3777714509472503 [Eh]
	-----------------------------------------------------------

  Dipole Moment: [D]
     X:    -2.0014      Y:    -0.0348      Z:     0.0518     Total:     2.0023

*** Psi4 exiting successfully. Buy a developer a beer!
