                               Psi4 1.4a3.dev225

  ==> Input File <==

--------------------------------------------------------------------------
#psi4
#
memory 32 gb

molecule  {
0 1
  F        1.4077440     2.3569060     0.0024490
  F        1.4077500    -2.3569030     0.0024500
  C       -1.3651830    -0.0000010    -0.0169560
  C       -0.6574790    -1.2079560    -0.0091570
  C       -0.6574810     1.2079540    -0.0091560
  C       -2.8713810    -0.0000030     0.0124600
  C        0.7312170     1.1805550     0.0005770
  C        0.7312190    -1.1805530     0.0005760
  C        1.3575009     0.1699993     0.0061795
  H       -1.1698750    -2.1658170    -0.0181430
  H       -1.1698790     2.1658150    -0.0181420
  H       -3.2423250     0.0000120     1.0428870
  H       -3.2734640     0.8855870    -0.4868160
  H       -3.2734620    -0.8856090    -0.4867890
  H        2.5469510     0.0000020     0.0101120
units angstrom
no_reorient  #important for SAPT in psi4, default
symmetry c1  #important for SAPT in psi4, default
}

set PROPERTIES_ORIGIN ["COM"]
properties('MP2/aug-cc-pvtz', properties = ['dipole'])
--------------------------------------------------------------------------

    Molecular point group: c1
  Charge       = 0
  Multiplicity = 1
  Basis Set: AUG-CC-PVTZ
    Blend: AUG-CC-PVTZ
  Basis Set: (AUG-CC-PVTZ AUX)
    Blend: AUG-CC-PVTZ-JKFIT

    Orbital Energies [Eh]
    ---------------------

    Doubly Occupied:

       1A    -26.330099     2A    -26.307016     3A    -11.357356
       4A    -11.313352     5A    -11.271343     6A    -11.248428
       7A    -11.246669     8A    -11.244522     9A    -11.240595
      10A     -1.638521    11A     -1.623577    12A     -1.195833
      13A     -1.087354    14A     -1.031468    15A     -0.962615
      16A     -0.870361    17A     -0.836124    18A     -0.758483
      19A     -0.745832    20A     -0.707649    21A     -0.699590
      22A     -0.694913    23A     -0.682168    24A     -0.659457
      25A     -0.613487    26A     -0.592196    27A     -0.574050
      28A     -0.556595    29A     -0.539667    30A     -0.515463
      31A     -0.500456    32A     -0.377523    33A     -0.335937

  @DF-RHF Final Energy:  -467.54570016743293

   => Energetics <=

    Nuclear Repulsion Energy =            422.7709403650835611
    One-Electron Energy =               -1479.9158855130190204
    Two-Electron Energy =                 589.5992449805024762
    Total Energy =                       -467.5457001674329831
  Basis Set: (AUG-CC-PVTZ AUX)
    Blend: AUG-CC-PVTZ-RI
    Molecular point group: c1

    Geometry (in Angstrom), charge = 0, multiplicity = 1:

       Center              X                  Y                   Z               Mass
    ------------   -----------------  -----------------  -----------------  -----------------
         F            1.321415612475     2.340974020398     0.002833231882    18.998403162730
         F            1.321421612475    -2.372834979602     0.002834231882    18.998403162730
         C           -1.451511387525    -0.015932979602    -0.016571768118    12.000000000000
         C           -0.743807387525    -1.223887979602    -0.008772768118    12.000000000000
         C           -0.743809387525     1.192022020398    -0.008771768118    12.000000000000
         C           -2.957709387525    -0.015934979602     0.012844231882    12.000000000000
         C            0.644888612475     1.164623020398     0.000961231882    12.000000000000
         C            0.644890612475    -1.196484979602     0.000960231882    12.000000000000
         C            1.271172512475     0.154067320398     0.006563731882    12.000000000000
         H           -1.256203387525    -2.181748979602    -0.017758768118     1.007825032230
         H           -1.256207387525     2.149883020398    -0.017757768118     1.007825032230
         H           -3.328653387525    -0.015919979602     1.043271231882     1.007825032230
         H           -3.359792387525     0.869655020398    -0.486431768118     1.007825032230
         H           -3.359790387525    -0.901540979602    -0.486404768118     1.007825032230
         H            2.460622612475    -0.015929979602     0.010496231882     1.007825032230

  Basis Set: AUG-CC-PVTZ
    Blend: AUG-CC-PVTZ
  Basis Set: (AUG-CC-PVTZ AUX)
    Blend: AUG-CC-PVTZ-JKFIT
	 Reference Energy          =    -467.5457001674329263 [Eh]
	 Singles Energy            =      -0.0000000000000000 [Eh]
	 Same-Spin Energy          =      -0.4450391390942517 [Eh]
	 Opposite-Spin Energy      =      -1.3545418700237515 [Eh]
	 Correlation Energy        =      -1.7995810091180031 [Eh]
	 Total Energy              =    -469.3452811765509409 [Eh]

	 ================> DF-SCS-MP2 Energies <==================
	-----------------------------------------------------------
	 SCS Same-Spin Scale       =       0.3333333333333333 [-]
	 SCS Opposite-Spin Scale   =       1.2000000000000000 [-]
	 SCS Same-Spin Energy      =      -0.1483463796980839 [Eh]
	 SCS Opposite-Spin Energy  =      -1.6254502440285017 [Eh]
	 SCS Correlation Energy    =      -1.7737966237265856 [Eh]
	 SCS Total Energy          =    -469.3194967911595086 [Eh]
	-----------------------------------------------------------

  Dipole Moment: [D]
     X:    -2.0118      Y:    -0.3416      Z:     0.0343     Total:     2.0409

*** Psi4 exiting successfully. Buy a developer a beer!
