                               Psi4 1.4a3.dev225

  ==> Input File <==

--------------------------------------------------------------------------
#psi4
#
memory 32 gb

molecule  {
0 1
  F        1.4077440     2.3569060     0.0024490
  F        1.4077500    -2.3569030     0.0024500
  C       -1.3651830    -0.0000010    -0.0169560
  C       -0.6574790    -1.2079560    -0.0091570
  C       -0.6574810     1.2079540    -0.0091560
  C       -2.8713810    -0.0000030     0.0124600
  C        0.7312170     1.1805550     0.0005770
  C        0.7312190    -1.1805530     0.0005760
  C        1.4628560     0.0000010     0.0071220
  H       -1.1698750    -2.1658170    -0.0181430
  H       -1.1698790     2.1658150    -0.0181420
  H       -3.2253894     0.0000113     0.9958425
  H       -3.2734640     0.8855870    -0.4868160
  H       -3.2734620    -0.8856090    -0.4867890
  H        2.5469510     0.0000020     0.0101120
units angstrom
no_reorient  #important for SAPT in psi4, default
symmetry c1  #important for SAPT in psi4, default
}

set PROPERTIES_ORIGIN ["COM"]
properties('MP2/aug-cc-pvtz', properties = ['dipole'])
--------------------------------------------------------------------------

    Molecular point group: c1
  Charge       = 0
  Multiplicity = 1
  Basis Set: AUG-CC-PVTZ
    Blend: AUG-CC-PVTZ
  Basis Set: (AUG-CC-PVTZ AUX)
    Blend: AUG-CC-PVTZ-JKFIT

    Orbital Energies [Eh]
    ---------------------

    Doubly Occupied:

       1A    -26.316982     2A    -26.316981     3A    -11.345910
       4A    -11.345905     5A    -11.274143     6A    -11.251396
       7A    -11.246250     8A    -11.246212     9A    -11.235822
      10A     -1.630295    11A     -1.629747    12A     -1.179703
      13A     -1.071550    14A     -1.032343    15A     -0.966519
      16A     -0.862878    17A     -0.845135    18A     -0.754964
      19A     -0.740697    20A     -0.702098    21A     -0.698371
      22A     -0.694182    23A     -0.687027    24A     -0.662596
      25A     -0.604067    26A     -0.602917    27A     -0.595947
      28A     -0.555938    29A     -0.539876    30A     -0.524310
      31A     -0.504007    32A     -0.350313    33A     -0.349408

  @DF-RHF Final Energy:  -467.61083103080068

   => Energetics <=

    Nuclear Repulsion Energy =            420.7298658995629808
    One-Electron Energy =               -1475.9524141782258084
    Two-Electron Energy =                 587.6117172478620887
    Total Energy =                       -467.6108310308006821
  Basis Set: (AUG-CC-PVTZ AUX)
    Blend: AUG-CC-PVTZ-RI
    Molecular point group: c1

    Geometry (in Angstrom), charge = 0, multiplicity = 1:

       Center              X                  Y                   Z               Mass
    ------------   -----------------  -----------------  -----------------  -----------------
         F            1.311408648009     2.356905920250     0.003115187252    18.998403162730
         F            1.311414648009    -2.356903079750     0.003116187252    18.998403162730
         C           -1.461518351991    -0.000001079750    -0.016289812748    12.000000000000
         C           -0.753814351991    -1.207956079750    -0.008490812748    12.000000000000
         C           -0.753816351991     1.207953920250    -0.008489812748    12.000000000000
         C           -2.967716351991    -0.000003079750     0.013126187252    12.000000000000
         C            0.634881648009     1.180554920250     0.001243187252    12.000000000000
         C            0.634883648009    -1.180553079750     0.001242187252    12.000000000000
         C            1.366520648009     0.000000920250     0.007788187252    12.000000000000
         H           -1.266210351991    -2.165817079750    -0.017476812748     1.007825032230
         H           -1.266214351991     2.165814920250    -0.017475812748     1.007825032230
         H           -3.321724751991     0.000011220250     0.996508687252     1.007825032230
         H           -3.369799351991     0.885586920250    -0.486149812748     1.007825032230
         H           -3.369797351991    -0.885609079750    -0.486122812748     1.007825032230
         H            2.450615648009     0.000001920250     0.010778187252     1.007825032230

  Basis Set: AUG-CC-PVTZ
    Blend: AUG-CC-PVTZ
  Basis Set: (AUG-CC-PVTZ AUX)
    Blend: AUG-CC-PVTZ-JKFIT
	 Reference Energy          =    -467.6108310308006821 [Eh]
	 Singles Energy            =      -0.0000000000000000 [Eh]
	 Same-Spin Energy          =      -0.4450702806877594 [Eh]
	 Opposite-Spin Energy      =      -1.3525092941654733 [Eh]
	 Correlation Energy        =      -1.7975795748532328 [Eh]
	 Total Energy              =    -469.4084106056538985 [Eh]

	 ================> DF-SCS-MP2 Energies <==================
	-----------------------------------------------------------
	 SCS Same-Spin Scale       =       0.3333333333333333 [-]
	 SCS Opposite-Spin Scale   =       1.2000000000000000 [-]
	 SCS Same-Spin Energy      =      -0.1483567602292531 [Eh]
	 SCS Opposite-Spin Energy  =      -1.6230111529985678 [Eh]
	 SCS Correlation Energy    =      -1.7713679132278208 [Eh]
	 SCS Total Energy          =    -469.3821989440285165 [Eh]
	-----------------------------------------------------------

  Dipole Moment: [D]
     X:    -2.0610      Y:     0.0000      Z:     0.0464     Total:     2.0615

*** Psi4 exiting successfully. Buy a developer a beer!
