                               Psi4 1.4a3.dev225

  ==> Input File <==

--------------------------------------------------------------------------
#psi4
#
memory 32 gb

molecule  {
0 1
  F        1.4077440     2.3569060     0.0024490
  F        1.4077500    -2.3569030     0.0024500
  C       -1.3651830    -0.0000010    -0.0169560
  C       -0.6574790    -1.2079560    -0.0091570
  C       -0.6574810     1.2079540    -0.0091560
  C       -2.8713810    -0.0000030     0.0124600
  C        0.7312170     1.1805550     0.0005770
  C        0.7312190    -1.1805530     0.0005760
  C        1.4628560     0.0000010     0.0071220
  H       -1.1698750    -2.1658170    -0.0181430
  H       -1.0755441     1.9894682    -0.0164876
  H       -3.2423250     0.0000120     1.0428870
  H       -3.2734640     0.8855870    -0.4868160
  H       -3.2734620    -0.8856090    -0.4867890
  H        2.5469510     0.0000020     0.0101120
units angstrom
no_reorient  #important for SAPT in psi4, default
symmetry c1  #important for SAPT in psi4, default
}

set PROPERTIES_ORIGIN ["COM"]
properties('MP2/aug-cc-pvtz', properties = ['dipole'])
--------------------------------------------------------------------------

    Molecular point group: c1
  Charge       = 0
  Multiplicity = 1
  Basis Set: AUG-CC-PVTZ
    Blend: AUG-CC-PVTZ
  Basis Set: (AUG-CC-PVTZ AUX)
    Blend: AUG-CC-PVTZ-JKFIT

    Orbital Energies [Eh]
    ---------------------

    Doubly Occupied:

       1A    -26.317473     2A    -26.316866     3A    -11.345847
       4A    -11.344975     5A    -11.273465     6A    -11.250552
       7A    -11.245385     8A    -11.242050     9A    -11.223314
      10A     -1.630643    11A     -1.629795    12A     -1.180929
      13A     -1.071660    14A     -1.040272    15A     -0.965657
      16A     -0.873172    17A     -0.844779    18A     -0.754460
      19A     -0.742547    20A     -0.727557    21A     -0.702185
      22A     -0.694318    23A     -0.688004    24A     -0.665328
      25A     -0.609423    26A     -0.599195    27A     -0.592963
      28A     -0.564509    29A     -0.541948    30A     -0.525111
      31A     -0.502386    32A     -0.349643    33A     -0.349057

  @DF-RHF Final Energy:  -467.57684544483681

   => Energetics <=

    Nuclear Repulsion Energy =            421.6976198485471627
    One-Electron Energy =               -1477.7379915288452139
    Two-Electron Energy =                 588.4635262354612451
    Total Energy =                       -467.5768454448367493
  Basis Set: (AUG-CC-PVTZ AUX)
    Blend: AUG-CC-PVTZ-RI
    Molecular point group: c1

    Geometry (in Angstrom), charge = 0, multiplicity = 1:

       Center              X                  Y                   Z               Mass
    ------------   -----------------  -----------------  -----------------  -----------------
         F            1.310799442577     2.358293930246     0.002731881015    18.998403162730
         F            1.310805442577    -2.355515069754     0.002732881015    18.998403162730
         C           -1.462127557423     0.001386930246    -0.016673118985    12.000000000000
         C           -0.754423557423    -1.206568069754    -0.008874118985    12.000000000000
         C           -0.754425557423     1.209341930246    -0.008873118985    12.000000000000
         C           -2.968325557423     0.001384930246     0.012742881015    12.000000000000
         C            0.634272442577     1.181942930246     0.000859881015    12.000000000000
         C            0.634274442577    -1.179165069754     0.000858881015    12.000000000000
         C            1.365911442577     0.001388930246     0.007404881015    12.000000000000
         H           -1.266819557423    -2.164429069754    -0.017860118985     1.007825032230
         H           -1.172488657423     1.990856130246    -0.016204718985     1.007825032230
         H           -3.339269557423     0.001399930246     1.043169881015     1.007825032230
         H           -3.370408557423     0.886974930246    -0.486533118985     1.007825032230
         H           -3.370406557423    -0.884221069754    -0.486506118985     1.007825032230
         H            2.450006442577     0.001389930246     0.010394881015     1.007825032230

  Basis Set: AUG-CC-PVTZ
    Blend: AUG-CC-PVTZ
  Basis Set: (AUG-CC-PVTZ AUX)
    Blend: AUG-CC-PVTZ-JKFIT
	 Reference Energy          =    -467.5768454448368061 [Eh]
	 Singles Energy            =      -0.0000000000000000 [Eh]
	 Same-Spin Energy          =      -0.4447918420864052 [Eh]
	 Opposite-Spin Energy      =      -1.3522912545673067 [Eh]
	 Correlation Energy        =      -1.7970830966537119 [Eh]
	 Total Energy              =    -469.3739285414904998 [Eh]

	 ================> DF-SCS-MP2 Energies <==================
	-----------------------------------------------------------
	 SCS Same-Spin Scale       =       0.3333333333333333 [-]
	 SCS Opposite-Spin Scale   =       1.2000000000000000 [-]
	 SCS Same-Spin Energy      =      -0.1482639473621351 [Eh]
	 SCS Opposite-Spin Energy  =      -1.6227495054807679 [Eh]
	 SCS Correlation Energy    =      -1.7710134528429029 [Eh]
	 SCS Total Energy          =    -469.3478588976797141 [Eh]
	-----------------------------------------------------------

  Dipole Moment: [D]
     X:    -2.0424      Y:    -0.0045      Z:     0.0331     Total:     2.0426

*** Psi4 exiting successfully. Buy a developer a beer!
