                               Psi4 1.4a3.dev225

  ==> Input File <==

--------------------------------------------------------------------------
#psi4
#
memory 32 gb

molecule  {
0 1
  F        1.4077440     2.3569060     0.0024490
  F        1.4077500    -2.3569030     0.0024500
  C       -1.3651830    -0.0000010    -0.0169560
  C       -0.6574790    -1.2079560    -0.0091570
  C       -0.6574810     1.2079540    -0.0091560
  C       -2.8713810    -0.0000030     0.0124600
  C        0.7312170     1.1805550     0.0005770
  C        0.7312190    -1.1805530     0.0005760
  C        1.4628560     0.0000010     0.0071220
  H       -1.1698750    -2.1658170    -0.0181430
  H       -1.1462953     2.1217283    -0.0177284
  H       -3.2423250     0.0000120     1.0428870
  H       -3.2734640     0.8855870    -0.4868160
  H       -3.2734620    -0.8856090    -0.4867890
  H        2.5469510     0.0000020     0.0101120
units angstrom
no_reorient  #important for SAPT in psi4, default
symmetry c1  #important for SAPT in psi4, default
}

set PROPERTIES_ORIGIN ["COM"]
properties('MP2/aug-cc-pvtz', properties = ['dipole'])
--------------------------------------------------------------------------

    Molecular point group: c1
  Charge       = 0
  Multiplicity = 1
  Basis Set: AUG-CC-PVTZ
    Blend: AUG-CC-PVTZ
  Basis Set: (AUG-CC-PVTZ AUX)
    Blend: AUG-CC-PVTZ-JKFIT

    Orbital Energies [Eh]
    ---------------------

    Doubly Occupied:

       1A    -26.317146     2A    -26.316971     3A    -11.345909
       4A    -11.345643     5A    -11.274102     6A    -11.251245
       7A    -11.246097     8A    -11.241870     9A    -11.240707
      10A     -1.630392    11A     -1.629813    12A     -1.179844
      13A     -1.070666    14A     -1.033860    15A     -0.963611
      16A     -0.864817    17A     -0.844227    18A     -0.754353
      19A     -0.740892    20A     -0.704588    21A     -0.702131
      22A     -0.694255    23A     -0.687668    24A     -0.663510
      25A     -0.604539    26A     -0.598819    27A     -0.592758
      28A     -0.558708    29A     -0.540937    30A     -0.524620
      31A     -0.502757    32A     -0.349830    33A     -0.349364

  @DF-RHF Final Energy:  -467.61100761877674

   => Energetics <=

    Nuclear Repulsion Energy =            420.7765111556058173
    One-Electron Energy =               -1476.0417417023381859
    Two-Electron Energy =                 587.6542229279555158
    Total Energy =                       -467.6110076187767390
  Basis Set: (AUG-CC-PVTZ AUX)
    Blend: AUG-CC-PVTZ-RI
    Molecular point group: c1

    Geometry (in Angstrom), charge = 0, multiplicity = 1:

       Center              X                  Y                   Z               Mass
    ------------   -----------------  -----------------  -----------------  -----------------
         F            1.311356321197     2.357252918617     0.002741647281    18.998403162730
         F            1.311362321197    -2.356556081383     0.002742647281    18.998403162730
         C           -1.461570678803     0.000345918617    -0.016663352719    12.000000000000
         C           -0.753866678803    -1.207609081383    -0.008864352719    12.000000000000
         C           -0.753868678803     1.208300918617    -0.008863352719    12.000000000000
         C           -2.967768678803     0.000343918617     0.012752647281    12.000000000000
         C            0.634829321197     1.180901918617     0.000869647281    12.000000000000
         C            0.634831321197    -1.180206081383     0.000868647281    12.000000000000
         C            1.366468321197     0.000347918617     0.007414647281    12.000000000000
         H           -1.266262678803    -2.165470081383    -0.017850352719     1.007825032230
         H           -1.242682978803     2.122075218617    -0.017435752719     1.007825032230
         H           -3.338712678803     0.000358918617     1.043179647281     1.007825032230
         H           -3.369851678803     0.885933918617    -0.486523352719     1.007825032230
         H           -3.369849678803    -0.885262081383    -0.486496352719     1.007825032230
         H            2.450563321197     0.000348918617     0.010404647281     1.007825032230

  Basis Set: AUG-CC-PVTZ
    Blend: AUG-CC-PVTZ
  Basis Set: (AUG-CC-PVTZ AUX)
    Blend: AUG-CC-PVTZ-JKFIT
	 Reference Energy          =    -467.6110076187767390 [Eh]
	 Singles Energy            =      -0.0000000000000000 [Eh]
	 Same-Spin Energy          =      -0.4449589757783939 [Eh]
	 Opposite-Spin Energy      =      -1.3524980467363963 [Eh]
	 Correlation Energy        =      -1.7974570225147901 [Eh]
	 Total Energy              =    -469.4084646412915163 [Eh]

	 ================> DF-SCS-MP2 Energies <==================
	-----------------------------------------------------------
	 SCS Same-Spin Scale       =       0.3333333333333333 [-]
	 SCS Opposite-Spin Scale   =       1.2000000000000000 [-]
	 SCS Same-Spin Energy      =      -0.1483196585927980 [Eh]
	 SCS Opposite-Spin Energy  =      -1.6229976560836754 [Eh]
	 SCS Correlation Energy    =      -1.7713173146764734 [Eh]
	 SCS Total Energy          =    -469.3823249334532193 [Eh]
	-----------------------------------------------------------

  Dipole Moment: [D]
     X:    -2.0466      Y:     0.0023      Z:     0.0334     Total:     2.0469

*** Psi4 exiting successfully. Buy a developer a beer!
