                               Psi4 1.4a3.dev225

  ==> Input File <==

--------------------------------------------------------------------------
#psi4
#
memory 32 gb

molecule  {
0 1
  F        1.4077440     2.3569060     0.0024490
  F        1.4077500    -2.3569030     0.0024500
  C       -1.3651830    -0.0000010    -0.0169560
  C       -0.6574790    -1.2079560    -0.0091570
  C       -0.6574810     1.2079540    -0.0091560
  C       -2.8713810    -0.0000030     0.0124600
  C        0.7312170     1.1805550     0.0005770
  C        0.7312190    -1.1805530     0.0005760
  C        1.4628560     0.0000010     0.0071220
  H       -1.1698750    -2.1658170    -0.0181430
  H       -1.1698790     2.1658150    -0.0181420
  H       -3.2423250     0.0000120     1.0428870
  H       -3.2734640     0.8855870    -0.4868160
  H       -3.2734620    -0.8856090    -0.4867890
  H        2.6469506     0.0000021     0.0103878
units angstrom
no_reorient  #important for SAPT in psi4, default
symmetry c1  #important for SAPT in psi4, default
}

set PROPERTIES_ORIGIN ["COM"]
properties('MP2/aug-cc-pvtz', properties = ['dipole'])
--------------------------------------------------------------------------

    Molecular point group: c1
  Charge       = 0
  Multiplicity = 1
  Basis Set: AUG-CC-PVTZ
    Blend: AUG-CC-PVTZ
  Basis Set: (AUG-CC-PVTZ AUX)
    Blend: AUG-CC-PVTZ-JKFIT

    Orbital Energies [Eh]
    ---------------------

    Doubly Occupied:

       1A    -26.316848     2A    -26.316847     3A    -11.346635
       4A    -11.346630     5A    -11.274547     6A    -11.261719
       7A    -11.246894     8A    -11.246857     9A    -11.241921
      10A     -1.630130    11A     -1.629593    12A     -1.179747
      13A     -1.068918    14A     -1.032854    15A     -0.960809
      16A     -0.863181    17A     -0.842130    18A     -0.753301
      19A     -0.740816    20A     -0.702002    21A     -0.694046
      22A     -0.688312    23A     -0.687402    24A     -0.660238
      25A     -0.603347    26A     -0.593192    27A     -0.585978
      28A     -0.556485    29A     -0.540422    30A     -0.521181
      31A     -0.503273    32A     -0.350183    33A     -0.349854

  @DF-RHF Final Energy:  -467.60430270840800

   => Energetics <=

    Nuclear Repulsion Energy =            419.9971472609100260
    One-Electron Energy =               -1474.5303143850137531
    Two-Electron Energy =                 586.9288644156957844
    Total Energy =                       -467.6043027084079995
  Basis Set: (AUG-CC-PVTZ AUX)
    Blend: AUG-CC-PVTZ-RI
    Molecular point group: c1

    Geometry (in Angstrom), charge = 0, multiplicity = 1:

       Center              X                  Y                   Z               Mass
    ------------   -----------------  -----------------  -----------------  -----------------
         F            1.310754856050     2.356905913953     0.002742731897    18.998403162730
         F            1.310760856050    -2.356903086047     0.002743731897    18.998403162730
         C           -1.462172143950    -0.000001086047    -0.016662268103    12.000000000000
         C           -0.754468143950    -1.207956086047    -0.008863268103    12.000000000000
         C           -0.754470143950     1.207953913953    -0.008862268103    12.000000000000
         C           -2.968370143950    -0.000003086047     0.012753731897    12.000000000000
         C            0.634227856050     1.180554913953     0.000870731897    12.000000000000
         C            0.634229856050    -1.180553086047     0.000869731897    12.000000000000
         C            1.365866856050     0.000000913953     0.007415731897    12.000000000000
         H           -1.266864143950    -2.165817086047    -0.017849268103     1.007825032230
         H           -1.266868143950     2.165814913953    -0.017848268103     1.007825032230
         H           -3.339314143950     0.000011913953     1.043180731897     1.007825032230
         H           -3.370453143950     0.885586913953    -0.486522268103     1.007825032230
         H           -3.370451143950    -0.885609086047    -0.486495268103     1.007825032230
         H            2.549961456050     0.000002013953     0.010681531897     1.007825032230

  Basis Set: AUG-CC-PVTZ
    Blend: AUG-CC-PVTZ
  Basis Set: (AUG-CC-PVTZ AUX)
    Blend: AUG-CC-PVTZ-JKFIT
	 Reference Energy          =    -467.6043027084079995 [Eh]
	 Singles Energy            =      -0.0000000000000000 [Eh]
	 Same-Spin Energy          =      -0.4453238252069933 [Eh]
	 Opposite-Spin Energy      =      -1.3535824626023918 [Eh]
	 Correlation Energy        =      -1.7989062878093851 [Eh]
	 Total Energy              =    -469.4032089962173586 [Eh]

	 ================> DF-SCS-MP2 Energies <==================
	-----------------------------------------------------------
	 SCS Same-Spin Scale       =       0.3333333333333333 [-]
	 SCS Opposite-Spin Scale   =       1.2000000000000000 [-]
	 SCS Same-Spin Energy      =      -0.1484412750689978 [Eh]
	 SCS Opposite-Spin Energy  =      -1.6242989551228701 [Eh]
	 SCS Correlation Energy    =      -1.7727402301918680 [Eh]
	 SCS Total Energy          =    -469.3770429385998568 [Eh]
	-----------------------------------------------------------

  Dipole Moment: [D]
     X:    -2.0269      Y:     0.0000      Z:     0.0335     Total:     2.0272

*** Psi4 exiting successfully. Buy a developer a beer!
