                               Psi4 1.4a3.dev225

  ==> Input File <==

--------------------------------------------------------------------------
#psi4
#
memory 32 gb

molecule  {
0 1
  F        1.4077440     2.3569060     0.0024490
  F        1.4077500    -2.3569030     0.0024500
  C       -1.3651830    -0.0000010    -0.0169560
  C       -0.6574790    -1.2079560    -0.0091570
  C       -0.7585798     1.0353916    -0.0102703
  C       -2.8713810    -0.0000030     0.0124600
  C        0.7312170     1.1805550     0.0005770
  C        0.7312190    -1.1805530     0.0005760
  C        1.4628560     0.0000010     0.0071220
  H       -1.1698750    -2.1658170    -0.0181430
  H       -1.1698790     2.1658150    -0.0181420
  H       -3.2423250     0.0000120     1.0428870
  H       -3.2734640     0.8855870    -0.4868160
  H       -3.2734620    -0.8856090    -0.4867890
  H        2.5469510     0.0000020     0.0101120
units angstrom
no_reorient  #important for SAPT in psi4, default
symmetry c1  #important for SAPT in psi4, default
}

set PROPERTIES_ORIGIN ["COM"]
properties('MP2/aug-cc-pvtz', properties = ['dipole'])
--------------------------------------------------------------------------

    Molecular point group: c1
  Charge       = 0
  Multiplicity = 1
  Basis Set: AUG-CC-PVTZ
    Blend: AUG-CC-PVTZ
  Basis Set: (AUG-CC-PVTZ AUX)
    Blend: AUG-CC-PVTZ-JKFIT

    Orbital Energies [Eh]
    ---------------------

    Doubly Occupied:

       1A    -26.330476     2A    -26.315408     3A    -11.357896
       4A    -11.342975     5A    -11.253788     6A    -11.247074
       7A    -11.244400     8A    -11.241585     9A    -11.238436
      10A     -1.638879    11A     -1.628479    12A     -1.199080
      13A     -1.087098    14A     -1.019042    15A     -0.962728
      16A     -0.877042    17A     -0.836964    18A     -0.762418
      19A     -0.744065    20A     -0.707344    21A     -0.695885
      22A     -0.695628    23A     -0.683212    24A     -0.661249
      25A     -0.607889    26A     -0.602842    27A     -0.597616
      28A     -0.552415    29A     -0.545094    30A     -0.510403
      31A     -0.480476    32A     -0.379492    33A     -0.335900

  @DF-RHF Final Energy:  -467.54748814192357

   => Energetics <=

    Nuclear Repulsion Energy =            422.3855575988801547
    One-Electron Energy =               -1479.0995290786188434
    Two-Electron Energy =                 589.1664833378149524
    Total Energy =                       -467.5474881419236226
  Basis Set: (AUG-CC-PVTZ AUX)
    Blend: AUG-CC-PVTZ-RI
    Molecular point group: c1

    Geometry (in Angstrom), charge = 0, multiplicity = 1:

       Center              X                  Y                   Z               Mass
    ------------   -----------------  -----------------  -----------------  -----------------
         F            1.321016720711     2.373078111311     0.002849332628    18.998403162730
         F            1.321022720711    -2.340730888689     0.002850332628    18.998403162730
         C           -1.451910279289     0.016171111311    -0.016555667372    12.000000000000
         C           -0.744206279289    -1.191783888689    -0.008756667372    12.000000000000
         C           -0.845307079289     1.051563711311    -0.009869967372    12.000000000000
         C           -2.958108279289     0.016169111311     0.012860332628    12.000000000000
         C            0.644489720711     1.196727111311     0.000977332628    12.000000000000
         C            0.644491720711    -1.164380888689     0.000976332628    12.000000000000
         C            1.376128720711     0.016173111311     0.007522332628    12.000000000000
         H           -1.256602279289    -2.149644888689    -0.017742667372     1.007825032230
         H           -1.256606279289     2.181987111311    -0.017741667372     1.007825032230
         H           -3.329052279289     0.016184111311     1.043287332628     1.007825032230
         H           -3.360191279289     0.901759111311    -0.486415667372     1.007825032230
         H           -3.360189279289    -0.869436888689    -0.486388667372     1.007825032230
         H            2.460223720711     0.016174111311     0.010512332628     1.007825032230

  Basis Set: AUG-CC-PVTZ
    Blend: AUG-CC-PVTZ
  Basis Set: (AUG-CC-PVTZ AUX)
    Blend: AUG-CC-PVTZ-JKFIT
	 Reference Energy          =    -467.5474881419235658 [Eh]
	 Singles Energy            =      -0.0000000000000000 [Eh]
	 Same-Spin Energy          =      -0.4451953558239227 [Eh]
	 Opposite-Spin Energy      =      -1.3553487925788157 [Eh]
	 Correlation Energy        =      -1.8005441484027385 [Eh]
	 Total Energy              =    -469.3480322903263300 [Eh]

	 ================> DF-SCS-MP2 Energies <==================
	-----------------------------------------------------------
	 SCS Same-Spin Scale       =       0.3333333333333333 [-]
	 SCS Opposite-Spin Scale   =       1.2000000000000000 [-]
	 SCS Same-Spin Energy      =      -0.1483984519413075 [Eh]
	 SCS Opposite-Spin Energy  =      -1.6264185510945788 [Eh]
	 SCS Correlation Energy    =      -1.7748170030358863 [Eh]
	 SCS Total Energy          =    -469.3223051449594436 [Eh]
	-----------------------------------------------------------

  Dipole Moment: [D]
     X:    -1.8285      Y:     0.1374      Z:     0.0288     Total:     1.8339

*** Psi4 exiting successfully. Buy a developer a beer!
