                               Psi4 1.4a3.dev225

  ==> Input File <==

--------------------------------------------------------------------------
#psi4
#
memory 32 gb

molecule  {
0 1
  F        1.4077440     2.3569060     0.0024490
  F        1.4077500    -2.3569030     0.0024500
  C       -1.3651830    -0.0000010    -0.0169560
  C       -0.6574790    -1.2079560    -0.0091570
  C       -0.6574810     1.2079540    -0.0091560
  C       -2.8713810    -0.0000030     0.0124600
  C        0.7312170     1.1805550     0.0005770
  C        0.7312190    -1.1805530     0.0005760
  C        1.4628560     0.0000010     0.0071220
  H       -1.1698750    -2.1658170    -0.0181430
  H       -1.1698790     2.1658150    -0.0181420
  H       -3.2761962     0.0000134     1.1369760
  H       -3.2734640     0.8855870    -0.4868160
  H       -3.2734620    -0.8856090    -0.4867890
  H        2.5469510     0.0000020     0.0101120
units angstrom
no_reorient  #important for SAPT in psi4, default
symmetry c1  #important for SAPT in psi4, default
}

set PROPERTIES_ORIGIN ["COM"]
properties('MP2/aug-cc-pvtz', properties = ['dipole'])
--------------------------------------------------------------------------

    Molecular point group: c1
  Charge       = 0
  Multiplicity = 1
  Basis Set: AUG-CC-PVTZ
    Blend: AUG-CC-PVTZ
  Basis Set: (AUG-CC-PVTZ AUX)
    Blend: AUG-CC-PVTZ-JKFIT

    Orbital Energies [Eh]
    ---------------------

    Doubly Occupied:

       1A    -26.317319     2A    -26.317319     3A    -11.346314
       4A    -11.346309     5A    -11.275179     6A    -11.253274
       7A    -11.251999     8A    -11.246930     9A    -11.246893
      10A     -1.630627    11A     -1.630078    12A     -1.180030
      13A     -1.069426    14A     -1.032851    15A     -0.958131
      16A     -0.863352    17A     -0.842453    18A     -0.753713
      19A     -0.741173    20A     -0.702418    21A     -0.698774
      22A     -0.694521    23A     -0.687541    24A     -0.662771
      25A     -0.603816    26A     -0.598062    27A     -0.576386
      28A     -0.556786    29A     -0.541174    30A     -0.524074
      31A     -0.499873    32A     -0.349838    33A     -0.349466

  @DF-RHF Final Energy:  -467.60533119621709

   => Energetics <=

    Nuclear Repulsion Energy =            420.0951265010701263
    One-Electron Energy =               -1474.7031757296906562
    Two-Electron Energy =                 587.0027180324034362
    Total Energy =                       -467.6053311962170937
  Basis Set: (AUG-CC-PVTZ AUX)
    Blend: AUG-CC-PVTZ-RI
    Molecular point group: c1

    Geometry (in Angstrom), charge = 0, multiplicity = 1:

       Center              X                  Y                   Z               Mass
    ------------   -----------------  -----------------  -----------------  -----------------
         F            1.311808545405     2.356905903721     0.002004333603    18.998403162730
         F            1.311814545405    -2.356903096279     0.002005333603    18.998403162730
         C           -1.461118454595    -0.000001096279    -0.017400666397    12.000000000000
         C           -0.753414454595    -1.207956096279    -0.009601666397    12.000000000000
         C           -0.753416454595     1.207953903721    -0.009600666397    12.000000000000
         C           -2.967316454595    -0.000003096279     0.012015333603    12.000000000000
         C            0.635281545405     1.180554903721     0.000132333603    12.000000000000
         C            0.635283545405    -1.180553096279     0.000131333603    12.000000000000
         C            1.366920545405     0.000000903721     0.006677333603    12.000000000000
         H           -1.265810454595    -2.165817096279    -0.018587666397     1.007825032230
         H           -1.265814454595     2.165814903721    -0.018586666397     1.007825032230
         H           -3.372131654595     0.000013303721     1.136531333603     1.007825032230
         H           -3.369399454595     0.885586903721    -0.487260666397     1.007825032230
         H           -3.369397454595    -0.885609096279    -0.487233666397     1.007825032230
         H            2.451015545405     0.000001903721     0.009667333603     1.007825032230

  Basis Set: AUG-CC-PVTZ
    Blend: AUG-CC-PVTZ
  Basis Set: (AUG-CC-PVTZ AUX)
    Blend: AUG-CC-PVTZ-JKFIT
	 Reference Energy          =    -467.6053311962170937 [Eh]
	 Singles Energy            =      -0.0000000000000000 [Eh]
	 Same-Spin Energy          =      -0.4450742709084564 [Eh]
	 Opposite-Spin Energy      =      -1.3534784650445477 [Eh]
	 Correlation Energy        =      -1.7985527359530042 [Eh]
	 Total Energy              =    -469.4038839321701175 [Eh]

	 ================> DF-SCS-MP2 Energies <==================
	-----------------------------------------------------------
	 SCS Same-Spin Scale       =       0.3333333333333333 [-]
	 SCS Opposite-Spin Scale   =       1.2000000000000000 [-]
	 SCS Same-Spin Energy      =      -0.1483580903028188 [Eh]
	 SCS Opposite-Spin Energy  =      -1.6241741580534572 [Eh]
	 SCS Correlation Energy    =      -1.7725322483562760 [Eh]
	 SCS Total Energy          =    -469.3778634445733928 [Eh]
	-----------------------------------------------------------

  Dipole Moment: [D]
     X:    -2.0022      Y:     0.0000      Z:    -0.0018     Total:     2.0022

*** Psi4 exiting successfully. Buy a developer a beer!
