                               Psi4 1.4a3.dev225

  ==> Input File <==

--------------------------------------------------------------------------
#psi4
#
memory 32 gb

molecule  {
0 1
  F        1.4077440     2.3569060     0.0024490
  F        1.4077500    -2.3569030     0.0024500
  C       -1.3651830    -0.0000010    -0.0169560
  C       -0.6574790    -1.2079560    -0.0091570
  C       -0.6574810     1.2079540    -0.0091560
  C       -2.8713810    -0.0000030     0.0124600
  C        0.7312170     1.1805550     0.0005770
  C        0.7112234    -1.1809476     0.0004359
  C        1.4628560     0.0000010     0.0071220
  H       -1.1698750    -2.1658170    -0.0181430
  H       -1.1698790     2.1658150    -0.0181420
  H       -3.2423250     0.0000120     1.0428870
  H       -3.2734640     0.8855870    -0.4868160
  H       -3.2734620    -0.8856090    -0.4867890
  H        2.5469510     0.0000020     0.0101120
units angstrom
no_reorient  #important for SAPT in psi4, default
symmetry c1  #important for SAPT in psi4, default
}

set PROPERTIES_ORIGIN ["COM"]
properties('MP2/aug-cc-pvtz', properties = ['dipole'])
--------------------------------------------------------------------------

    Molecular point group: c1
  Charge       = 0
  Multiplicity = 1
  Basis Set: AUG-CC-PVTZ
    Blend: AUG-CC-PVTZ
  Basis Set: (AUG-CC-PVTZ AUX)
    Blend: AUG-CC-PVTZ-JKFIT

    Orbital Energies [Eh]
    ---------------------

    Doubly Occupied:

       1A    -26.316997     2A    -26.314067     3A    -11.345922
       4A    -11.345110     5A    -11.275354     6A    -11.252657
       7A    -11.246926     8A    -11.245287     9A    -11.242362
      10A     -1.630103    11A     -1.624132    12A     -1.181300
      13A     -1.069621    14A     -1.035722    15A     -0.963788
      16A     -0.861092    17A     -0.844551    18A     -0.752748
      19A     -0.739264    20A     -0.700669    21A     -0.699056
      22A     -0.691772    23A     -0.686426    24A     -0.661257
      25A     -0.602801    26A     -0.598919    27A     -0.593288
      28A     -0.555914    29A     -0.540689    30A     -0.526511
      31A     -0.503976    32A     -0.352969    33A     -0.348511

  @DF-RHF Final Energy:  -467.61109031251607

   => Energetics <=

    Nuclear Repulsion Energy =            420.5568972560918155
    One-Electron Energy =               -1475.6364512365316841
    Two-Electron Energy =                 587.4684636679237428
    Total Energy =                       -467.6110903125161258
  Basis Set: (AUG-CC-PVTZ AUX)
    Blend: AUG-CC-PVTZ-RI
    Molecular point group: c1

    Geometry (in Angstrom), charge = 0, multiplicity = 1:

       Center              X                  Y                   Z               Mass
    ------------   -----------------  -----------------  -----------------  -----------------
         F            1.313415894037     2.356942895848     0.002758032589    18.998403162730
         F            1.313421894037    -2.356866104152     0.002759032589    18.998403162730
         C           -1.459511105963     0.000035895848    -0.016646967411    12.000000000000
         C           -0.751807105963    -1.207919104152    -0.008847967411    12.000000000000
         C           -0.751809105963     1.207990895848    -0.008846967411    12.000000000000
         C           -2.965709105963     0.000033895848     0.012769032589    12.000000000000
         C            0.636888894037     1.180591895848     0.000886032589    12.000000000000
         C            0.616895294037    -1.180910704152     0.000744932589    12.000000000000
         C            1.368527894037     0.000037895848     0.007431032589    12.000000000000
         H           -1.264203105963    -2.165780104152    -0.017833967411     1.007825032230
         H           -1.264207105963     2.165851895848    -0.017832967411     1.007825032230
         H           -3.336653105963     0.000048895848     1.043196032589     1.007825032230
         H           -3.367792105963     0.885623895848    -0.486506967411     1.007825032230
         H           -3.367790105963    -0.885572104152    -0.486479967411     1.007825032230
         H            2.452622894037     0.000038895848     0.010421032589     1.007825032230

  Basis Set: AUG-CC-PVTZ
    Blend: AUG-CC-PVTZ
  Basis Set: (AUG-CC-PVTZ AUX)
    Blend: AUG-CC-PVTZ-JKFIT
	 Reference Energy          =    -467.6110903125160689 [Eh]
	 Singles Energy            =      -0.0000000000000000 [Eh]
	 Same-Spin Energy          =      -0.4450968086539803 [Eh]
	 Opposite-Spin Energy      =      -1.3529657673366122 [Eh]
	 Correlation Energy        =      -1.7980625759905924 [Eh]
	 Total Energy              =    -469.4091528885066396 [Eh]

	 ================> DF-SCS-MP2 Energies <==================
	-----------------------------------------------------------
	 SCS Same-Spin Scale       =       0.3333333333333333 [-]
	 SCS Opposite-Spin Scale   =       1.2000000000000000 [-]
	 SCS Same-Spin Energy      =      -0.1483656028846601 [Eh]
	 SCS Opposite-Spin Energy  =      -1.6235589208039347 [Eh]
	 SCS Correlation Energy    =      -1.7719245236885948 [Eh]
	 SCS Total Energy          =    -469.3830148362046657 [Eh]
	-----------------------------------------------------------

  Dipole Moment: [D]
     X:    -2.1090      Y:     0.0446      Z:     0.0333     Total:     2.1098

*** Psi4 exiting successfully. Buy a developer a beer!
