                               Psi4 1.4a3.dev225

  ==> Input File <==

--------------------------------------------------------------------------
#psi4
#
memory 32 gb

molecule  {
0 1
  F        1.4077440     2.3569060     0.0024490
  F        1.4077500    -2.3569030     0.0024500
  C       -1.3651830    -0.0000010    -0.0169560
  C       -0.6574790    -1.2079560    -0.0091570
  C       -0.6574810     1.2079540    -0.0091560
  C       -2.8713810    -0.0000030     0.0124600
  C        0.7312170     1.1805550     0.0005770
  C        0.7512146    -1.1801584     0.0007161
  C        1.4628560     0.0000010     0.0071220
  H       -1.1698750    -2.1658170    -0.0181430
  H       -1.1698790     2.1658150    -0.0181420
  H       -3.2423250     0.0000120     1.0428870
  H       -3.2734640     0.8855870    -0.4868160
  H       -3.2734620    -0.8856090    -0.4867890
  H        2.5469510     0.0000020     0.0101120
units angstrom
no_reorient  #important for SAPT in psi4, default
symmetry c1  #important for SAPT in psi4, default
}

set PROPERTIES_ORIGIN ["COM"]
properties('MP2/aug-cc-pvtz', properties = ['dipole'])
--------------------------------------------------------------------------

    Molecular point group: c1
  Charge       = 0
  Multiplicity = 1
  Basis Set: AUG-CC-PVTZ
    Blend: AUG-CC-PVTZ
  Basis Set: (AUG-CC-PVTZ AUX)
    Blend: AUG-CC-PVTZ-JKFIT

    Orbital Energies [Eh]
    ---------------------

    Doubly Occupied:

       1A    -26.320029     2A    -26.317128     3A    -11.346836
       4A    -11.346084     5A    -11.273540     6A    -11.250420
       7A    -11.247420     8A    -11.245908     9A    -11.241280
      10A     -1.636062    11A     -1.630098    12A     -1.178350
      13A     -1.071566    14A     -1.029487    15A     -0.962421
      16A     -0.864868    17A     -0.843713    18A     -0.756126
      19A     -0.742509    20A     -0.704630    21A     -0.698038
      22A     -0.695816    23A     -0.687745    24A     -0.663800
      25A     -0.603469    26A     -0.597692    27A     -0.592064
      28A     -0.556323    29A     -0.539726    30A     -0.521682
      31A     -0.502025    32A     -0.351533    33A     -0.346250

  @DF-RHF Final Energy:  -467.61148489453188

   => Energetics <=

    Nuclear Repulsion Energy =            420.4588079151375268
    One-Electron Energy =               -1475.4113139525413771
    Two-Electron Energy =                 587.3410211428720231
    Total Energy =                       -467.6114848945319409
  Basis Set: (AUG-CC-PVTZ AUX)
    Blend: AUG-CC-PVTZ-RI
    Molecular point group: c1

    Geometry (in Angstrom), charge = 0, multiplicity = 1:

       Center              X                  Y                   Z               Mass
    ------------   -----------------  -----------------  -----------------  -----------------
         F            1.309668000246     2.356868933632     0.002731772816    18.998403162730
         F            1.309674000246    -2.356940066368     0.002732772816    18.998403162730
         C           -1.463258999754    -0.000038066368    -0.016673227184    12.000000000000
         C           -0.755554999754    -1.207993066368    -0.008874227184    12.000000000000
         C           -0.755556999754     1.207916933632    -0.008873227184    12.000000000000
         C           -2.969456999754    -0.000040066368     0.012742772816    12.000000000000
         C            0.633141000246     1.180517933632     0.000859772816    12.000000000000
         C            0.653138600246    -1.180195466368     0.000998872816    12.000000000000
         C            1.364780000246    -0.000036066368     0.007404772816    12.000000000000
         H           -1.267950999754    -2.165854066368    -0.017860227184     1.007825032230
         H           -1.267954999754     2.165777933632    -0.017859227184     1.007825032230
         H           -3.340400999754    -0.000025066368     1.043169772816     1.007825032230
         H           -3.371539999754     0.885549933632    -0.486533227184     1.007825032230
         H           -3.371537999754    -0.885646066368    -0.486506227184     1.007825032230
         H            2.448875000246    -0.000035066368     0.010394772816     1.007825032230

  Basis Set: AUG-CC-PVTZ
    Blend: AUG-CC-PVTZ
  Basis Set: (AUG-CC-PVTZ AUX)
    Blend: AUG-CC-PVTZ-JKFIT
	 Reference Energy          =    -467.6114848945318840 [Eh]
	 Singles Energy            =      -0.0000000000000000 [Eh]
	 Same-Spin Energy          =      -0.4450140977829427 [Eh]
	 Opposite-Spin Energy      =      -1.3526370549076403 [Eh]
	 Correlation Energy        =      -1.7976511526905830 [Eh]
	 Total Energy              =    -469.4091360472224892 [Eh]

	 ================> DF-SCS-MP2 Energies <==================
	-----------------------------------------------------------
	 SCS Same-Spin Scale       =       0.3333333333333333 [-]
	 SCS Opposite-Spin Scale   =       1.2000000000000000 [-]
	 SCS Same-Spin Energy      =      -0.1483380325943142 [Eh]
	 SCS Opposite-Spin Energy  =      -1.6231644658891684 [Eh]
	 SCS Correlation Energy    =      -1.7715024984834826 [Eh]
	 SCS Total Energy          =    -469.3829873930153553 [Eh]
	-----------------------------------------------------------

  Dipole Moment: [D]
     X:    -1.9827      Y:    -0.0449      Z:     0.0339     Total:     1.9835

*** Psi4 exiting successfully. Buy a developer a beer!
