                               Psi4 1.4a3.dev225

  ==> Input File <==

--------------------------------------------------------------------------
#psi4
#
memory 32 gb

molecule  {
0 1
  F        1.4077440     2.3569060     0.0024490
  F        1.2810856    -2.4211750     0.0014133
  C       -1.3651830    -0.0000010    -0.0169560
  C       -0.6574790    -1.2079560    -0.0091570
  C       -0.6574810     1.2079540    -0.0091560
  C       -2.8713810    -0.0000030     0.0124600
  C        0.7312170     1.1805550     0.0005770
  C        0.7312190    -1.1805530     0.0005760
  C        1.4628560     0.0000010     0.0071220
  H       -1.1698750    -2.1658170    -0.0181430
  H       -1.1698790     2.1658150    -0.0181420
  H       -3.2423250     0.0000120     1.0428870
  H       -3.2734640     0.8855870    -0.4868160
  H       -3.2734620    -0.8856090    -0.4867890
  H        2.5469510     0.0000020     0.0101120
units angstrom
no_reorient  #important for SAPT in psi4, default
symmetry c1  #important for SAPT in psi4, default
}

set PROPERTIES_ORIGIN ["COM"]
properties('MP2/aug-cc-pvtz', properties = ['dipole'])
--------------------------------------------------------------------------

    Molecular point group: c1
  Charge       = 0
  Multiplicity = 1
  Basis Set: AUG-CC-PVTZ
    Blend: AUG-CC-PVTZ
  Basis Set: (AUG-CC-PVTZ AUX)
    Blend: AUG-CC-PVTZ-JKFIT

    Orbital Energies [Eh]
    ---------------------

    Doubly Occupied:

       1A    -26.317973     2A    -26.316877     3A    -11.347174
       4A    -11.346016     5A    -11.272834     6A    -11.254933
       7A    -11.246279     8A    -11.243003     9A    -11.240905
      10A     -1.630991    11A     -1.630267    12A     -1.179527
      13A     -1.070735    14A     -1.032079    15A     -0.962899
      16A     -0.861778    17A     -0.845618    18A     -0.753627
      19A     -0.741635    20A     -0.702628    21A     -0.699743
      22A     -0.694850    23A     -0.686623    24A     -0.661478
      25A     -0.602640    26A     -0.598561    27A     -0.591888
      28A     -0.558972    29A     -0.538792    30A     -0.521197
      31A     -0.503026    32A     -0.351146    33A     -0.348075

  @DF-RHF Final Energy:  -467.60910748009985

   => Energetics <=

    Nuclear Repulsion Energy =            420.6193224517965064
    One-Electron Energy =               -1475.7473223033880458
    Two-Electron Energy =                 587.5188923714916882
    Total Energy =                       -467.6091074800998513
  Basis Set: (AUG-CC-PVTZ AUX)
    Blend: AUG-CC-PVTZ-RI
    Molecular point group: c1

    Geometry (in Angstrom), charge = 0, multiplicity = 1:

       Center              X                  Y                   Z               Mass
    ------------   -----------------  -----------------  -----------------  -----------------
         F            1.330335689241     2.366442227961     0.002898722343    18.998403162730
         F            1.203677289241    -2.411638772039     0.001863022343    18.998403162730
         C           -1.442591310759     0.009535227961    -0.016506277657    12.000000000000
         C           -0.734887310759    -1.198419772039    -0.008707277657    12.000000000000
         C           -0.734889310759     1.217490227961    -0.008706277657    12.000000000000
         C           -2.948789310759     0.009533227961     0.012909722343    12.000000000000
         C            0.653808689241     1.190091227961     0.001026722343    12.000000000000
         C            0.653810689241    -1.171016772039     0.001025722343    12.000000000000
         C            1.385447689241     0.009537227961     0.007571722343    12.000000000000
         H           -1.247283310759    -2.156280772039    -0.017693277657     1.007825032230
         H           -1.247287310759     2.175351227961    -0.017692277657     1.007825032230
         H           -3.319733310759     0.009548227961     1.043336722343     1.007825032230
         H           -3.350872310759     0.895123227961    -0.486366277657     1.007825032230
         H           -3.350870310759    -0.876072772039    -0.486339277657     1.007825032230
         H            2.469542689241     0.009538227961     0.010561722343     1.007825032230

  Basis Set: AUG-CC-PVTZ
    Blend: AUG-CC-PVTZ
  Basis Set: (AUG-CC-PVTZ AUX)
    Blend: AUG-CC-PVTZ-JKFIT
	 Reference Energy          =    -467.6091074800998513 [Eh]
	 Singles Energy            =      -0.0000000000000000 [Eh]
	 Same-Spin Energy          =      -0.4451324010325555 [Eh]
	 Opposite-Spin Energy      =      -1.3529522377037582 [Eh]
	 Correlation Energy        =      -1.7980846387363136 [Eh]
	 Total Energy              =    -469.4071921188361785 [Eh]

	 ================> DF-SCS-MP2 Energies <==================
	-----------------------------------------------------------
	 SCS Same-Spin Scale       =       0.3333333333333333 [-]
	 SCS Opposite-Spin Scale   =       1.2000000000000000 [-]
	 SCS Same-Spin Energy      =      -0.1483774670108518 [Eh]
	 SCS Opposite-Spin Energy  =      -1.6235426852445098 [Eh]
	 SCS Correlation Energy    =      -1.7719201522553616 [Eh]
	 SCS Total Energy          =    -469.3810276323551989 [Eh]
	-----------------------------------------------------------

  Dipole Moment: [D]
     X:    -1.9117      Y:     0.0481      Z:     0.0349     Total:     1.9126

*** Psi4 exiting successfully. Buy a developer a beer!
