                               Psi4 1.4a3.dev225

  ==> Input File <==

--------------------------------------------------------------------------
#psi4
#
memory 32 gb

molecule  {
0 1
  F        1.4077440     2.3569060     0.0024490
  F        1.4077500    -2.3569030     0.0024500
  C       -1.3651830    -0.0000010    -0.0169560
  C       -0.5350979    -1.1273590    -0.0078082
  C       -0.6574810     1.2079540    -0.0091560
  C       -2.8713810    -0.0000030     0.0124600
  C        0.7312170     1.1805550     0.0005770
  C        0.7312190    -1.1805530     0.0005760
  C        1.4628560     0.0000010     0.0071220
  H       -1.1698750    -2.1658170    -0.0181430
  H       -1.1698790     2.1658150    -0.0181420
  H       -3.2423250     0.0000120     1.0428870
  H       -3.2734640     0.8855870    -0.4868160
  H       -3.2734620    -0.8856090    -0.4867890
  H        2.5469510     0.0000020     0.0101120
units angstrom
no_reorient  #important for SAPT in psi4, default
symmetry c1  #important for SAPT in psi4, default
}

set PROPERTIES_ORIGIN ["COM"]
properties('MP2/aug-cc-pvtz', properties = ['dipole'])
--------------------------------------------------------------------------

    Molecular point group: c1
  Charge       = 0
  Multiplicity = 1
  Basis Set: AUG-CC-PVTZ
    Blend: AUG-CC-PVTZ
  Basis Set: (AUG-CC-PVTZ AUX)
    Blend: AUG-CC-PVTZ-JKFIT

    Orbital Energies [Eh]
    ---------------------

    Doubly Occupied:

       1A    -26.315517     2A    -26.314887     3A    -11.342213
       4A    -11.328366     5A    -11.276286     6A    -11.250466
       7A    -11.248064     8A    -11.247119     9A    -11.243337
      10A     -1.628566    11A     -1.627907    12A     -1.194528
      13A     -1.072725    14A     -1.044126    15A     -0.967215
      16A     -0.856269    17A     -0.852971    18A     -0.760629
      19A     -0.740664    20A     -0.702566    21A     -0.696272
      22A     -0.693588    23A     -0.684486    24A     -0.656034
      25A     -0.600652    26A     -0.597582    27A     -0.595389
      28A     -0.555117    29A     -0.539945    30A     -0.513927
      31A     -0.505435    32A     -0.363801    33A     -0.345751

  @DF-RHF Final Energy:  -467.58293401646017

   => Energetics <=

    Nuclear Repulsion Energy =            422.9322671635562187
    One-Electron Energy =               -1480.3056054835408304
    Two-Electron Energy =                 589.7904043035244968
    Total Energy =                       -467.5829340164601717
  Basis Set: (AUG-CC-PVTZ AUX)
    Blend: AUG-CC-PVTZ-RI
    Molecular point group: c1

    Geometry (in Angstrom), charge = 0, multiplicity = 1:

       Center              X                  Y                   Z               Mass
    ------------   -----------------  -----------------  -----------------  -----------------
         F            1.300072639774     2.349352528099     0.002618495914    18.998403162730
         F            1.300078639774    -2.364456471901     0.002619495914    18.998403162730
         C           -1.472854360226    -0.007554471901    -0.016786504086    12.000000000000
         C           -0.642769260226    -1.134912471901    -0.007638704086    12.000000000000
         C           -0.765152360226     1.200400528099    -0.008986504086    12.000000000000
         C           -2.979052360226    -0.007556471901     0.012629495914    12.000000000000
         C            0.623545639774     1.173001528099     0.000746495914    12.000000000000
         C            0.623547639774    -1.188106471901     0.000745495914    12.000000000000
         C            1.355184639774    -0.007552471901     0.007291495914    12.000000000000
         H           -1.277546360226    -2.173370471901    -0.017973504086     1.007825032230
         H           -1.277550360226     2.158261528099    -0.017972504086     1.007825032230
         H           -3.349996360226    -0.007541471901     1.043056495914     1.007825032230
         H           -3.381135360226     0.878033528099    -0.486646504086     1.007825032230
         H           -3.381133360226    -0.893162471901    -0.486619504086     1.007825032230
         H            2.439279639774    -0.007551471901     0.010281495914     1.007825032230

  Basis Set: AUG-CC-PVTZ
    Blend: AUG-CC-PVTZ
  Basis Set: (AUG-CC-PVTZ AUX)
    Blend: AUG-CC-PVTZ-JKFIT
	 Reference Energy          =    -467.5829340164601717 [Eh]
	 Singles Energy            =      -0.0000000000000000 [Eh]
	 Same-Spin Energy          =      -0.4456980172545287 [Eh]
	 Opposite-Spin Energy      =      -1.3537154294095461 [Eh]
	 Correlation Energy        =      -1.7994134466640750 [Eh]
	 Total Energy              =    -469.3823474631242334 [Eh]

	 ================> DF-SCS-MP2 Energies <==================
	-----------------------------------------------------------
	 SCS Same-Spin Scale       =       0.3333333333333333 [-]
	 SCS Opposite-Spin Scale   =       1.2000000000000000 [-]
	 SCS Same-Spin Energy      =      -0.1485660057515096 [Eh]
	 SCS Opposite-Spin Energy  =      -1.6244585152914552 [Eh]
	 SCS Correlation Energy    =      -1.7730245210429647 [Eh]
	 SCS Total Energy          =    -469.3559585375031133 [Eh]
	-----------------------------------------------------------

  Dipole Moment: [D]
     X:    -2.2223      Y:     0.1256      Z:     0.0341     Total:     2.2261

*** Psi4 exiting successfully. Buy a developer a beer!
