                               Psi4 1.4a3.dev225

  ==> Input File <==

--------------------------------------------------------------------------
#psi4
#
memory 32 gb

molecule  {
0 1
  F        1.4077440     2.3569060     0.0024490
  F        1.4077500    -2.3569030     0.0024500
  C       -1.3651830    -0.0000010    -0.0169560
  C       -0.6574790    -1.2079560    -0.0091570
  C       -0.6574810     1.2079540    -0.0091560
  C       -2.8713810    -0.0000030     0.0124600
  C        0.7312170     1.1805550     0.0005770
  C        0.7312190    -1.1805530     0.0005760
  C        1.4628560     0.0000010     0.0071220
  H       -1.1698750    -2.1658170    -0.0181430
  H       -1.1698790     2.1658150    -0.0181420
  H       -3.2423250     0.0000120     1.0428870
  H       -3.2734640     0.8855870    -0.4868160
  H       -3.2734620    -0.8856090    -0.4867890
  H        2.5269511     0.0000020     0.0100568
units angstrom
no_reorient  #important for SAPT in psi4, default
symmetry c1  #important for SAPT in psi4, default
}

set PROPERTIES_ORIGIN ["COM"]
properties('MP2/aug-cc-pvtz', properties = ['dipole'])
--------------------------------------------------------------------------

    Molecular point group: c1
  Charge       = 0
  Multiplicity = 1
  Basis Set: AUG-CC-PVTZ
    Blend: AUG-CC-PVTZ
  Basis Set: (AUG-CC-PVTZ AUX)
    Blend: AUG-CC-PVTZ-JKFIT

    Orbital Energies [Eh]
    ---------------------

    Doubly Occupied:

       1A    -26.317119     2A    -26.317118     3A    -11.345916
       4A    -11.345911     5A    -11.274446     6A    -11.249396
       7A    -11.246339     8A    -11.246301     9A    -11.241809
      10A     -1.630435    11A     -1.629885    12A     -1.179789
      13A     -1.071028    14A     -1.032411    15A     -0.963771
      16A     -0.862977    17A     -0.844566    18A     -0.754742
      19A     -0.740832    20A     -0.702230    21A     -0.701012
      22A     -0.694317    23A     -0.687124    24A     -0.663012
      25A     -0.603136    26A     -0.600424    27A     -0.592725
      28A     -0.556115    29A     -0.540213    30A     -0.524676
      31A     -0.502909    32A     -0.350017    33A     -0.349465

  @DF-RHF Final Energy:  -467.61190845835910

   => Energetics <=

    Nuclear Repulsion Energy =            420.6140192137514191
    One-Electron Energy =               -1475.7275192859026447
    Two-Electron Energy =                 587.5015916137922432
    Total Energy =                       -467.6119084583590393
  Basis Set: (AUG-CC-PVTZ AUX)
    Blend: AUG-CC-PVTZ-RI
    Molecular point group: c1

    Geometry (in Angstrom), charge = 0, multiplicity = 1:

       Center              X                  Y                   Z               Mass
    ------------   -----------------  -----------------  -----------------  -----------------
         F            1.311699365202     2.356905914740     0.002745337179    18.998403162730
         F            1.311705365202    -2.356903085260     0.002746337179    18.998403162730
         C           -1.461227634798    -0.000001085260    -0.016659662821    12.000000000000
         C           -0.753523634798    -1.207956085260    -0.008860662821    12.000000000000
         C           -0.753525634798     1.207953914740    -0.008859662821    12.000000000000
         C           -2.967425634798    -0.000003085260     0.012756337179    12.000000000000
         C            0.635172365202     1.180554914740     0.000873337179    12.000000000000
         C            0.635174365202    -1.180553085260     0.000872337179    12.000000000000
         C            1.366811365202     0.000000914740     0.007418337179    12.000000000000
         H           -1.265919634798    -2.165817085260    -0.017846662821     1.007825032230
         H           -1.265923634798     2.165814914740    -0.017845662821     1.007825032230
         H           -3.338369634798     0.000011914740     1.043183337179     1.007825032230
         H           -3.369508634798     0.885586914740    -0.486519662821     1.007825032230
         H           -3.369506634798    -0.885609085260    -0.486492662821     1.007825032230
         H            2.430906465202     0.000001914740     0.010353137179     1.007825032230

  Basis Set: AUG-CC-PVTZ
    Blend: AUG-CC-PVTZ
  Basis Set: (AUG-CC-PVTZ AUX)
    Blend: AUG-CC-PVTZ-JKFIT
	 Reference Energy          =    -467.6119084583590961 [Eh]
	 Singles Energy            =      -0.0000000000000000 [Eh]
	 Same-Spin Energy          =      -0.4450217056330276 [Eh]
	 Opposite-Spin Energy      =      -1.3526647233988041 [Eh]
	 Correlation Energy        =      -1.7976864290318315 [Eh]
	 Total Energy              =    -469.4095948873909379 [Eh]

	 ================> DF-SCS-MP2 Energies <==================
	-----------------------------------------------------------
	 SCS Same-Spin Scale       =       0.3333333333333333 [-]
	 SCS Opposite-Spin Scale   =       1.2000000000000000 [-]
	 SCS Same-Spin Energy      =      -0.1483405685443425 [Eh]
	 SCS Opposite-Spin Energy  =      -1.6231976680785649 [Eh]
	 SCS Correlation Energy    =      -1.7715382366229073 [Eh]
	 SCS Total Energy          =    -469.3834466949820126 [Eh]
	-----------------------------------------------------------

  Dipole Moment: [D]
     X:    -2.0501      Y:     0.0000      Z:     0.0336     Total:     2.0504

*** Psi4 exiting successfully. Buy a developer a beer!
