                               Psi4 1.4a3.dev225

  ==> Input File <==

--------------------------------------------------------------------------
#psi4
#
memory 32 gb

molecule  {
0 1
  F        1.4077440     2.3569060     0.0024490
  F        1.4077500    -2.3569030     0.0024500
  C       -1.3651830    -0.0000010    -0.0169560
  C       -0.6574790    -1.2079560    -0.0091570
  C       -0.6574810     1.2079540    -0.0091560
  C       -2.8713810    -0.0000030     0.0124600
  C        0.7312170     1.1805550     0.0005770
  C        0.7312190    -1.1805530     0.0005760
  C        1.5155335    -0.0849981     0.0075932
  H       -1.1698750    -2.1658170    -0.0181430
  H       -1.1698790     2.1658150    -0.0181420
  H       -3.2423250     0.0000120     1.0428870
  H       -3.2734640     0.8855870    -0.4868160
  H       -3.2734620    -0.8856090    -0.4867890
  H        2.5469510     0.0000020     0.0101120
units angstrom
no_reorient  #important for SAPT in psi4, default
symmetry c1  #important for SAPT in psi4, default
}

set PROPERTIES_ORIGIN ["COM"]
properties('MP2/aug-cc-pvtz', properties = ['dipole'])
--------------------------------------------------------------------------

    Molecular point group: c1
  Charge       = 0
  Multiplicity = 1
  Basis Set: AUG-CC-PVTZ
    Blend: AUG-CC-PVTZ
  Basis Set: (AUG-CC-PVTZ AUX)
    Blend: AUG-CC-PVTZ-JKFIT

    Orbital Energies [Eh]
    ---------------------

    Doubly Occupied:

       1A    -26.320762     2A    -26.309752     3A    -11.356914
       4A    -11.340538     5A    -11.276354     6A    -11.252613
       7A    -11.247216     8A    -11.245756     9A    -11.242580
      10A     -1.632482    11A     -1.625839    12A     -1.175550
      13A     -1.069946    14A     -1.029714    15A     -0.965313
      16A     -0.859930    17A     -0.844343    18A     -0.752307
      19A     -0.738662    20A     -0.709089    21A     -0.701229
      22A     -0.692459    23A     -0.682233    24A     -0.663137
      25A     -0.612541    26A     -0.594587    27A     -0.593067
      28A     -0.551273    29A     -0.540719    30A     -0.524798
      31A     -0.499408    32A     -0.357717    33A     -0.340029

  @DF-RHF Final Energy:  -467.59972986014799

   => Energetics <=

    Nuclear Repulsion Energy =            419.6453911896020372
    One-Electron Energy =               -1473.7925284035245568
    Two-Electron Energy =                 586.5474073537745880
    Total Energy =                       -467.5997298601480452
  Basis Set: (AUG-CC-PVTZ AUX)
    Blend: AUG-CC-PVTZ-RI
    Molecular point group: c1

    Geometry (in Angstrom), charge = 0, multiplicity = 1:

       Center              X                  Y                   Z               Mass
    ------------   -----------------  -----------------  -----------------  -----------------
         F            1.306605119160     2.364871857225     0.002700742798    18.998403162730
         F            1.306611119160    -2.348937142775     0.002701742798    18.998403162730
         C           -1.466321880840     0.007964857225    -0.016704257202    12.000000000000
         C           -0.758617880840    -1.199990142775    -0.008905257202    12.000000000000
         C           -0.758619880840     1.215919857225    -0.008904257202    12.000000000000
         C           -2.972519880840     0.007962857225     0.012711742798    12.000000000000
         C            0.630078119160     1.188520857225     0.000828742798    12.000000000000
         C            0.630080119160    -1.172587142775     0.000827742798    12.000000000000
         C            1.414394619160    -0.077032242775     0.007844942798    12.000000000000
         H           -1.271013880840    -2.157851142775    -0.017891257202     1.007825032230
         H           -1.271017880840     2.173780857225    -0.017890257202     1.007825032230
         H           -3.343463880840     0.007977857225     1.043138742798     1.007825032230
         H           -3.374602880840     0.893552857225    -0.486564257202     1.007825032230
         H           -3.374600880840    -0.877643142775    -0.486537257202     1.007825032230
         H            2.445812119160     0.007967857225     0.010363742798     1.007825032230

  Basis Set: AUG-CC-PVTZ
    Blend: AUG-CC-PVTZ
  Basis Set: (AUG-CC-PVTZ AUX)
    Blend: AUG-CC-PVTZ-JKFIT
	 Reference Energy          =    -467.5997298601479883 [Eh]
	 Singles Energy            =      -0.0000000000000000 [Eh]
	 Same-Spin Energy          =      -0.4447788944356918 [Eh]
	 Opposite-Spin Energy      =      -1.3534107705915894 [Eh]
	 Correlation Energy        =      -1.7981896650272813 [Eh]
	 Total Energy              =    -469.3979195251752685 [Eh]

	 ================> DF-SCS-MP2 Energies <==================
	-----------------------------------------------------------
	 SCS Same-Spin Scale       =       0.3333333333333333 [-]
	 SCS Opposite-Spin Scale   =       1.2000000000000000 [-]
	 SCS Same-Spin Energy      =      -0.1482596314785639 [Eh]
	 SCS Opposite-Spin Energy  =      -1.6240929247099072 [Eh]
	 SCS Correlation Energy    =      -1.7723525561884712 [Eh]
	 SCS Total Energy          =    -469.3720824163364682 [Eh]
	-----------------------------------------------------------

  Dipole Moment: [D]
     X:    -2.0781      Y:     0.1335      Z:     0.0333     Total:     2.0826

*** Psi4 exiting successfully. Buy a developer a beer!
