                               Psi4 1.4a3.dev225

  ==> Input File <==

--------------------------------------------------------------------------
#psi4
#
memory 32 gb

molecule  {
0 1
  F        1.4077440     2.3569060     0.0024490
  F        1.4077500    -2.3569030     0.0024500
  C       -1.3651830    -0.0000010    -0.0169560
  C       -0.6574790    -1.2079560    -0.0091570
  C       -0.6574810     1.2079540    -0.0091560
  C       -2.8713810    -0.0000030     0.0124600
  C        0.7312170     1.1805550     0.0005770
  C        0.7312190    -1.1805530     0.0005760
  C        1.4523205     0.0170008     0.0070278
  H       -1.1698750    -2.1658170    -0.0181430
  H       -1.1698790     2.1658150    -0.0181420
  H       -3.2423250     0.0000120     1.0428870
  H       -3.2734640     0.8855870    -0.4868160
  H       -3.2734620    -0.8856090    -0.4867890
  H        2.5469510     0.0000020     0.0101120
units angstrom
no_reorient  #important for SAPT in psi4, default
symmetry c1  #important for SAPT in psi4, default
}

set PROPERTIES_ORIGIN ["COM"]
properties('MP2/aug-cc-pvtz', properties = ['dipole'])
--------------------------------------------------------------------------

    Molecular point group: c1
  Charge       = 0
  Multiplicity = 1
  Basis Set: AUG-CC-PVTZ
    Blend: AUG-CC-PVTZ
  Basis Set: (AUG-CC-PVTZ AUX)
    Blend: AUG-CC-PVTZ-JKFIT

    Orbital Energies [Eh]
    ---------------------

    Doubly Occupied:

       1A    -26.318500     2A    -26.316197     3A    -11.347177
       4A    -11.343356     5A    -11.274095     6A    -11.251278
       7A    -11.246559     8A    -11.246203     9A    -11.241676
      10A     -1.631040    11A     -1.629486    12A     -1.180805
      13A     -1.071272    14A     -1.032832    15A     -0.962885
      16A     -0.863828    17A     -0.843702    18A     -0.754796
      19A     -0.741379    20A     -0.702531    21A     -0.696867
      22A     -0.694469    23A     -0.687983    24A     -0.662455
      25A     -0.604245    26A     -0.596045    27A     -0.592430
      28A     -0.556769    29A     -0.540171    30A     -0.523156
      31A     -0.503820    32A     -0.352118    33A     -0.348179

  @DF-RHF Final Energy:  -467.61131568207281

   => Energetics <=

    Nuclear Repulsion Energy =            420.6956745372812065
    One-Electron Energy =               -1475.8973726959113719
    Two-Electron Energy =                 587.5903824765574655
    Total Energy =                       -467.6113156820728136
  Basis Set: (AUG-CC-PVTZ AUX)
    Blend: AUG-CC-PVTZ-RI
    Molecular point group: c1

    Geometry (in Angstrom), charge = 0, multiplicity = 1:

       Center              X                  Y                   Z               Mass
    ------------   -----------------  -----------------  -----------------  -----------------
         F            1.312529312737     2.355312728118     0.002753730935    18.998403162730
         F            1.312535312737    -2.358496271882     0.002754730935    18.998403162730
         C           -1.460397687263    -0.001594271882    -0.016651269065    12.000000000000
         C           -0.752693687263    -1.209549271882    -0.008852269065    12.000000000000
         C           -0.752695687263     1.206360728118    -0.008851269065    12.000000000000
         C           -2.966595687263    -0.001596271882     0.012764730935    12.000000000000
         C            0.636002312737     1.178961728118     0.000881730935    12.000000000000
         C            0.636004312737    -1.182146271882     0.000880730935    12.000000000000
         C            1.357105812737     0.015407528118     0.007332530935    12.000000000000
         H           -1.265089687263    -2.167410271882    -0.017838269065     1.007825032230
         H           -1.265093687263     2.164221728118    -0.017837269065     1.007825032230
         H           -3.337539687263    -0.001581271882     1.043191730935     1.007825032230
         H           -3.368678687263     0.883993728118    -0.486511269065     1.007825032230
         H           -3.368676687263    -0.887202271882    -0.486484269065     1.007825032230
         H            2.451736312737    -0.001591271882     0.010416730935     1.007825032230

  Basis Set: AUG-CC-PVTZ
    Blend: AUG-CC-PVTZ
  Basis Set: (AUG-CC-PVTZ AUX)
    Blend: AUG-CC-PVTZ-JKFIT
	 Reference Energy          =    -467.6113156820728136 [Eh]
	 Singles Energy            =      -0.0000000000000000 [Eh]
	 Same-Spin Energy          =      -0.4451007562632081 [Eh]
	 Opposite-Spin Energy      =      -1.3527766644852084 [Eh]
	 Correlation Energy        =      -1.7978774207484165 [Eh]
	 Total Energy              =    -469.4091931028212343 [Eh]

	 ================> DF-SCS-MP2 Energies <==================
	-----------------------------------------------------------
	 SCS Same-Spin Scale       =       0.3333333333333333 [-]
	 SCS Opposite-Spin Scale   =       1.2000000000000000 [-]
	 SCS Same-Spin Energy      =      -0.1483669187544027 [Eh]
	 SCS Opposite-Spin Energy  =      -1.6233319973822500 [Eh]
	 SCS Correlation Energy    =      -1.7716989161366528 [Eh]
	 SCS Total Energy          =    -469.3830145982094564 [Eh]
	-----------------------------------------------------------

  Dipole Moment: [D]
     X:    -2.0401      Y:    -0.0297      Z:     0.0337     Total:     2.0405

*** Psi4 exiting successfully. Buy a developer a beer!
