                               Psi4 1.4a3.dev225

  ==> Input File <==

--------------------------------------------------------------------------
#psi4
#
memory 32 gb

molecule  {
0 1
  F        1.3662787     2.3797998     0.0021592
  F        1.4077500    -2.3569030     0.0024500
  C       -1.3651830    -0.0000010    -0.0169560
  C       -0.6574790    -1.2079560    -0.0091570
  C       -0.6574810     1.2079540    -0.0091560
  C       -2.8713810    -0.0000030     0.0124600
  C        0.7312170     1.1805550     0.0005770
  C        0.7312190    -1.1805530     0.0005760
  C        1.4628560     0.0000010     0.0071220
  H       -1.1698750    -2.1658170    -0.0181430
  H       -1.1698790     2.1658150    -0.0181420
  H       -3.2423250     0.0000120     1.0428870
  H       -3.2734640     0.8855870    -0.4868160
  H       -3.2734620    -0.8856090    -0.4867890
  H        2.5469510     0.0000020     0.0101120
units angstrom
no_reorient  #important for SAPT in psi4, default
symmetry c1  #important for SAPT in psi4, default
}

set PROPERTIES_ORIGIN ["COM"]
properties('MP2/aug-cc-pvtz', properties = ['dipole'])
--------------------------------------------------------------------------

    Molecular point group: c1
  Charge       = 0
  Multiplicity = 1
  Basis Set: AUG-CC-PVTZ
    Blend: AUG-CC-PVTZ
  Basis Set: (AUG-CC-PVTZ AUX)
    Blend: AUG-CC-PVTZ-JKFIT

    Orbital Energies [Eh]
    ---------------------

    Doubly Occupied:

       1A    -26.317398     2A    -26.317057     3A    -11.346447
       4A    -11.346020     5A    -11.273959     6A    -11.252685
       7A    -11.246381     8A    -11.245281     9A    -11.241536
      10A     -1.630559    11A     -1.629968    12A     -1.179705
      13A     -1.070659    14A     -1.032360    15A     -0.963093
      16A     -0.862587    17A     -0.844577    18A     -0.754154
      19A     -0.741103    20A     -0.702316    21A     -0.698803
      22A     -0.694461    23A     -0.687021    24A     -0.662395
      25A     -0.603097    26A     -0.598456    27A     -0.592439
      28A     -0.557176    29A     -0.539798    30A     -0.523313
      31A     -0.503008    32A     -0.350414    33A     -0.349085

  @DF-RHF Final Energy:  -467.61149349033718

   => Energetics <=

    Nuclear Repulsion Energy =            420.5164500555280256
    One-Electron Energy =               -1475.5412658972336430
    Two-Electron Energy =                 587.4133223513686062
    Total Energy =                       -467.6114934903371250
  Basis Set: (AUG-CC-PVTZ AUX)
    Blend: AUG-CC-PVTZ-RI
    Molecular point group: c1

    Geometry (in Angstrom), charge = 0, multiplicity = 1:

       Center              X                  Y                   Z               Mass
    ------------   -----------------  -----------------  -----------------  -----------------
         F            1.276229032139     2.376402863116     0.002498101576    18.998403162730
         F            1.317700332139    -2.360299936884     0.002788901576    18.998403162730
         C           -1.455232667861    -0.003397936884    -0.016617098424    12.000000000000
         C           -0.747528667861    -1.211352936884    -0.008818098424    12.000000000000
         C           -0.747530667861     1.204557063116    -0.008817098424    12.000000000000
         C           -2.961430667861    -0.003399936884     0.012798901576    12.000000000000
         C            0.641167332139     1.177158063116     0.000915901576    12.000000000000
         C            0.641169332139    -1.183949936884     0.000914901576    12.000000000000
         C            1.372806332139    -0.003395936884     0.007460901576    12.000000000000
         H           -1.259924667861    -2.169213936884    -0.017804098424     1.007825032230
         H           -1.259928667861     2.162418063116    -0.017803098424     1.007825032230
         H           -3.332374667861    -0.003384936884     1.043225901576     1.007825032230
         H           -3.363513667861     0.882190063116    -0.486477098424     1.007825032230
         H           -3.363511667861    -0.889005936884    -0.486450098424     1.007825032230
         H            2.456901332139    -0.003394936884     0.010450901576     1.007825032230

  Basis Set: AUG-CC-PVTZ
    Blend: AUG-CC-PVTZ
  Basis Set: (AUG-CC-PVTZ AUX)
    Blend: AUG-CC-PVTZ-JKFIT
	 Reference Energy          =    -467.6114934903371818 [Eh]
	 Singles Energy            =      -0.0000000000000000 [Eh]
	 Same-Spin Energy          =      -0.4450678332721818 [Eh]
	 Opposite-Spin Energy      =      -1.3527945847987883 [Eh]
	 Correlation Energy        =      -1.7978624180709701 [Eh]
	 Total Energy              =    -469.4093559084081448 [Eh]

	 ================> DF-SCS-MP2 Energies <==================
	-----------------------------------------------------------
	 SCS Same-Spin Scale       =       0.3333333333333333 [-]
	 SCS Opposite-Spin Scale   =       1.2000000000000000 [-]
	 SCS Same-Spin Energy      =      -0.1483559444240606 [Eh]
	 SCS Opposite-Spin Energy  =      -1.6233535017585459 [Eh]
	 SCS Correlation Energy    =      -1.7717094461826064 [Eh]
	 SCS Total Energy          =    -469.3832029365198082 [Eh]
	-----------------------------------------------------------

  Dipole Moment: [D]
     X:    -2.0025      Y:    -0.0190      Z:     0.0340     Total:     2.0029

*** Psi4 exiting successfully. Buy a developer a beer!
