                               Psi4 1.4a3.dev225

  ==> Input File <==

--------------------------------------------------------------------------
#psi4
#
memory 32 gb

molecule  {
0 1
  F        1.4077440     2.3569060     0.0024490
  F        1.4077500    -2.3569030     0.0024500
  C       -1.3651830    -0.0000010    -0.0169560
  C       -0.6574790    -1.2079560    -0.0091570
  C       -0.6574810     1.2079540    -0.0091560
  C       -2.8713810    -0.0000030     0.0124600
  C        0.7312170     1.1805550     0.0005770
  C        0.7312190    -1.1805530     0.0005760
  C        1.4628560     0.0000010     0.0071220
  H       -1.1698750    -2.1658170    -0.0181430
  H       -1.1698790     2.1658150    -0.0181420
  H       -3.2423250     0.0000120     1.0428870
  H       -3.2734640     0.8855870    -0.4868160
  H       -3.2734620    -0.8856090    -0.4867890
  H        2.7469502     0.0000022     0.0106636
units angstrom
no_reorient  #important for SAPT in psi4, default
symmetry c1  #important for SAPT in psi4, default
}

set PROPERTIES_ORIGIN ["COM"]
properties('MP2/aug-cc-pvtz', properties = ['dipole'])
--------------------------------------------------------------------------

    Molecular point group: c1
  Charge       = 0
  Multiplicity = 1
  Basis Set: AUG-CC-PVTZ
    Blend: AUG-CC-PVTZ
  Basis Set: (AUG-CC-PVTZ AUX)
    Blend: AUG-CC-PVTZ-JKFIT

    Orbital Energies [Eh]
    ---------------------

    Doubly Occupied:

       1A    -26.316689     2A    -26.316688     3A    -11.347443
       4A    -11.347436     5A    -11.274774     6A    -11.270855
       7A    -11.247462     8A    -11.247424     9A    -11.242098
      10A     -1.629935    11A     -1.629404    12A     -1.180001
      13A     -1.067977    14A     -1.033337    15A     -0.959270
      16A     -0.863464    17A     -0.840904    18A     -0.752686
      19A     -0.740893    20A     -0.701884    21A     -0.693866
      22A     -0.687719    23A     -0.682308    24A     -0.657758
      25A     -0.603618    26A     -0.593270    27A     -0.573364
      28A     -0.556924    29A     -0.540689    30A     -0.516022
      31A     -0.503712    32A     -0.350526    33A     -0.350278

  @DF-RHF Final Energy:  -467.58911652812947

   => Energetics <=

    Nuclear Repulsion Energy =            419.5359897776541516
    One-Electron Energy =               -1473.6088573024808284
    Two-Electron Energy =                 586.4837509966972675
    Total Energy =                       -467.5891165281294661
  Basis Set: (AUG-CC-PVTZ AUX)
    Blend: AUG-CC-PVTZ-RI
    Molecular point group: c1

    Geometry (in Angstrom), charge = 0, multiplicity = 1:

       Center              X                  Y                   Z               Mass
    ------------   -----------------  -----------------  -----------------  -----------------
         F            1.309967764958     2.356905913166     0.002740561091    18.998403162730
         F            1.309973764958    -2.356903086834     0.002741561091    18.998403162730
         C           -1.462959235042    -0.000001086834    -0.016664438909    12.000000000000
         C           -0.755255235042    -1.207956086834    -0.008865438909    12.000000000000
         C           -0.755257235042     1.207953913166    -0.008864438909    12.000000000000
         C           -2.969157235042    -0.000003086834     0.012751561091    12.000000000000
         C            0.633440764958     1.180554913166     0.000868561091    12.000000000000
         C            0.633442764958    -1.180553086834     0.000867561091    12.000000000000
         C            1.365079764958     0.000000913166     0.007413561091    12.000000000000
         H           -1.267651235042    -2.165817086834    -0.017851438909     1.007825032230
         H           -1.267655235042     2.165814913166    -0.017850438909     1.007825032230
         H           -3.340101235042     0.000011913166     1.043178561091     1.007825032230
         H           -3.371240235042     0.885586913166    -0.486524438909     1.007825032230
         H           -3.371238235042    -0.885609086834    -0.486497438909     1.007825032230
         H            2.649173964958     0.000002113166     0.010955161091     1.007825032230

  Basis Set: AUG-CC-PVTZ
    Blend: AUG-CC-PVTZ
  Basis Set: (AUG-CC-PVTZ AUX)
    Blend: AUG-CC-PVTZ-JKFIT
	 Reference Energy          =    -467.5891165281294661 [Eh]
	 Singles Energy            =      -0.0000000000000000 [Eh]
	 Same-Spin Energy          =      -0.4456336717650826 [Eh]
	 Opposite-Spin Energy      =      -1.3547185373263493 [Eh]
	 Correlation Energy        =      -1.8003522090914319 [Eh]
	 Total Energy              =    -469.3894687372209091 [Eh]

	 ================> DF-SCS-MP2 Energies <==================
	-----------------------------------------------------------
	 SCS Same-Spin Scale       =       0.3333333333333333 [-]
	 SCS Opposite-Spin Scale   =       1.2000000000000000 [-]
	 SCS Same-Spin Energy      =      -0.1485445572550275 [Eh]
	 SCS Opposite-Spin Energy  =      -1.6256622447916191 [Eh]
	 SCS Correlation Energy    =      -1.7742068020466466 [Eh]
	 SCS Total Energy          =    -469.3633233301761152 [Eh]
	-----------------------------------------------------------

  Dipole Moment: [D]
     X:    -2.0155      Y:     0.0000      Z:     0.0334     Total:     2.0158

*** Psi4 exiting successfully. Buy a developer a beer!
