                               Psi4 1.4a3.dev225

  ==> Input File <==

--------------------------------------------------------------------------
#psi4
#
memory 32 gb

molecule  {
0 1
  F        1.4077440     2.3569060     0.0024490
  F        1.4077500    -2.3569030     0.0024500
  C       -1.3651830    -0.0000010    -0.0169560
  C       -0.6574790    -1.2079560    -0.0091570
  C       -0.6675909     1.1906978    -0.0092674
  C       -2.8713810    -0.0000030     0.0124600
  C        0.7312170     1.1805550     0.0005770
  C        0.7312190    -1.1805530     0.0005760
  C        1.4628560     0.0000010     0.0071220
  H       -1.1698750    -2.1658170    -0.0181430
  H       -1.1698790     2.1658150    -0.0181420
  H       -3.2423250     0.0000120     1.0428870
  H       -3.2734640     0.8855870    -0.4868160
  H       -3.2734620    -0.8856090    -0.4867890
  H        2.5469510     0.0000020     0.0101120
units angstrom
no_reorient  #important for SAPT in psi4, default
symmetry c1  #important for SAPT in psi4, default
}

set PROPERTIES_ORIGIN ["COM"]
properties('MP2/aug-cc-pvtz', properties = ['dipole'])
--------------------------------------------------------------------------

    Molecular point group: c1
  Charge       = 0
  Multiplicity = 1
  Basis Set: AUG-CC-PVTZ
    Blend: AUG-CC-PVTZ
  Basis Set: (AUG-CC-PVTZ AUX)
    Blend: AUG-CC-PVTZ-JKFIT

    Orbital Energies [Eh]
    ---------------------

    Doubly Occupied:

       1A    -26.318588     2A    -26.316841     3A    -11.347334
       4A    -11.345629     5A    -11.271754     6A    -11.251765
       7A    -11.246588     8A    -11.246137     9A    -11.241404
      10A     -1.631137    11A     -1.629832    12A     -1.181031
      13A     -1.071820    14A     -1.031109    15A     -0.962929
      16A     -0.863779    17A     -0.844264    18A     -0.755066
      19A     -0.741306    20A     -0.702531    21A     -0.697497
      22A     -0.694595    23A     -0.686954    24A     -0.662790
      25A     -0.603552    26A     -0.598849    27A     -0.592872
      28A     -0.554240    29A     -0.541765    30A     -0.522048
      31A     -0.503465    32A     -0.352360    33A     -0.348008

  @DF-RHF Final Energy:  -467.61119770882181

   => Energetics <=

    Nuclear Repulsion Energy =            420.6584854777082114
    One-Electron Energy =               -1475.8196847667779821
    Two-Electron Energy =                 587.5500015802480220
    Total Energy =                       -467.6111977088218055
  Basis Set: (AUG-CC-PVTZ AUX)
    Blend: AUG-CC-PVTZ-RI
    Molecular point group: c1

    Geometry (in Angstrom), charge = 0, multiplicity = 1:

       Center              X                  Y                   Z               Mass
    ------------   -----------------  -----------------  -----------------  -----------------
         F            1.312489426372     2.358523130649     0.002755342884    18.998403162730
         F            1.312495426372    -2.355285869351     0.002756342884    18.998403162730
         C           -1.460437573628     0.001616130649    -0.016649657116    12.000000000000
         C           -0.752733573628    -1.206338869351    -0.008850657116    12.000000000000
         C           -0.762845473628     1.192314930649    -0.008961057116    12.000000000000
         C           -2.966635573628     0.001614130649     0.012766342884    12.000000000000
         C            0.635962426372     1.182172130649     0.000883342884    12.000000000000
         C            0.635964426372    -1.178935869351     0.000882342884    12.000000000000
         C            1.367601426372     0.001618130649     0.007428342884    12.000000000000
         H           -1.265129573628    -2.164199869351    -0.017836657116     1.007825032230
         H           -1.265133573628     2.167432130649    -0.017835657116     1.007825032230
         H           -3.337579573628     0.001629130649     1.043193342884     1.007825032230
         H           -3.368718573628     0.887204130649    -0.486509657116     1.007825032230
         H           -3.368716573628    -0.883991869351    -0.486482657116     1.007825032230
         H            2.451696426372     0.001619130649     0.010418342884     1.007825032230

  Basis Set: AUG-CC-PVTZ
    Blend: AUG-CC-PVTZ
  Basis Set: (AUG-CC-PVTZ AUX)
    Blend: AUG-CC-PVTZ-JKFIT
	 Reference Energy          =    -467.6111977088218055 [Eh]
	 Singles Energy            =      -0.0000000000000000 [Eh]
	 Same-Spin Energy          =      -0.4451228355487675 [Eh]
	 Opposite-Spin Energy      =      -1.3528778398849866 [Eh]
	 Correlation Energy        =      -1.7980006754337541 [Eh]
	 Total Energy              =    -469.4091983842555464 [Eh]

	 ================> DF-SCS-MP2 Energies <==================
	-----------------------------------------------------------
	 SCS Same-Spin Scale       =       0.3333333333333333 [-]
	 SCS Opposite-Spin Scale   =       1.2000000000000000 [-]
	 SCS Same-Spin Energy      =      -0.1483742785162558 [Eh]
	 SCS Opposite-Spin Energy  =      -1.6234534078619838 [Eh]
	 SCS Correlation Energy    =      -1.7718276863782396 [Eh]
	 SCS Total Energy          =    -469.3830253952000362 [Eh]
	-----------------------------------------------------------

  Dipole Moment: [D]
     X:    -2.0249      Y:     0.0190      Z:     0.0331     Total:     2.0253

*** Psi4 exiting successfully. Buy a developer a beer!
