                               Psi4 1.4a3.dev225

  ==> Input File <==

--------------------------------------------------------------------------
#psi4
#
memory 32 gb

molecule  {
0 1
  F        1.4077440     2.3569060     0.0024490
  F        1.4077500    -2.3569030     0.0024500
  C       -1.3651830    -0.0000010    -0.0169560
  C       -0.6574790    -1.2079560    -0.0091570
  C       -0.7080304     1.1216728    -0.0097131
  C       -2.8713810    -0.0000030     0.0124600
  C        0.7312170     1.1805550     0.0005770
  C        0.7312190    -1.1805530     0.0005760
  C        1.4628560     0.0000010     0.0071220
  H       -1.1698750    -2.1658170    -0.0181430
  H       -1.1698790     2.1658150    -0.0181420
  H       -3.2423250     0.0000120     1.0428870
  H       -3.2734640     0.8855870    -0.4868160
  H       -3.2734620    -0.8856090    -0.4867890
  H        2.5469510     0.0000020     0.0101120
units angstrom
no_reorient  #important for SAPT in psi4, default
symmetry c1  #important for SAPT in psi4, default
}

set PROPERTIES_ORIGIN ["COM"]
properties('MP2/aug-cc-pvtz', properties = ['dipole'])
--------------------------------------------------------------------------

    Molecular point group: c1
  Charge       = 0
  Multiplicity = 1
  Basis Set: AUG-CC-PVTZ
    Blend: AUG-CC-PVTZ
  Basis Set: (AUG-CC-PVTZ AUX)
    Blend: AUG-CC-PVTZ-JKFIT

    Orbital Energies [Eh]
    ---------------------

    Doubly Occupied:

       1A    -26.324325     2A    -26.316048     3A    -11.352419
       4A    -11.344241     5A    -11.259769     6A    -11.252690
       7A    -11.246899     8A    -11.245134     9A    -11.239829
      10A     -1.634830    11A     -1.629119    12A     -1.187393
      13A     -1.077800    14A     -1.025617    15A     -0.962321
      16A     -0.868979    17A     -0.842593    18A     -0.758173
      19A     -0.742941    20A     -0.704481    21A     -0.695885
      22A     -0.695347    23A     -0.685004    24A     -0.662948
      25A     -0.605232    26A     -0.600827    27A     -0.594140
      28A     -0.549496    29A     -0.546676    30A     -0.507274
      31A     -0.505918    32A     -0.363200    33A     -0.342159

  @DF-RHF Final Energy:  -467.59731557113901

   => Energetics <=

    Nuclear Repulsion Energy =            421.3408206570533139
    One-Electron Energy =               -1477.1368611597308700
    Two-Electron Energy =                 588.1987249315384361
    Total Energy =                       -467.5973155711390064
  Basis Set: (AUG-CC-PVTZ AUX)
    Blend: AUG-CC-PVTZ-RI
    Molecular point group: c1

    Geometry (in Angstrom), charge = 0, multiplicity = 1:

       Center              X                  Y                   Z               Mass
    ------------   -----------------  -----------------  -----------------  -----------------
         F            1.316279333926     2.364992013025     0.002797112980    18.998403162730
         F            1.316285333926    -2.348816986975     0.002798112980    18.998403162730
         C           -1.456647666074     0.008085013025    -0.016607887020    12.000000000000
         C           -0.748943666074    -1.199869986975    -0.008808887020    12.000000000000
         C           -0.799495066074     1.129758813025    -0.009364987020    12.000000000000
         C           -2.962845666074     0.008083013025     0.012808112980    12.000000000000
         C            0.639752333926     1.188641013025     0.000925112980    12.000000000000
         C            0.639754333926    -1.172466986975     0.000924112980    12.000000000000
         C            1.371391333926     0.008087013025     0.007470112980    12.000000000000
         H           -1.261339666074    -2.157730986975    -0.017794887020     1.007825032230
         H           -1.261343666074     2.173901013025    -0.017793887020     1.007825032230
         H           -3.333789666074     0.008098013025     1.043235112980     1.007825032230
         H           -3.364928666074     0.893673013025    -0.486467887020     1.007825032230
         H           -3.364926666074    -0.877522986975    -0.486440887020     1.007825032230
         H            2.455486333926     0.008088013025     0.010460112980     1.007825032230

  Basis Set: AUG-CC-PVTZ
    Blend: AUG-CC-PVTZ
  Basis Set: (AUG-CC-PVTZ AUX)
    Blend: AUG-CC-PVTZ-JKFIT
	 Reference Energy          =    -467.5973155711390064 [Eh]
	 Singles Energy            =      -0.0000000000000000 [Eh]
	 Same-Spin Energy          =      -0.4452401831214300 [Eh]
	 Opposite-Spin Energy      =      -1.3536476963616684 [Eh]
	 Correlation Energy        =      -1.7988878794830985 [Eh]
	 Total Energy              =    -469.3962034506221244 [Eh]

	 ================> DF-SCS-MP2 Energies <==================
	-----------------------------------------------------------
	 SCS Same-Spin Scale       =       0.3333333333333333 [-]
	 SCS Opposite-Spin Scale   =       1.2000000000000000 [-]
	 SCS Same-Spin Energy      =      -0.1484133943738100 [Eh]
	 SCS Opposite-Spin Energy  =      -1.6243772356340020 [Eh]
	 SCS Correlation Energy    =      -1.7727906300078120 [Eh]
	 SCS Total Energy          =    -469.3701062011468252 [Eh]
	-----------------------------------------------------------

  Dipole Moment: [D]
     X:    -1.9391      Y:     0.0854      Z:     0.0313     Total:     1.9412

*** Psi4 exiting successfully. Buy a developer a beer!
