                               Psi4 1.4a3.dev225

  ==> Input File <==

--------------------------------------------------------------------------
#psi4
#
memory 32 gb

molecule  {
0 1
  F        1.4077440     2.3569060     0.0024490
  F        1.4077500    -2.3569030     0.0024500
  C       -1.3651830    -0.0000010    -0.0169560
  C       -0.6574790    -1.2079560    -0.0091570
  C       -0.6069316     1.2942352    -0.0085989
  C       -2.8713810    -0.0000030     0.0124600
  C        0.7312170     1.1805550     0.0005770
  C        0.7312190    -1.1805530     0.0005760
  C        1.4628560     0.0000010     0.0071220
  H       -1.1698750    -2.1658170    -0.0181430
  H       -1.1698790     2.1658150    -0.0181420
  H       -3.2423250     0.0000120     1.0428870
  H       -3.2734640     0.8855870    -0.4868160
  H       -3.2734620    -0.8856090    -0.4867890
  H        2.5469510     0.0000020     0.0101120
units angstrom
no_reorient  #important for SAPT in psi4, default
symmetry c1  #important for SAPT in psi4, default
}

set PROPERTIES_ORIGIN ["COM"]
properties('MP2/aug-cc-pvtz', properties = ['dipole'])
--------------------------------------------------------------------------

    Molecular point group: c1
  Charge       = 0
  Multiplicity = 1
  Basis Set: AUG-CC-PVTZ
    Blend: AUG-CC-PVTZ
  Basis Set: (AUG-CC-PVTZ AUX)
    Blend: AUG-CC-PVTZ-JKFIT

    Orbital Energies [Eh]
    ---------------------

    Doubly Occupied:

       1A    -26.318325     2A    -26.309188     3A    -11.348091
       4A    -11.339506     5A    -11.285869     6A    -11.250512
       7A    -11.247656     8A    -11.245281     9A    -11.243826
      10A     -1.631291    11A     -1.625295    12A     -1.174662
      13A     -1.065974    14A     -1.039001    15A     -0.964757
      16A     -0.862491    17A     -0.839957    18A     -0.752028
      19A     -0.738917    20A     -0.706166    21A     -0.701345
      22A     -0.691857    23A     -0.686304    24A     -0.661233
      25A     -0.601461    26A     -0.596439    27A     -0.592091
      28A     -0.567719    29A     -0.538329    30A     -0.519615
      31A     -0.500866    32A     -0.357688    33A     -0.340016

  @DF-RHF Final Energy:  -467.60065280700627

   => Energetics <=

    Nuclear Repulsion Energy =            419.8286414080153577
    One-Electron Energy =               -1474.1710776508170966
    Two-Electron Energy =                 586.7417834357955826
    Total Energy =                       -467.6006528070062132
  Basis Set: (AUG-CC-PVTZ AUX)
    Blend: AUG-CC-PVTZ-RI
    Molecular point group: c1

    Geometry (in Angstrom), charge = 0, multiplicity = 1:

       Center              X                  Y                   Z               Mass
    ------------   -----------------  -----------------  -----------------  -----------------
         F            1.306804560356     2.348819816455     0.002692692425    18.998403162730
         F            1.306810560356    -2.364989183545     0.002693692425    18.998403162730
         C           -1.466122439644    -0.008087183545    -0.016712307575    12.000000000000
         C           -0.758418439644    -1.216042183545    -0.008913307575    12.000000000000
         C           -0.707871039644     1.286149016455    -0.008355207575    12.000000000000
         C           -2.972320439644    -0.008089183545     0.012703692425    12.000000000000
         C            0.630277560356     1.172468816455     0.000820692425    12.000000000000
         C            0.630279560356    -1.188639183545     0.000819692425    12.000000000000
         C            1.361916560356    -0.008085183545     0.007365692425    12.000000000000
         H           -1.270814439644    -2.173903183545    -0.017899307575     1.007825032230
         H           -1.270818439644     2.157728816455    -0.017898307575     1.007825032230
         H           -3.343264439644    -0.008074183545     1.043130692425     1.007825032230
         H           -3.374403439644     0.877500816455    -0.486572307575     1.007825032230
         H           -3.374401439644    -0.893695183545    -0.486545307575     1.007825032230
         H            2.446011560356    -0.008084183545     0.010355692425     1.007825032230

  Basis Set: AUG-CC-PVTZ
    Blend: AUG-CC-PVTZ
  Basis Set: (AUG-CC-PVTZ AUX)
    Blend: AUG-CC-PVTZ-JKFIT
	 Reference Energy          =    -467.6006528070062700 [Eh]
	 Singles Energy            =      -0.0000000000000000 [Eh]
	 Same-Spin Energy          =      -0.4446724889017399 [Eh]
	 Opposite-Spin Energy      =      -1.3528987775228107 [Eh]
	 Correlation Energy        =      -1.7975712664245507 [Eh]
	 Total Energy              =    -469.3982240734308107 [Eh]

	 ================> DF-SCS-MP2 Energies <==================
	-----------------------------------------------------------
	 SCS Same-Spin Scale       =       0.3333333333333333 [-]
	 SCS Opposite-Spin Scale   =       1.2000000000000000 [-]
	 SCS Same-Spin Energy      =      -0.1482241629672466 [Eh]
	 SCS Opposite-Spin Energy  =      -1.6234785330273729 [Eh]
	 SCS Correlation Energy    =      -1.7717026959946196 [Eh]
	 SCS Total Energy          =    -469.3723555030009038 [Eh]
	-----------------------------------------------------------

  Dipole Moment: [D]
     X:    -2.1421      Y:    -0.1037      Z:     0.0357     Total:     2.1449

*** Psi4 exiting successfully. Buy a developer a beer!
