                               Psi4 1.4a3.dev225

  ==> Input File <==

--------------------------------------------------------------------------
#psi4
#
memory 32 gb

molecule  {
0 1
  F        1.4077440     2.3569060     0.0024490
  F        1.4077500    -2.3569030     0.0024500
  C       -1.3651830    -0.0000010    -0.0169560
  C       -0.6574790    -1.2079560    -0.0091570
  C       -0.6574810     1.2079540    -0.0091560
  C       -2.8713810    -0.0000030     0.0124600
  C        0.7312170     1.1805550     0.0005770
  C        0.7312190    -1.1805530     0.0005760
  C        1.4733915    -0.0169988     0.0072162
  H       -1.1698750    -2.1658170    -0.0181430
  H       -1.1698790     2.1658150    -0.0181420
  H       -3.2423250     0.0000120     1.0428870
  H       -3.2734640     0.8855870    -0.4868160
  H       -3.2734620    -0.8856090    -0.4867890
  H        2.5469510     0.0000020     0.0101120
units angstrom
no_reorient  #important for SAPT in psi4, default
symmetry c1  #important for SAPT in psi4, default
}

set PROPERTIES_ORIGIN ["COM"]
properties('MP2/aug-cc-pvtz', properties = ['dipole'])
--------------------------------------------------------------------------

    Molecular point group: c1
  Charge       = 0
  Multiplicity = 1
  Basis Set: AUG-CC-PVTZ
    Blend: AUG-CC-PVTZ
  Basis Set: (AUG-CC-PVTZ AUX)
    Blend: AUG-CC-PVTZ-JKFIT

    Orbital Energies [Eh]
    ---------------------

    Doubly Occupied:

       1A    -26.317898     2A    -26.315619     3A    -11.348513
       4A    -11.344862     5A    -11.274814     6A    -11.251776
       7A    -11.246594     8A    -11.246257     9A    -11.241966
      10A     -1.630698    11A     -1.629174    12A     -1.178780
      13A     -1.070110    14A     -1.032031    15A     -0.963515
      16A     -0.862224    17A     -0.844326    18A     -0.754035
      19A     -0.740292    20A     -0.701893    21A     -0.700285
      22A     -0.694007    23A     -0.686219    24A     -0.662721
      25A     -0.603389    26A     -0.599383    27A     -0.592831
      28A     -0.555414    29A     -0.540313    30A     -0.525019
      31A     -0.502151    32A     -0.351323    33A     -0.347610

  @DF-RHF Final Energy:  -467.61122757856077

   => Energetics <=

    Nuclear Repulsion Energy =            420.3221700679077912
    One-Electron Energy =               -1475.1547142486024313
    Two-Electron Energy =                 587.2213166021339248
    Total Energy =                       -467.6112275785607153
  Basis Set: (AUG-CC-PVTZ AUX)
    Blend: AUG-CC-PVTZ-RI
    Molecular point group: c1

    Geometry (in Angstrom), charge = 0, multiplicity = 1:

       Center              X                  Y                   Z               Mass
    ------------   -----------------  -----------------  -----------------  -----------------
         F            1.310554581545     2.358499101363     0.002736074470    18.998403162730
         F            1.310560581545    -2.355309898637     0.002737074470    18.998403162730
         C           -1.462372418455     0.001592101363    -0.016668925530    12.000000000000
         C           -0.754668418455    -1.206362898637    -0.008869925530    12.000000000000
         C           -0.754670418455     1.209547101363    -0.008868925530    12.000000000000
         C           -2.968570418455     0.001590101363     0.012747074470    12.000000000000
         C            0.634027581545     1.182148101363     0.000864074470    12.000000000000
         C            0.634029581545    -1.178959898637     0.000863074470    12.000000000000
         C            1.376202081545    -0.015405698637     0.007503274470    12.000000000000
         H           -1.267064418455    -2.164223898637    -0.017855925530     1.007825032230
         H           -1.267068418455     2.167408101363    -0.017854925530     1.007825032230
         H           -3.339514418455     0.001605101363     1.043174074470     1.007825032230
         H           -3.370653418455     0.887180101363    -0.486528925530     1.007825032230
         H           -3.370651418455    -0.884015898637    -0.486501925530     1.007825032230
         H            2.449761581545     0.001595101363     0.010399074470     1.007825032230

  Basis Set: AUG-CC-PVTZ
    Blend: AUG-CC-PVTZ
  Basis Set: (AUG-CC-PVTZ AUX)
    Blend: AUG-CC-PVTZ-JKFIT
	 Reference Energy          =    -467.6112275785607721 [Eh]
	 Singles Energy            =      -0.0000000000000000 [Eh]
	 Same-Spin Energy          =      -0.4450200029815303 [Eh]
	 Opposite-Spin Energy      =      -1.3528237639836329 [Eh]
	 Correlation Energy        =      -1.7978437669651632 [Eh]
	 Total Energy              =    -469.4090713455259447 [Eh]

	 ================> DF-SCS-MP2 Energies <==================
	-----------------------------------------------------------
	 SCS Same-Spin Scale       =       0.3333333333333333 [-]
	 SCS Opposite-Spin Scale   =       1.2000000000000000 [-]
	 SCS Same-Spin Energy      =      -0.1483400009938434 [Eh]
	 SCS Opposite-Spin Energy  =      -1.6233885167803594 [Eh]
	 SCS Correlation Energy    =      -1.7717285177742028 [Eh]
	 SCS Total Energy          =    -469.3829560963349650 [Eh]
	-----------------------------------------------------------

  Dipole Moment: [D]
     X:    -2.0513      Y:     0.0287      Z:     0.0335     Total:     2.0518

*** Psi4 exiting successfully. Buy a developer a beer!
