                               Psi4 1.4a3.dev225

  ==> Input File <==

--------------------------------------------------------------------------
#psi4
#
memory 32 gb

molecule  {
0 1
  F        1.4077440     2.3569060     0.0024490
  F        1.4077500    -2.3569030     0.0024500
  C       -1.3651830    -0.0000010    -0.0169560
  C       -0.6365063    -1.1954201    -0.0089259
  C       -0.6574810     1.2079540    -0.0091560
  C       -2.8713810    -0.0000030     0.0124600
  C        0.7312170     1.1805550     0.0005770
  C        0.7312190    -1.1805530     0.0005760
  C        1.4628560     0.0000010     0.0071220
  H       -1.1698750    -2.1658170    -0.0181430
  H       -1.1698790     2.1658150    -0.0181420
  H       -3.2423250     0.0000120     1.0428870
  H       -3.2734640     0.8855870    -0.4868160
  H       -3.2734620    -0.8856090    -0.4867890
  H        2.5469510     0.0000020     0.0101120
units angstrom
no_reorient  #important for SAPT in psi4, default
symmetry c1  #important for SAPT in psi4, default
}

set PROPERTIES_ORIGIN ["COM"]
properties('MP2/aug-cc-pvtz', properties = ['dipole'])
--------------------------------------------------------------------------

    Molecular point group: c1
  Charge       = 0
  Multiplicity = 1
  Basis Set: AUG-CC-PVTZ
    Blend: AUG-CC-PVTZ
  Basis Set: (AUG-CC-PVTZ AUX)
    Blend: AUG-CC-PVTZ-JKFIT

    Orbital Energies [Eh]
    ---------------------

    Doubly Occupied:

       1A    -26.316765     2A    -26.316637     3A    -11.345306
       4A    -11.343155     5A    -11.274570     6A    -11.251288
       7A    -11.246579     8A    -11.245774     9A    -11.242686
      10A     -1.630044    11A     -1.629481    12A     -1.181751
      13A     -1.070401    14A     -1.034520    15A     -0.963947
      16A     -0.861492    17A     -0.845580    18A     -0.755268
      19A     -0.740823    20A     -0.702139    21A     -0.695710
      22A     -0.694129    23A     -0.688395    24A     -0.661625
      25A     -0.602377    26A     -0.597939    27A     -0.593131
      28A     -0.554761    29A     -0.538394    30A     -0.526071
      31A     -0.504480    32A     -0.351749    33A     -0.349190

  @DF-RHF Final Energy:  -467.61119643713243

   => Energetics <=

    Nuclear Repulsion Energy =            420.8911108556214344
    One-Electron Energy =               -1476.2923066748785459
    Two-Electron Energy =                 587.7899993821246198
    Total Energy =                       -467.6111964371324348
  Basis Set: (AUG-CC-PVTZ AUX)
    Blend: AUG-CC-PVTZ-RI
    Molecular point group: c1

    Geometry (in Angstrom), charge = 0, multiplicity = 1:

       Center              X                  Y                   Z               Mass
    ------------   -----------------  -----------------  -----------------  -----------------
         F            1.309576428424     2.355731075732     0.002723244481    18.998403162730
         F            1.309582428424    -2.358077924268     0.002724244481    18.998403162730
         C           -1.463350571576    -0.001175924268    -0.016681755519    12.000000000000
         C           -0.734673871576    -1.196595024268    -0.008651655519    12.000000000000
         C           -0.755648571576     1.206779075732    -0.008881755519    12.000000000000
         C           -2.969548571576    -0.001177924268     0.012734244481    12.000000000000
         C            0.633049428424     1.179380075732     0.000851244481    12.000000000000
         C            0.633051428424    -1.181727924268     0.000850244481    12.000000000000
         C            1.364688428424    -0.001173924268     0.007396244481    12.000000000000
         H           -1.268042571576    -2.166991924268    -0.017868755519     1.007825032230
         H           -1.268046571576     2.164640075732    -0.017867755519     1.007825032230
         H           -3.340492571576    -0.001162924268     1.043161244481     1.007825032230
         H           -3.371631571576     0.884412075732    -0.486541755519     1.007825032230
         H           -3.371629571576    -0.886783924268    -0.486514755519     1.007825032230
         H            2.448783428424    -0.001172924268     0.010386244481     1.007825032230

  Basis Set: AUG-CC-PVTZ
    Blend: AUG-CC-PVTZ
  Basis Set: (AUG-CC-PVTZ AUX)
    Blend: AUG-CC-PVTZ-JKFIT
	 Reference Energy          =    -467.6111964371324348 [Eh]
	 Singles Energy            =      -0.0000000000000000 [Eh]
	 Same-Spin Energy          =      -0.4451243937393503 [Eh]
	 Opposite-Spin Energy      =      -1.3527278719539606 [Eh]
	 Correlation Energy        =      -1.7978522656933109 [Eh]
	 Total Energy              =    -469.4090487028257712 [Eh]

	 ================> DF-SCS-MP2 Energies <==================
	-----------------------------------------------------------
	 SCS Same-Spin Scale       =       0.3333333333333333 [-]
	 SCS Opposite-Spin Scale   =       1.2000000000000000 [-]
	 SCS Same-Spin Energy      =      -0.1483747979131168 [Eh]
	 SCS Opposite-Spin Energy  =      -1.6232734463447527 [Eh]
	 SCS Correlation Energy    =      -1.7716482442578694 [Eh]
	 SCS Total Energy          =    -469.3828446813902815 [Eh]
	-----------------------------------------------------------

  Dipole Moment: [D]
     X:    -2.0756      Y:     0.0157      Z:     0.0337     Total:     2.0759

*** Psi4 exiting successfully. Buy a developer a beer!
