                               Psi4 1.4a3.dev225

  ==> Input File <==

--------------------------------------------------------------------------
#psi4
#
memory 32 gb

molecule  {
0 1
  F        1.4483850     2.3325790     0.0027365
  F        1.4077500    -2.3569030     0.0024500
  C       -1.3651830    -0.0000010    -0.0169560
  C       -0.6574790    -1.2079560    -0.0091570
  C       -0.6574810     1.2079540    -0.0091560
  C       -2.8713810    -0.0000030     0.0124600
  C        0.7312170     1.1805550     0.0005770
  C        0.7312190    -1.1805530     0.0005760
  C        1.4628560     0.0000010     0.0071220
  H       -1.1698750    -2.1658170    -0.0181430
  H       -1.1698790     2.1658150    -0.0181420
  H       -3.2423250     0.0000120     1.0428870
  H       -3.2734640     0.8855870    -0.4868160
  H       -3.2734620    -0.8856090    -0.4867890
  H        2.5469510     0.0000020     0.0101120
units angstrom
no_reorient  #important for SAPT in psi4, default
symmetry c1  #important for SAPT in psi4, default
}

set PROPERTIES_ORIGIN ["COM"]
properties('MP2/aug-cc-pvtz', properties = ['dipole'])
--------------------------------------------------------------------------

    Molecular point group: c1
  Charge       = 0
  Multiplicity = 1
  Basis Set: AUG-CC-PVTZ
    Blend: AUG-CC-PVTZ
  Basis Set: (AUG-CC-PVTZ AUX)
    Blend: AUG-CC-PVTZ-JKFIT

    Orbital Energies [Eh]
    ---------------------

    Doubly Occupied:

       1A    -26.317027     2A    -26.316710     3A    -11.346000
       4A    -11.345530     5A    -11.274895     6A    -11.250386
       7A    -11.247513     8A    -11.246407     9A    -11.242082
      10A     -1.630299    11A     -1.629630    12A     -1.179768
      13A     -1.070482    14A     -1.032568    15A     -0.963249
      16A     -0.863419    17A     -0.843568    18A     -0.754690
      19A     -0.740530    20A     -0.702053    21A     -0.698196
      22A     -0.694073    23A     -0.687277    24A     -0.662613
      25A     -0.603127    26A     -0.598252    27A     -0.592890
      28A     -0.555073    29A     -0.540629    30A     -0.525060
      31A     -0.502876    32A     -0.350028    33A     -0.349504

  @DF-RHF Final Energy:  -467.61150722637262

   => Energetics <=

    Nuclear Repulsion Energy =            420.5219263193739039
    One-Electron Energy =               -1475.5540624529551224
    Two-Electron Energy =                 587.4206289072085383
    Total Energy =                       -467.6115072263726233
  Basis Set: (AUG-CC-PVTZ AUX)
    Blend: AUG-CC-PVTZ-RI
    Molecular point group: c1

    Geometry (in Angstrom), charge = 0, multiplicity = 1:

       Center              X                  Y                   Z               Mass
    ------------   -----------------  -----------------  -----------------  -----------------
         F            1.346152867082     2.336188416416     0.002989745090    18.998403162730
         F            1.305517867082    -2.353293583584     0.002703245090    18.998403162730
         C           -1.467415132918     0.003608416416    -0.016702754910    12.000000000000
         C           -0.759711132918    -1.204346583584    -0.008903754910    12.000000000000
         C           -0.759713132918     1.211563416416    -0.008902754910    12.000000000000
         C           -2.973613132918     0.003606416416     0.012713245090    12.000000000000
         C            0.628984867082     1.184164416416     0.000830245090    12.000000000000
         C            0.628986867082    -1.176943583584     0.000829245090    12.000000000000
         C            1.360623867082     0.003610416416     0.007375245090    12.000000000000
         H           -1.272107132918    -2.162207583584    -0.017889754910     1.007825032230
         H           -1.272111132918     2.169424416416    -0.017888754910     1.007825032230
         H           -3.344557132918     0.003621416416     1.043140245090     1.007825032230
         H           -3.375696132918     0.889196416416    -0.486562754910     1.007825032230
         H           -3.375694132918    -0.881999583584    -0.486535754910     1.007825032230
         H            2.444718867082     0.003611416416     0.010365245090     1.007825032230

  Basis Set: AUG-CC-PVTZ
    Blend: AUG-CC-PVTZ
  Basis Set: (AUG-CC-PVTZ AUX)
    Blend: AUG-CC-PVTZ-JKFIT
	 Reference Energy          =    -467.6115072263726233 [Eh]
	 Singles Energy            =      -0.0000000000000000 [Eh]
	 Same-Spin Energy          =      -0.4450819345555402 [Eh]
	 Opposite-Spin Energy      =      -1.3528058205472822 [Eh]
	 Correlation Energy        =      -1.7978877551028223 [Eh]
	 Total Energy              =    -469.4093949814754296 [Eh]

	 ================> DF-SCS-MP2 Energies <==================
	-----------------------------------------------------------
	 SCS Same-Spin Scale       =       0.3333333333333333 [-]
	 SCS Opposite-Spin Scale   =       1.2000000000000000 [-]
	 SCS Same-Spin Energy      =      -0.1483606448518467 [Eh]
	 SCS Opposite-Spin Energy  =      -1.6233669846567385 [Eh]
	 SCS Correlation Energy    =      -1.7717276295085851 [Eh]
	 SCS Total Energy          =    -469.3832348558811987 [Eh]
	-----------------------------------------------------------

  Dipole Moment: [D]
     X:    -2.0868      Y:     0.0219      Z:     0.0332     Total:     2.0871

*** Psi4 exiting successfully. Buy a developer a beer!
