                               Psi4 1.4a3.dev225

  ==> Input File <==

--------------------------------------------------------------------------
#psi4
#
memory 32 gb

molecule  {
0 1
  F        1.4077440     2.3569060     0.0024490
  F        1.4077500    -2.3569030     0.0024500
  C       -1.3651830    -0.0000010    -0.0169560
  C       -0.6574790    -1.2079560    -0.0091570
  C       -0.6574810     1.2079540    -0.0091560
  C       -2.8713810    -0.0000030     0.0124600
  C        0.7312170     1.1805550     0.0005770
  C        0.7312190    -1.1805530     0.0005760
  C        1.4628560     0.0000010     0.0071220
  H       -1.1698750    -2.1658170    -0.0181430
  H       -1.2170465     2.2539884    -0.0189692
  H       -3.2423250     0.0000120     1.0428870
  H       -3.2734640     0.8855870    -0.4868160
  H       -3.2734620    -0.8856090    -0.4867890
  H        2.5469510     0.0000020     0.0101120
units angstrom
no_reorient  #important for SAPT in psi4, default
symmetry c1  #important for SAPT in psi4, default
}

set PROPERTIES_ORIGIN ["COM"]
properties('MP2/aug-cc-pvtz', properties = ['dipole'])
--------------------------------------------------------------------------

    Molecular point group: c1
  Charge       = 0
  Multiplicity = 1
  Basis Set: AUG-CC-PVTZ
    Blend: AUG-CC-PVTZ
  Basis Set: (AUG-CC-PVTZ AUX)
    Blend: AUG-CC-PVTZ-JKFIT

    Orbital Energies [Eh]
    ---------------------

    Doubly Occupied:

       1A    -26.317356     2A    -26.316968     3A    -11.346948
       4A    -11.346344     5A    -11.275330     6A    -11.257157
       7A    -11.252231     8A    -11.247120     9A    -11.241741
      10A     -1.630528    11A     -1.629835    12A     -1.179870
      13A     -1.070650    14A     -1.030561    15A     -0.962605
      16A     -0.860484    17A     -0.843823    18A     -0.754660
      19A     -0.740910    20A     -0.702303    21A     -0.694354
      22A     -0.692087    23A     -0.683714    24A     -0.660148
      25A     -0.601776    26A     -0.596544    27A     -0.592441
      28A     -0.551160    29A     -0.537640    30A     -0.522216
      31A     -0.503465    32A     -0.350540    33A     -0.349981

  @DF-RHF Final Energy:  -467.60434275850491

   => Energetics <=

    Nuclear Repulsion Energy =            420.0060587450246317
    One-Electron Energy =               -1474.5338261779711502
    Two-Electron Energy =                 586.9234246744416623
    Total Energy =                       -467.6043427585049130
  Basis Set: (AUG-CC-PVTZ AUX)
    Blend: AUG-CC-PVTZ-RI
    Molecular point group: c1

    Geometry (in Angstrom), charge = 0, multiplicity = 1:

       Center              X                  Y                   Z               Mass
    ------------   -----------------  -----------------  -----------------  -----------------
         F            1.311913199817     2.356211906988     0.002751413546    18.998403162730
         F            1.311919199817    -2.357597093012     0.002752413546    18.998403162730
         C           -1.461013800183    -0.000695093012    -0.016653586454    12.000000000000
         C           -0.753309800183    -1.208650093012    -0.008854586454    12.000000000000
         C           -0.753311800183     1.207259906988    -0.008853586454    12.000000000000
         C           -2.967211800183    -0.000697093012     0.012762413546    12.000000000000
         C            0.635386199817     1.179860906988     0.000879413546    12.000000000000
         C            0.635388199817    -1.181247093012     0.000878413546    12.000000000000
         C            1.367025199817    -0.000693093012     0.007424413546    12.000000000000
         H           -1.265705800183    -2.166511093012    -0.017840586454     1.007825032230
         H           -1.312877300183     2.253294306988    -0.018666786454     1.007825032230
         H           -3.338155800183    -0.000682093012     1.043189413546     1.007825032230
         H           -3.369294800183     0.884892906988    -0.486513586454     1.007825032230
         H           -3.369292800183    -0.886303093012    -0.486486586454     1.007825032230
         H            2.451120199817    -0.000692093012     0.010414413546     1.007825032230

  Basis Set: AUG-CC-PVTZ
    Blend: AUG-CC-PVTZ
  Basis Set: (AUG-CC-PVTZ AUX)
    Blend: AUG-CC-PVTZ-JKFIT
	 Reference Energy          =    -467.6043427585049130 [Eh]
	 Singles Energy            =      -0.0000000000000000 [Eh]
	 Same-Spin Energy          =      -0.4453288035616900 [Eh]
	 Opposite-Spin Energy      =      -1.3536359303047649 [Eh]
	 Correlation Energy        =      -1.7989647338664549 [Eh]
	 Total Energy              =    -469.4033074923713684 [Eh]

	 ================> DF-SCS-MP2 Energies <==================
	-----------------------------------------------------------
	 SCS Same-Spin Scale       =       0.3333333333333333 [-]
	 SCS Opposite-Spin Scale   =       1.2000000000000000 [-]
	 SCS Same-Spin Energy      =      -0.1484429345205633 [Eh]
	 SCS Opposite-Spin Energy  =      -1.6243631163657180 [Eh]
	 SCS Correlation Energy    =      -1.7728060508862813 [Eh]
	 SCS Total Energy          =    -469.3771488093912012 [Eh]
	-----------------------------------------------------------

  Dipole Moment: [D]
     X:    -2.0397      Y:    -0.0115      Z:     0.0339     Total:     2.0400

*** Psi4 exiting successfully. Buy a developer a beer!
