                               Psi4 1.4a3.dev225

  ==> Input File <==

--------------------------------------------------------------------------
#psi4
#
memory 32 gb

molecule  {
0 1
  F        1.4077440     2.3569060     0.0024490
  F        1.4077500    -2.3569030     0.0024500
  C       -1.4069041     0.0254346    -0.0175919
  C       -0.6574790    -1.2079560    -0.0091570
  C       -0.6574810     1.2079540    -0.0091560
  C       -2.8713810    -0.0000030     0.0124600
  C        0.7312170     1.1805550     0.0005770
  C        0.7312190    -1.1805530     0.0005760
  C        1.4628560     0.0000010     0.0071220
  H       -1.1698750    -2.1658170    -0.0181430
  H       -1.1698790     2.1658150    -0.0181420
  H       -3.2423250     0.0000120     1.0428870
  H       -3.2734640     0.8855870    -0.4868160
  H       -3.2734620    -0.8856090    -0.4867890
  H        2.5469510     0.0000020     0.0101120
units angstrom
no_reorient  #important for SAPT in psi4, default
symmetry c1  #important for SAPT in psi4, default
}

set PROPERTIES_ORIGIN ["COM"]
properties('MP2/aug-cc-pvtz', properties = ['dipole'])
--------------------------------------------------------------------------

    Molecular point group: c1
  Charge       = 0
  Multiplicity = 1
  Basis Set: AUG-CC-PVTZ
    Blend: AUG-CC-PVTZ
  Basis Set: (AUG-CC-PVTZ AUX)
    Blend: AUG-CC-PVTZ-JKFIT

    Orbital Energies [Eh]
    ---------------------

    Doubly Occupied:

       1A    -26.317407     2A    -26.316367     3A    -11.346349
       4A    -11.344997     5A    -11.277869     6A    -11.251539
       7A    -11.249389     8A    -11.246914     9A    -11.241195
      10A     -1.630353    11A     -1.629274    12A     -1.176226
      13A     -1.075538    14A     -1.029793    15A     -0.966593
      16A     -0.861323    17A     -0.842170    18A     -0.755023
      19A     -0.739097    20A     -0.701912    21A     -0.696357
      22A     -0.694053    23A     -0.687586    24A     -0.663204
      25A     -0.603644    26A     -0.602428    27A     -0.597137
      28A     -0.556217    29A     -0.537870    30A     -0.526428
      31A     -0.499974    32A     -0.350664    33A     -0.344134

  @DF-RHF Final Energy:  -467.60774783646684

   => Energetics <=

    Nuclear Repulsion Energy =            420.0475407909518708
    One-Electron Energy =               -1474.5925333363015852
    Two-Electron Energy =                 586.9372447088828721
    Total Energy =                       -467.6077478364668423
  Basis Set: (AUG-CC-PVTZ AUX)
    Blend: AUG-CC-PVTZ-RI
    Molecular point group: c1

    Geometry (in Angstrom), charge = 0, multiplicity = 1:

       Center              X                  Y                   Z               Mass
    ------------   -----------------  -----------------  -----------------  -----------------
         F            1.315451963636     2.354522142128     0.002804497955    18.998403162730
         F            1.315457963636    -2.359286857872     0.002805497955    18.998403162730
         C           -1.499196136364     0.023050742128    -0.017236402045    12.000000000000
         C           -0.749771036364    -1.210339857872    -0.008801502045    12.000000000000
         C           -0.749773036364     1.205570142128    -0.008800502045    12.000000000000
         C           -2.963673036364    -0.002386857872     0.012815497955    12.000000000000
         C            0.638924963636     1.178171142128     0.000932497955    12.000000000000
         C            0.638926963636    -1.182936857872     0.000931497955    12.000000000000
         C            1.370563963636    -0.002382857872     0.007477497955    12.000000000000
         H           -1.262167036364    -2.168200857872    -0.017787502045     1.007825032230
         H           -1.262171036364     2.163431142128    -0.017786502045     1.007825032230
         H           -3.334617036364    -0.002371857872     1.043242497955     1.007825032230
         H           -3.365756036364     0.883203142128    -0.486460502045     1.007825032230
         H           -3.365754036364    -0.887992857872    -0.486433502045     1.007825032230
         H            2.454658963636    -0.002381857872     0.010467497955     1.007825032230

  Basis Set: AUG-CC-PVTZ
    Blend: AUG-CC-PVTZ
  Basis Set: (AUG-CC-PVTZ AUX)
    Blend: AUG-CC-PVTZ-JKFIT
	 Reference Energy          =    -467.6077478364668423 [Eh]
	 Singles Energy            =      -0.0000000000000000 [Eh]
	 Same-Spin Energy          =      -0.4454959105410444 [Eh]
	 Opposite-Spin Energy      =      -1.3535249120735924 [Eh]
	 Correlation Energy        =      -1.7990208226146367 [Eh]
	 Total Energy              =    -469.4067686590814787 [Eh]

	 ================> DF-SCS-MP2 Energies <==================
	-----------------------------------------------------------
	 SCS Same-Spin Scale       =       0.3333333333333333 [-]
	 SCS Opposite-Spin Scale   =       1.2000000000000000 [-]
	 SCS Same-Spin Energy      =      -0.1484986368470148 [Eh]
	 SCS Opposite-Spin Energy  =      -1.6242298944883109 [Eh]
	 SCS Correlation Energy    =      -1.7727285313353256 [Eh]
	 SCS Total Energy          =    -469.3804763678021459 [Eh]
	-----------------------------------------------------------

  Dipole Moment: [D]
     X:    -2.1231      Y:     0.0188      Z:     0.0385     Total:     2.1236

*** Psi4 exiting successfully. Buy a developer a beer!
