                               Psi4 1.4a3.dev225

  ==> Input File <==

--------------------------------------------------------------------------
#psi4
#
memory 32 gb

molecule  {
0 1
  F        1.4077440     2.3569060     0.0024490
  F        1.4077500    -2.3569030     0.0024500
  C       -1.3651830    -0.0000010    -0.0169560
  C       -0.7585780    -1.0353937    -0.0102711
  C       -0.6574810     1.2079540    -0.0091560
  C       -2.8713810    -0.0000030     0.0124600
  C        0.7312170     1.1805550     0.0005770
  C        0.7312190    -1.1805530     0.0005760
  C        1.4628560     0.0000010     0.0071220
  H       -1.1698750    -2.1658170    -0.0181430
  H       -1.1698790     2.1658150    -0.0181420
  H       -3.2423250     0.0000120     1.0428870
  H       -3.2734640     0.8855870    -0.4868160
  H       -3.2734620    -0.8856090    -0.4867890
  H        2.5469510     0.0000020     0.0101120
units angstrom
no_reorient  #important for SAPT in psi4, default
symmetry c1  #important for SAPT in psi4, default
}

set PROPERTIES_ORIGIN ["COM"]
properties('MP2/aug-cc-pvtz', properties = ['dipole'])
--------------------------------------------------------------------------

    Molecular point group: c1
  Charge       = 0
  Multiplicity = 1
  Basis Set: AUG-CC-PVTZ
    Blend: AUG-CC-PVTZ
  Basis Set: (AUG-CC-PVTZ AUX)
    Blend: AUG-CC-PVTZ-JKFIT

    Orbital Energies [Eh]
    ---------------------

    Doubly Occupied:

       1A    -26.330475     2A    -26.315409     3A    -11.357895
       4A    -11.342975     5A    -11.253788     6A    -11.247075
       7A    -11.244400     8A    -11.241585     9A    -11.238436
      10A     -1.638879    11A     -1.628480    12A     -1.199080
      13A     -1.087098    14A     -1.019042    15A     -0.962728
      16A     -0.877042    17A     -0.836964    18A     -0.762418
      19A     -0.744065    20A     -0.707344    21A     -0.695885
      22A     -0.695628    23A     -0.683213    24A     -0.661249
      25A     -0.607889    26A     -0.602842    27A     -0.597616
      28A     -0.552415    29A     -0.545094    30A     -0.510403
      31A     -0.480477    32A     -0.379492    33A     -0.335900

  @DF-RHF Final Energy:  -467.54748883739455

   => Energetics <=

    Nuclear Repulsion Energy =            422.3855584196158475
    One-Electron Energy =               -1479.0995328940471154
    Two-Electron Energy =                 589.1664856370367715
    Total Energy =                       -467.5474888373945532
  Basis Set: (AUG-CC-PVTZ AUX)
    Blend: AUG-CC-PVTZ-RI
    Molecular point group: c1

    Geometry (in Angstrom), charge = 0, multiplicity = 1:

       Center              X                  Y                   Z               Mass
    ------------   -----------------  -----------------  -----------------  -----------------
         F            1.321016739454     2.340733727542     0.002849313885    18.998403162730
         F            1.321022739454    -2.373075272458     0.002850313885    18.998403162730
         C           -1.451910260546    -0.016173272458    -0.016555686115    12.000000000000
         C           -0.845305260546    -1.051565972458    -0.009870786115    12.000000000000
         C           -0.744208260546     1.191781727542    -0.008755686115    12.000000000000
         C           -2.958108260546    -0.016175272458     0.012860313885    12.000000000000
         C            0.644489739454     1.164382727542     0.000977313885    12.000000000000
         C            0.644491739454    -1.196725272458     0.000976313885    12.000000000000
         C            1.376128739454    -0.016171272458     0.007522313885    12.000000000000
         H           -1.256602260546    -2.181989272458    -0.017742686115     1.007825032230
         H           -1.256606260546     2.149642727542    -0.017741686115     1.007825032230
         H           -3.329052260546    -0.016160272458     1.043287313885     1.007825032230
         H           -3.360191260546     0.869414727542    -0.486415686115     1.007825032230
         H           -3.360189260546    -0.901781272458    -0.486388686115     1.007825032230
         H            2.460223739454    -0.016170272458     0.010512313885     1.007825032230

  Basis Set: AUG-CC-PVTZ
    Blend: AUG-CC-PVTZ
  Basis Set: (AUG-CC-PVTZ AUX)
    Blend: AUG-CC-PVTZ-JKFIT
	 Reference Energy          =    -467.5474888373945532 [Eh]
	 Singles Energy            =      -0.0000000000000000 [Eh]
	 Same-Spin Energy          =      -0.4451953308991966 [Eh]
	 Opposite-Spin Energy      =      -1.3553487634727670 [Eh]
	 Correlation Energy        =      -1.8005440943719635 [Eh]
	 Total Energy              =    -469.3480329317665110 [Eh]

	 ================> DF-SCS-MP2 Energies <==================
	-----------------------------------------------------------
	 SCS Same-Spin Scale       =       0.3333333333333333 [-]
	 SCS Opposite-Spin Scale   =       1.2000000000000000 [-]
	 SCS Same-Spin Energy      =      -0.1483984436330655 [Eh]
	 SCS Opposite-Spin Energy  =      -1.6264185161673204 [Eh]
	 SCS Correlation Energy    =      -1.7748169598003858 [Eh]
	 SCS Total Energy          =    -469.3223057971949288 [Eh]
	-----------------------------------------------------------

  Dipole Moment: [D]
     X:    -1.8285      Y:    -0.1374      Z:     0.0288     Total:     1.8339

*** Psi4 exiting successfully. Buy a developer a beer!
