                               Psi4 1.4a3.dev225

  ==> Input File <==

--------------------------------------------------------------------------
#psi4
#
memory 32 gb

molecule  {
0 1
  F        1.4077440     2.3569060     0.0024490
  F        1.4077500    -2.3569030     0.0024500
  C       -1.3651830    -0.0000010    -0.0169560
  C       -0.6574790    -1.2079560    -0.0091570
  C       -0.6574810     1.2079540    -0.0091560
  C       -2.8713810    -0.0000030     0.0124600
  C        0.7312170     1.1805550     0.0005770
  C        0.7312190    -1.1805530     0.0005760
  C        1.4628560     0.0000010     0.0071220
  H       -1.1698750    -2.1658170    -0.0181430
  H       -1.1698790     2.1658150    -0.0181420
  H       -3.2423250     0.0000120     1.0428870
  H       -3.3470207     1.0475961    -0.5781531
  H       -3.2734620    -0.8856090    -0.4867890
  H        2.5469510     0.0000020     0.0101120
units angstrom
no_reorient  #important for SAPT in psi4, default
symmetry c1  #important for SAPT in psi4, default
}

set PROPERTIES_ORIGIN ["COM"]
properties('MP2/aug-cc-pvtz', properties = ['dipole'])
--------------------------------------------------------------------------

    Molecular point group: c1
  Charge       = 0
  Multiplicity = 1
  Basis Set: AUG-CC-PVTZ
    Blend: AUG-CC-PVTZ
  Basis Set: (AUG-CC-PVTZ AUX)
    Blend: AUG-CC-PVTZ-JKFIT

    Orbital Energies [Eh]
    ---------------------

    Doubly Occupied:

       1A    -26.317914     2A    -26.317513     3A    -11.347032
       4A    -11.346503     5A    -11.276504     6A    -11.264245
       7A    -11.252484     8A    -11.248259     9A    -11.246958
      10A     -1.631068    11A     -1.630390    12A     -1.180568
      13A     -1.069113    14A     -1.033333    15A     -0.955099
      16A     -0.863641    17A     -0.841471    18A     -0.753599
      19A     -0.741016    20A     -0.702819    21A     -0.699241
      22A     -0.694889    23A     -0.687033    24A     -0.663005
      25A     -0.602166    26A     -0.600085    27A     -0.585679
      28A     -0.553129    29A     -0.528183    30A     -0.516587
      31A     -0.499036    32A     -0.350818    33A     -0.350073

  @DF-RHF Final Energy:  -467.59144870026239

   => Energetics <=

    Nuclear Repulsion Energy =            419.7386212089998594
    One-Electron Energy =               -1473.9612375411688845
    Two-Electron Energy =                 586.6311676319066919
    Total Energy =                       -467.5914487002623900
  Basis Set: (AUG-CC-PVTZ AUX)
    Blend: AUG-CC-PVTZ-RI
    Molecular point group: c1

    Geometry (in Angstrom), charge = 0, multiplicity = 1:

       Center              X                  Y                   Z               Mass
    ------------   -----------------  -----------------  -----------------  -----------------
         F            1.312120907690     2.355630750446     0.003463811756    18.998403162730
         F            1.312126907690    -2.358178249554     0.003464811756    18.998403162730
         C           -1.460806092310    -0.001276249554    -0.015941188244    12.000000000000
         C           -0.753102092310    -1.209231249554    -0.008142188244    12.000000000000
         C           -0.753104092310     1.206678750446    -0.008141188244    12.000000000000
         C           -2.967004092310    -0.001278249554     0.013474811756    12.000000000000
         C            0.635593907690     1.179279750446     0.001591811756    12.000000000000
         C            0.635595907690    -1.181828249554     0.001590811756    12.000000000000
         C            1.367232907690    -0.001274249554     0.008136811756    12.000000000000
         H           -1.265498092310    -2.167092249554    -0.017128188244     1.007825032230
         H           -1.265502092310     2.164539750446    -0.017127188244     1.007825032230
         H           -3.337948092310    -0.001263249554     1.043901811756     1.007825032230
         H           -3.442643792310     1.046320850446    -0.577138288244     1.007825032230
         H           -3.369085092310    -0.886884249554    -0.485774188244     1.007825032230
         H            2.451327907690    -0.001273249554     0.011126811756     1.007825032230

  Basis Set: AUG-CC-PVTZ
    Blend: AUG-CC-PVTZ
  Basis Set: (AUG-CC-PVTZ AUX)
    Blend: AUG-CC-PVTZ-JKFIT
	 Reference Energy          =    -467.5914487002623900 [Eh]
	 Singles Energy            =      -0.0000000000000000 [Eh]
	 Same-Spin Energy          =      -0.4451322273090356 [Eh]
	 Opposite-Spin Energy      =      -1.3544790869797145 [Eh]
	 Correlation Energy        =      -1.7996113142887502 [Eh]
	 Total Energy              =    -469.3910600145511580 [Eh]

	 ================> DF-SCS-MP2 Energies <==================
	-----------------------------------------------------------
	 SCS Same-Spin Scale       =       0.3333333333333333 [-]
	 SCS Opposite-Spin Scale   =       1.2000000000000000 [-]
	 SCS Same-Spin Energy      =      -0.1483774091030118 [Eh]
	 SCS Opposite-Spin Energy  =      -1.6253749043756573 [Eh]
	 SCS Correlation Energy    =      -1.7737523134786692 [Eh]
	 SCS Total Energy          =    -469.3652010137410571 [Eh]
	-----------------------------------------------------------

  Dipole Moment: [D]
     X:    -1.9466      Y:    -0.0782      Z:     0.0751     Total:     1.9497

*** Psi4 exiting successfully. Buy a developer a beer!
