                               Psi4 1.4a3.dev225

  ==> Input File <==

--------------------------------------------------------------------------
#psi4
#
memory 32 gb

molecule  {
0 1
  F        1.4077440     2.3569060     0.0024490
  F        1.4077500    -2.3569030     0.0024500
  C       -1.3651830    -0.0000010    -0.0169560
  C       -0.6574790    -1.2079560    -0.0091570
  C       -0.6574810     1.2079540    -0.0091560
  C       -2.8713810    -0.0000030     0.0124600
  C        0.7312170     1.1805550     0.0005770
  C        0.7312190    -1.1805530     0.0005760
  C        1.4628560     0.0000010     0.0071220
  H       -1.1698750    -2.1658170    -0.0181430
  H       -1.1698790     2.1658150    -0.0181420
  H       -3.2423250     0.0000120     1.0428870
  H       -3.1999073     0.7235779    -0.3954789
  H       -3.2734620    -0.8856090    -0.4867890
  H        2.5469510     0.0000020     0.0101120
units angstrom
no_reorient  #important for SAPT in psi4, default
symmetry c1  #important for SAPT in psi4, default
}

set PROPERTIES_ORIGIN ["COM"]
properties('MP2/aug-cc-pvtz', properties = ['dipole'])
--------------------------------------------------------------------------

    Molecular point group: c1
  Charge       = 0
  Multiplicity = 1
  Basis Set: AUG-CC-PVTZ
    Blend: AUG-CC-PVTZ
  Basis Set: (AUG-CC-PVTZ AUX)
    Blend: AUG-CC-PVTZ-JKFIT

    Orbital Energies [Eh]
    ---------------------

    Doubly Occupied:

       1A    -26.316886     2A    -26.316602     3A    -11.345851
       4A    -11.345432     5A    -11.273211     6A    -11.251119
       7A    -11.246322     8A    -11.245330     9A    -11.217491
      10A     -1.630103    11A     -1.629488    12A     -1.179822
      13A     -1.076745    14A     -1.032064    15A     -0.980138
      16A     -0.862884    17A     -0.849145    18A     -0.757313
      19A     -0.741063    20A     -0.701872    21A     -0.698142
      22A     -0.693955    23A     -0.688510    24A     -0.663064
      25A     -0.622952    26A     -0.598454    27A     -0.595693
      28A     -0.562977    29A     -0.546543    30A     -0.523514
      31A     -0.503173    32A     -0.349951    33A     -0.349052

  @DF-RHF Final Energy:  -467.57782016494741

   => Energetics <=

    Nuclear Repulsion Energy =            421.4881615145968681
    One-Electron Energy =               -1477.3422366781387609
    Two-Electron Energy =                 588.2762549985944815
    Total Energy =                       -467.5778201649474113
  Basis Set: (AUG-CC-PVTZ AUX)
    Blend: AUG-CC-PVTZ-RI
    Molecular point group: c1

    Geometry (in Angstrom), charge = 0, multiplicity = 1:

       Center              X                  Y                   Z               Mass
    ------------   -----------------  -----------------  -----------------  -----------------
         F            1.310962986592     2.358181079035     0.002025993649    18.998403162730
         F            1.310968986592    -2.355627920965     0.002026993649    18.998403162730
         C           -1.461964013408     0.001274079035    -0.017379006351    12.000000000000
         C           -0.754260013408    -1.206680920965    -0.009580006351    12.000000000000
         C           -0.754262013408     1.209229079035    -0.009579006351    12.000000000000
         C           -2.968162013408     0.001272079035     0.012036993649    12.000000000000
         C            0.634435986592     1.181830079035     0.000153993649    12.000000000000
         C            0.634437986592    -1.179277920965     0.000152993649    12.000000000000
         C            1.366074986592     0.001276079035     0.006698993649    12.000000000000
         H           -1.266656013408    -2.164541920965    -0.018566006351     1.007825032230
         H           -1.266660013408     2.167090079035    -0.018565006351     1.007825032230
         H           -3.339106013408     0.001287079035     1.042463993649     1.007825032230
         H           -3.296688313408     0.724852979035    -0.395901906351     1.007825032230
         H           -3.370243013408    -0.884333920965    -0.487212006351     1.007825032230
         H            2.450169986592     0.001277079035     0.009688993649     1.007825032230

  Basis Set: AUG-CC-PVTZ
    Blend: AUG-CC-PVTZ
  Basis Set: (AUG-CC-PVTZ AUX)
    Blend: AUG-CC-PVTZ-JKFIT
	 Reference Energy          =    -467.5778201649474113 [Eh]
	 Singles Energy            =      -0.0000000000000000 [Eh]
	 Same-Spin Energy          =      -0.4451320518728852 [Eh]
	 Opposite-Spin Energy      =      -1.3521191903533327 [Eh]
	 Correlation Energy        =      -1.7972512422262179 [Eh]
	 Total Energy              =    -469.3750714071736070 [Eh]

	 ================> DF-SCS-MP2 Energies <==================
	-----------------------------------------------------------
	 SCS Same-Spin Scale       =       0.3333333333333333 [-]
	 SCS Opposite-Spin Scale   =       1.2000000000000000 [-]
	 SCS Same-Spin Energy      =      -0.1483773506242951 [Eh]
	 SCS Opposite-Spin Energy  =      -1.6225430284239992 [Eh]
	 SCS Correlation Energy    =      -1.7709203790482944 [Eh]
	 SCS Total Energy          =    -469.3487405439956888 [Eh]
	-----------------------------------------------------------

  Dipole Moment: [D]
     X:    -2.1009      Y:     0.0413      Z:     0.0142     Total:     2.1013

*** Psi4 exiting successfully. Buy a developer a beer!
