                               Psi4 1.4a3.dev225

  ==> Input File <==

--------------------------------------------------------------------------
#psi4
#
memory 32 gb

molecule  {
0 1
  F        1.4077440     2.3569060     0.0024490
  F        1.4077500    -2.3569030     0.0024500
  C       -1.3651830    -0.0000010    -0.0169560
  C       -0.6574790    -1.2079560    -0.0091570
  C       -0.6574810     1.2079540    -0.0091560
  C       -2.8713810    -0.0000030     0.0124600
  C        0.7312170     1.1805550     0.0005770
  C        0.7312190    -1.1805530     0.0005760
  C        1.4628560     0.0000010     0.0071220
  H       -1.1698750    -2.1658170    -0.0181430
  H       -1.1698790     2.1658150    -0.0181420
  H       -3.2423250     0.0000120     1.0428870
  H       -3.2808197     0.9017879    -0.4959497
  H       -3.2734620    -0.8856090    -0.4867890
  H        2.5469510     0.0000020     0.0101120
units angstrom
no_reorient  #important for SAPT in psi4, default
symmetry c1  #important for SAPT in psi4, default
}

set PROPERTIES_ORIGIN ["COM"]
properties('MP2/aug-cc-pvtz', properties = ['dipole'])
--------------------------------------------------------------------------

    Molecular point group: c1
  Charge       = 0
  Multiplicity = 1
  Basis Set: AUG-CC-PVTZ
    Blend: AUG-CC-PVTZ
  Basis Set: (AUG-CC-PVTZ AUX)
    Blend: AUG-CC-PVTZ-JKFIT

    Orbital Energies [Eh]
    ---------------------

    Doubly Occupied:

       1A    -26.317135     2A    -26.317100     3A    -11.346094
       4A    -11.346045     5A    -11.274620     6A    -11.251611
       7A    -11.246556     8A    -11.246432     9A    -11.244199
      10A     -1.630428    11A     -1.629879    12A     -1.179796
      13A     -1.070283    14A     -1.032538    15A     -0.962011
      16A     -0.863042    17A     -0.843692    18A     -0.754254
      19A     -0.740818    20A     -0.702225    21A     -0.698515
      22A     -0.694316    23A     -0.687102    24A     -0.662605
      25A     -0.602572    26A     -0.598436    27A     -0.591773
      28A     -0.555553    29A     -0.538766    30A     -0.524279
      31A     -0.502888    32A     -0.350066    33A     -0.349578

  @DF-RHF Final Energy:  -467.61125639912808

   => Energetics <=

    Nuclear Repulsion Energy =            420.4210349501278188
    One-Electron Energy =               -1475.3541651338780412
    Two-Electron Energy =                 587.3218737846219710
    Total Energy =                       -467.6112563991281377
  Basis Set: (AUG-CC-PVTZ AUX)
    Blend: AUG-CC-PVTZ-RI
    Molecular point group: c1

    Geometry (in Angstrom), charge = 0, multiplicity = 1:

       Center              X                  Y                   Z               Mass
    ------------   -----------------  -----------------  -----------------  -----------------
         F            1.311599843432     2.356778398390     0.002816793529    18.998403162730
         F            1.311605843432    -2.357030601610     0.002817793529    18.998403162730
         C           -1.461327156568    -0.000128601610    -0.016588206471    12.000000000000
         C           -0.753623156568    -1.208083601610    -0.008789206471    12.000000000000
         C           -0.753625156568     1.207826398390    -0.008788206471    12.000000000000
         C           -2.967525156568    -0.000130601610     0.012827793529    12.000000000000
         C            0.635072843432     1.180427398390     0.000944793529    12.000000000000
         C            0.635074843432    -1.180680601610     0.000943793529    12.000000000000
         C            1.366711843432    -0.000126601610     0.007489793529    12.000000000000
         H           -1.266019156568    -2.165944601610    -0.017775206471     1.007825032230
         H           -1.266023156568     2.165687398390    -0.017774206471     1.007825032230
         H           -3.338469156568    -0.000115601610     1.043254793529     1.007825032230
         H           -3.376963856568     0.901660298390    -0.495581906471     1.007825032230
         H           -3.369606156568    -0.885736601610    -0.486421206471     1.007825032230
         H            2.450806843432    -0.000125601610     0.010479793529     1.007825032230

  Basis Set: AUG-CC-PVTZ
    Blend: AUG-CC-PVTZ
  Basis Set: (AUG-CC-PVTZ AUX)
    Blend: AUG-CC-PVTZ-JKFIT
	 Reference Energy          =    -467.6112563991280808 [Eh]
	 Singles Energy            =      -0.0000000000000000 [Eh]
	 Same-Spin Energy          =      -0.4450698746478532 [Eh]
	 Opposite-Spin Energy      =      -1.3529152285872690 [Eh]
	 Correlation Energy        =      -1.7979851032351222 [Eh]
	 Total Energy              =    -469.4092415023632157 [Eh]

	 ================> DF-SCS-MP2 Energies <==================
	-----------------------------------------------------------
	 SCS Same-Spin Scale       =       0.3333333333333333 [-]
	 SCS Opposite-Spin Scale   =       1.2000000000000000 [-]
	 SCS Same-Spin Energy      =      -0.1483566248826177 [Eh]
	 SCS Opposite-Spin Energy  =      -1.6234982743047228 [Eh]
	 SCS Correlation Energy    =      -1.7718548991873406 [Eh]
	 SCS Total Energy          =    -469.3831112983154412 [Eh]
	-----------------------------------------------------------

  Dipole Moment: [D]
     X:    -2.0375      Y:    -0.0062      Z:     0.0368     Total:     2.0379

*** Psi4 exiting successfully. Buy a developer a beer!
