                               Psi4 1.4a3.dev225

  ==> Input File <==

--------------------------------------------------------------------------
#psi4
#
memory 32 gb

molecule  {
0 1
  F        1.4077440     2.3569060     0.0024490
  F        1.4077500    -2.3569030     0.0024500
  C       -1.3651830    -0.0000010    -0.0169560
  C       -0.6574790    -1.2079560    -0.0091570
  C       -0.6574810     1.2079540    -0.0091560
  C       -2.8713810    -0.0000030     0.0124600
  C        0.7312170     1.1805550     0.0005770
  C        0.7312190    -1.1805530     0.0005760
  C        1.4628560     0.0000010     0.0071220
  H       -1.1698750    -2.1658170    -0.0181430
  H       -1.1698790     2.1658150    -0.0181420
  H       -3.2423250     0.0000120     1.0428870
  H       -3.2734640     0.8855870    -0.4868160
  H       -3.2734620    -0.8856090    -0.4867890
  H        2.5969508     0.0000020     0.0102499
units angstrom
no_reorient  #important for SAPT in psi4, default
symmetry c1  #important for SAPT in psi4, default
}

set PROPERTIES_ORIGIN ["COM"]
properties('MP2/aug-cc-pvtz', properties = ['dipole'])
--------------------------------------------------------------------------

    Molecular point group: c1
  Charge       = 0
  Multiplicity = 1
  Basis Set: AUG-CC-PVTZ
    Blend: AUG-CC-PVTZ
  Basis Set: (AUG-CC-PVTZ AUX)
    Blend: AUG-CC-PVTZ-JKFIT

    Orbital Energies [Eh]
    ---------------------

    Doubly Occupied:

       1A    -26.316951     2A    -26.316950     3A    -11.346300
       4A    -11.346295     5A    -11.274482     6A    -11.256753
       7A    -11.246646     8A    -11.246608     9A    -11.241861
      10A     -1.630249    11A     -1.629707    12A     -1.179712
      13A     -1.069644    14A     -1.032650    15A     -0.961873
      16A     -0.863078    17A     -0.842993    18A     -0.753777
      19A     -0.740809    20A     -0.702082    21A     -0.694153
      22A     -0.692816    23A     -0.687272    24A     -0.661465
      25A     -0.603243    26A     -0.593815    27A     -0.591525
      28A     -0.556308    29A     -0.540320    30A     -0.522899
      31A     -0.503099    32A     -0.350079    33A     -0.349676

  @DF-RHF Final Energy:  -467.60930914878304

   => Energetics <=

    Nuclear Repulsion Energy =            420.2448391521468238
    One-Electron Energy =               -1475.0161090710398639
    Two-Electron Energy =                 587.1619607701099994
    Total Energy =                       -467.6093091487830407
  Basis Set: (AUG-CC-PVTZ AUX)
    Blend: AUG-CC-PVTZ-RI
    Molecular point group: c1

    Geometry (in Angstrom), charge = 0, multiplicity = 1:

       Center              X                  Y                   Z               Mass
    ------------   -----------------  -----------------  -----------------  -----------------
         F            1.311148401595     2.356905914740     0.002743817300    18.998403162730
         F            1.311154401595    -2.356903085260     0.002744817300    18.998403162730
         C           -1.461778598405    -0.000001085260    -0.016661182700    12.000000000000
         C           -0.754074598405    -1.207956085260    -0.008862182700    12.000000000000
         C           -0.754076598405     1.207953914740    -0.008861182700    12.000000000000
         C           -2.967976598405    -0.000003085260     0.012754817300    12.000000000000
         C            0.634621401595     1.180554914740     0.000871817300    12.000000000000
         C            0.634623401595    -1.180553085260     0.000870817300    12.000000000000
         C            1.366260401595     0.000000914740     0.007416817300    12.000000000000
         H           -1.266470598405    -2.165817085260    -0.017848182700     1.007825032230
         H           -1.266474598405     2.165814914740    -0.017847182700     1.007825032230
         H           -3.338920598405     0.000011914740     1.043181817300     1.007825032230
         H           -3.370059598405     0.885586914740    -0.486521182700     1.007825032230
         H           -3.370057598405    -0.885609085260    -0.486494182700     1.007825032230
         H            2.500355201595     0.000001914740     0.010544717300     1.007825032230

  Basis Set: AUG-CC-PVTZ
    Blend: AUG-CC-PVTZ
  Basis Set: (AUG-CC-PVTZ AUX)
    Blend: AUG-CC-PVTZ-JKFIT
	 Reference Energy          =    -467.6093091487830407 [Eh]
	 Singles Energy            =      -0.0000000000000000 [Eh]
	 Same-Spin Energy          =      -0.4451867042102292 [Eh]
	 Opposite-Spin Energy      =      -1.3531348576558055 [Eh]
	 Correlation Energy        =      -1.7983215618660346 [Eh]
	 Total Energy              =    -469.4076307106490731 [Eh]

	 ================> DF-SCS-MP2 Energies <==================
	-----------------------------------------------------------
	 SCS Same-Spin Scale       =       0.3333333333333333 [-]
	 SCS Opposite-Spin Scale   =       1.2000000000000000 [-]
	 SCS Same-Spin Energy      =      -0.1483955680700764 [Eh]
	 SCS Opposite-Spin Energy  =      -1.6237618291869667 [Eh]
	 SCS Correlation Energy    =      -1.7721573972570430 [Eh]
	 SCS Total Energy          =    -469.3814665460400875 [Eh]
	-----------------------------------------------------------

  Dipole Moment: [D]
     X:    -2.0353      Y:     0.0000      Z:     0.0336     Total:     2.0356

*** Psi4 exiting successfully. Buy a developer a beer!
