                               Psi4 1.4a3.dev225

  ==> Input File <==

--------------------------------------------------------------------------
#psi4
#
memory 32 gb

molecule  {
0 1
  F        1.4077440     2.3569060     0.0024490
  F        1.4077500    -2.3569030     0.0024500
  C       -1.3651830    -0.0000010    -0.0169560
  C       -0.7434605    -1.2543834    -0.0101046
  C       -0.6574810     1.2079540    -0.0091560
  C       -2.8713810    -0.0000030     0.0124600
  C        0.7312170     1.1805550     0.0005770
  C        0.7312190    -1.1805530     0.0005760
  C        1.4628560     0.0000010     0.0071220
  H       -1.1698750    -2.1658170    -0.0181430
  H       -1.1698790     2.1658150    -0.0181420
  H       -3.2423250     0.0000120     1.0428870
  H       -3.2734640     0.8855870    -0.4868160
  H       -3.2734620    -0.8856090    -0.4867890
  H        2.5469510     0.0000020     0.0101120
units angstrom
no_reorient  #important for SAPT in psi4, default
symmetry c1  #important for SAPT in psi4, default
}

set PROPERTIES_ORIGIN ["COM"]
properties('MP2/aug-cc-pvtz', properties = ['dipole'])
--------------------------------------------------------------------------

    Molecular point group: c1
  Charge       = 0
  Multiplicity = 1
  Basis Set: AUG-CC-PVTZ
    Blend: AUG-CC-PVTZ
  Basis Set: (AUG-CC-PVTZ AUX)
    Blend: AUG-CC-PVTZ-JKFIT

    Orbital Energies [Eh]
    ---------------------

    Doubly Occupied:

       1A    -26.319017     2A    -26.318309     3A    -11.356447
       4A    -11.349097     5A    -11.274814     6A    -11.252617
       7A    -11.249312     8A    -11.246050     9A    -11.238540
      10A     -1.632003    11A     -1.631054    12A     -1.173331
      13A     -1.072390    14A     -1.025334    15A     -0.959798
      16A     -0.869542    17A     -0.839243    18A     -0.752433
      19A     -0.740469    20A     -0.712904    21A     -0.702615
      22A     -0.694806    23A     -0.681887    24A     -0.665480
      25A     -0.609529    26A     -0.598857    27A     -0.590982
      28A     -0.564386    29A     -0.542941    30A     -0.510493
      31A     -0.497882    32A     -0.353715    33A     -0.341444

  @DF-RHF Final Energy:  -467.59799592481676

   => Energetics <=

    Nuclear Repulsion Energy =            419.0483080119765305
    One-Electron Energy =               -1472.5571588965517549
    Two-Electron Energy =                 585.9108549597583533
    Total Energy =                       -467.5979959248168143
  Basis Set: (AUG-CC-PVTZ AUX)
    Blend: AUG-CC-PVTZ-RI
    Molecular point group: c1

    Geometry (in Angstrom), charge = 0, multiplicity = 1:

       Center              X                  Y                   Z               Mass
    ------------   -----------------  -----------------  -----------------  -----------------
         F            1.319599958153     2.361256996083     0.002833709844    18.998403162730
         F            1.319605958153    -2.352552003917     0.002834709844    18.998403162730
         C           -1.453327041847     0.004349996083    -0.016571290156    12.000000000000
         C           -0.831604541847    -1.250032403917    -0.009719890156    12.000000000000
         C           -0.745625041847     1.212304996083    -0.008771290156    12.000000000000
         C           -2.959525041847     0.004347996083     0.012844709844    12.000000000000
         C            0.643072958153     1.184905996083     0.000961709844    12.000000000000
         C            0.643074958153    -1.176202003917     0.000960709844    12.000000000000
         C            1.374711958153     0.004351996083     0.007506709844    12.000000000000
         H           -1.258019041847    -2.161466003917    -0.017758290156     1.007825032230
         H           -1.258023041847     2.170165996083    -0.017757290156     1.007825032230
         H           -3.330469041847     0.004362996083     1.043271709844     1.007825032230
         H           -3.361608041847     0.889937996083    -0.486431290156     1.007825032230
         H           -3.361606041847    -0.881258003917    -0.486404290156     1.007825032230
         H            2.458806958153     0.004352996083     0.010496709844     1.007825032230

  Basis Set: AUG-CC-PVTZ
    Blend: AUG-CC-PVTZ
  Basis Set: (AUG-CC-PVTZ AUX)
    Blend: AUG-CC-PVTZ-JKFIT
	 Reference Energy          =    -467.5979959248167575 [Eh]
	 Singles Energy            =      -0.0000000000000000 [Eh]
	 Same-Spin Energy          =      -0.4449930473812933 [Eh]
	 Opposite-Spin Energy      =      -1.3538246186721468 [Eh]
	 Correlation Energy        =      -1.7988176660534401 [Eh]
	 Total Energy              =    -469.3968135908701811 [Eh]

	 ================> DF-SCS-MP2 Energies <==================
	-----------------------------------------------------------
	 SCS Same-Spin Scale       =       0.3333333333333333 [-]
	 SCS Opposite-Spin Scale   =       1.2000000000000000 [-]
	 SCS Same-Spin Energy      =      -0.1483310157937644 [Eh]
	 SCS Opposite-Spin Energy  =      -1.6245895424065762 [Eh]
	 SCS Correlation Energy    =      -1.7729205582003407 [Eh]
	 SCS Total Energy          =    -469.3709164830170835 [Eh]
	-----------------------------------------------------------

  Dipole Moment: [D]
     X:    -1.9281      Y:    -0.0433      Z:     0.0333     Total:     1.9288

*** Psi4 exiting successfully. Buy a developer a beer!
