                               Psi4 1.4a3.dev225

  ==> Input File <==

--------------------------------------------------------------------------
#psi4
#
memory 32 gb

molecule  {
0 1
  F        1.4077440     2.3569060     0.0024490
  F        1.4077500    -2.3569030     0.0024500
  C       -1.3651830    -0.0000010    -0.0169560
  C       -0.6574790    -1.2079560    -0.0091570
  C       -0.6574810     1.2079540    -0.0091560
  C       -2.8713810    -0.0000030     0.0124600
  C        0.7312170     1.1805550     0.0005770
  C        0.7312190    -1.1805530     0.0005760
  C        1.4628560     0.0000010     0.0071220
  H       -1.1698750    -2.1658170    -0.0181430
  H       -1.1227115     2.0776416    -0.0173148
  H       -3.2423250     0.0000120     1.0428870
  H       -3.2734640     0.8855870    -0.4868160
  H       -3.2734620    -0.8856090    -0.4867890
  H        2.5469510     0.0000020     0.0101120
units angstrom
no_reorient  #important for SAPT in psi4, default
symmetry c1  #important for SAPT in psi4, default
}

set PROPERTIES_ORIGIN ["COM"]
properties('MP2/aug-cc-pvtz', properties = ['dipole'])
--------------------------------------------------------------------------

    Molecular point group: c1
  Charge       = 0
  Multiplicity = 1
  Basis Set: AUG-CC-PVTZ
    Blend: AUG-CC-PVTZ
  Basis Set: (AUG-CC-PVTZ AUX)
    Blend: AUG-CC-PVTZ-JKFIT

    Orbital Energies [Eh]
    ---------------------

    Doubly Occupied:

       1A    -26.317241     2A    -26.316905     3A    -11.345847
       4A    -11.345343     5A    -11.273818     6A    -11.250982
       7A    -11.245825     8A    -11.241926     9A    -11.234877
      10A     -1.630449    11A     -1.629793    12A     -1.180059
      13A     -1.070849    14A     -1.035593    15A     -0.964163
      16A     -0.867084    17A     -0.844402    18A     -0.754324
      19A     -0.741090    20A     -0.711881    21A     -0.702133
      22A     -0.694258    23A     -0.687870    24A     -0.664245
      25A     -0.606158    26A     -0.599039    27A     -0.592829
      28A     -0.560972    29A     -0.541397    30A     -0.524848
      31A     -0.502594    32A     -0.349692    33A     -0.349243

  @DF-RHF Final Energy:  -467.60589781565795

   => Energetics <=

    Nuclear Repulsion Energy =            421.0638278917926414
    One-Electron Energy =               -1476.5839890952013320
    Two-Electron Energy =                 587.9142633877506796
    Total Energy =                       -467.6058978156579542
  Basis Set: (AUG-CC-PVTZ AUX)
    Blend: AUG-CC-PVTZ-RI
    Molecular point group: c1

    Geometry (in Angstrom), charge = 0, multiplicity = 1:

       Center              X                  Y                   Z               Mass
    ------------   -----------------  -----------------  -----------------  -----------------
         F            1.311170694466     2.357599922493     0.002738391859    18.998403162730
         F            1.311176694466    -2.356209077507     0.002739391859    18.998403162730
         C           -1.461756305534     0.000692922493    -0.016666608141    12.000000000000
         C           -0.754052305534    -1.207262077507    -0.008867608141    12.000000000000
         C           -0.754054305534     1.208647922493    -0.008866608141    12.000000000000
         C           -2.967954305534     0.000690922493     0.012749391859    12.000000000000
         C            0.634643694466     1.181248922493     0.000866391859    12.000000000000
         C            0.634645694466    -1.179859077507     0.000865391859    12.000000000000
         C            1.366282694466     0.000694922493     0.007411391859    12.000000000000
         H           -1.266448305534    -2.165123077507    -0.017853608141     1.007825032230
         H           -1.219284805534     2.078335522493    -0.017025408141     1.007825032230
         H           -3.338898305534     0.000705922493     1.043176391859     1.007825032230
         H           -3.370037305534     0.886280922493    -0.486526608141     1.007825032230
         H           -3.370035305534    -0.884915077507    -0.486499608141     1.007825032230
         H            2.450377694466     0.000695922493     0.010401391859     1.007825032230

  Basis Set: AUG-CC-PVTZ
    Blend: AUG-CC-PVTZ
  Basis Set: (AUG-CC-PVTZ AUX)
    Blend: AUG-CC-PVTZ-JKFIT
	 Reference Energy          =    -467.6058978156579542 [Eh]
	 Singles Energy            =      -0.0000000000000000 [Eh]
	 Same-Spin Energy          =      -0.4448757063733005 [Eh]
	 Opposite-Spin Energy      =      -1.3523229093020717 [Eh]
	 Correlation Energy        =      -1.7971986156753723 [Eh]
	 Total Energy              =    -469.4030964313333243 [Eh]

	 ================> DF-SCS-MP2 Energies <==================
	-----------------------------------------------------------
	 SCS Same-Spin Scale       =       0.3333333333333333 [-]
	 SCS Opposite-Spin Scale   =       1.2000000000000000 [-]
	 SCS Same-Spin Energy      =      -0.1482919021244335 [Eh]
	 SCS Opposite-Spin Energy  =      -1.6227874911624860 [Eh]
	 SCS Correlation Energy    =      -1.7710793932869195 [Eh]
	 SCS Total Energy          =    -469.3769772089448793 [Eh]
	-----------------------------------------------------------

  Dipole Moment: [D]
     X:    -2.0464      Y:     0.0024      Z:     0.0333     Total:     2.0467

*** Psi4 exiting successfully. Buy a developer a beer!
