                               Psi4 1.4a3.dev225

  ==> Input File <==

--------------------------------------------------------------------------
#psi4
#
memory 32 gb

molecule  {
0 1
  F        1.4077440     2.3569060     0.0024490
  F        1.4077500    -2.3569030     0.0024500
  C       -1.3651830    -0.0000010    -0.0169560
  C       -0.6574790    -1.2079560    -0.0091570
  C       -0.6574810     1.2079540    -0.0091560
  C       -2.8713810    -0.0000030     0.0124600
  C        0.7312170     1.1805550     0.0005770
  C        0.7312190    -1.1805530     0.0005760
  C        1.4628560     0.0000010     0.0071220
  H       -1.1698750    -2.1658170    -0.0181430
  H       -1.1698790     2.1658150    -0.0181420
  H       -3.2423250     0.0000120     1.0428870
  H       -3.2734640     0.8855870    -0.4868160
  H       -3.2734620    -0.8856090    -0.4867890
  H        2.5669509     0.0000020     0.0101672
units angstrom
no_reorient  #important for SAPT in psi4, default
symmetry c1  #important for SAPT in psi4, default
}

set PROPERTIES_ORIGIN ["COM"]
properties('MP2/aug-cc-pvtz', properties = ['dipole'])
--------------------------------------------------------------------------

    Molecular point group: c1
  Charge       = 0
  Multiplicity = 1
  Basis Set: AUG-CC-PVTZ
    Blend: AUG-CC-PVTZ
  Basis Set: (AUG-CC-PVTZ AUX)
    Blend: AUG-CC-PVTZ-JKFIT

    Orbital Energies [Eh]
    ---------------------

    Doubly Occupied:

       1A    -26.317020     2A    -26.317019     3A    -11.346123
       4A    -11.346118     5A    -11.274459     6A    -11.253654
       7A    -11.246508     8A    -11.246471     9A    -11.241834
      10A     -1.630326    11A     -1.629781    12A     -1.179726
      13A     -1.070179    14A     -1.032541    15A     -0.962623
      16A     -0.863029    17A     -0.843610    18A     -0.754139
      19A     -0.740814    20A     -0.702137    21A     -0.696066
      22A     -0.694221    23A     -0.687204    24A     -0.662159
      25A     -0.603192    26A     -0.596281    27A     -0.592552
      28A     -0.556217    29A     -0.540269    30A     -0.523736
      31A     -0.503010    32A     -0.350041    33A     -0.349580

  @DF-RHF Final Energy:  -467.61115065707389

   => Energetics <=

    Nuclear Repulsion Energy =            420.3996622708315840
    One-Electron Energy =               -1475.3163463206587949
    Two-Electron Energy =                 587.3055333927533184
    Total Energy =                       -467.6111506570738356
  Basis Set: (AUG-CC-PVTZ AUX)
    Blend: AUG-CC-PVTZ-RI
    Molecular point group: c1

    Geometry (in Angstrom), charge = 0, multiplicity = 1:

       Center              X                  Y                   Z               Mass
    ------------   -----------------  -----------------  -----------------  -----------------
         F            1.311384529080     2.356905914740     0.002744468226    18.998403162730
         F            1.311390529080    -2.356903085260     0.002745468226    18.998403162730
         C           -1.461542470920    -0.000001085260    -0.016660531774    12.000000000000
         C           -0.753838470920    -1.207956085260    -0.008861531774    12.000000000000
         C           -0.753840470920     1.207953914740    -0.008860531774    12.000000000000
         C           -2.967740470920    -0.000003085260     0.012755468226    12.000000000000
         C            0.634857529080     1.180554914740     0.000872468226    12.000000000000
         C            0.634859529080    -1.180553085260     0.000871468226    12.000000000000
         C            1.366496529080     0.000000914740     0.007417468226    12.000000000000
         H           -1.266234470920    -2.165817085260    -0.017847531774     1.007825032230
         H           -1.266238470920     2.165814914740    -0.017846531774     1.007825032230
         H           -3.338684470920     0.000011914740     1.043182468226     1.007825032230
         H           -3.369823470920     0.885586914740    -0.486520531774     1.007825032230
         H           -3.369821470920    -0.885609085260    -0.486493531774     1.007825032230
         H            2.470591429080     0.000001914740     0.010462668226     1.007825032230

  Basis Set: AUG-CC-PVTZ
    Blend: AUG-CC-PVTZ
  Basis Set: (AUG-CC-PVTZ AUX)
    Blend: AUG-CC-PVTZ-JKFIT
	 Reference Energy          =    -467.6111506570738925 [Eh]
	 Singles Energy            =      -0.0000000000000000 [Eh]
	 Same-Spin Energy          =      -0.4451116420719469 [Eh]
	 Opposite-Spin Energy      =      -1.3529097699473804 [Eh]
	 Correlation Energy        =      -1.7980214120193274 [Eh]
	 Total Energy              =    -469.4091720690932448 [Eh]

	 ================> DF-SCS-MP2 Energies <==================
	-----------------------------------------------------------
	 SCS Same-Spin Scale       =       0.3333333333333333 [-]
	 SCS Opposite-Spin Scale   =       1.2000000000000000 [-]
	 SCS Same-Spin Energy      =      -0.1483705473573156 [Eh]
	 SCS Opposite-Spin Energy  =      -1.6234917239368565 [Eh]
	 SCS Correlation Energy    =      -1.7718622712941721 [Eh]
	 SCS Total Energy          =    -469.3830129283680890 [Eh]
	-----------------------------------------------------------

  Dipole Moment: [D]
     X:    -2.0412      Y:     0.0000      Z:     0.0336     Total:     2.0415

*** Psi4 exiting successfully. Buy a developer a beer!
