                               Psi4 1.4a3.dev225

  ==> Input File <==

--------------------------------------------------------------------------
#psi4
#
memory 32 gb

molecule  {
0 1
  F        1.4077440     2.3569060     0.0024490
  F        1.4077500    -2.3569030     0.0024500
  C       -1.3651830    -0.0000010    -0.0169560
  C       -0.5563800    -1.3805183    -0.0080429
  C       -0.6574810     1.2079540    -0.0091560
  C       -2.8713810    -0.0000030     0.0124600
  C        0.7312170     1.1805550     0.0005770
  C        0.7312190    -1.1805530     0.0005760
  C        1.4628560     0.0000010     0.0071220
  H       -1.1698750    -2.1658170    -0.0181430
  H       -1.1698790     2.1658150    -0.0181420
  H       -3.2423250     0.0000120     1.0428870
  H       -3.2734640     0.8855870    -0.4868160
  H       -3.2734620    -0.8856090    -0.4867890
  H        2.5469510     0.0000020     0.0101120
units angstrom
no_reorient  #important for SAPT in psi4, default
symmetry c1  #important for SAPT in psi4, default
}

set PROPERTIES_ORIGIN ["COM"]
properties('MP2/aug-cc-pvtz', properties = ['dipole'])
--------------------------------------------------------------------------

    Molecular point group: c1
  Charge       = 0
  Multiplicity = 1
  Basis Set: AUG-CC-PVTZ
    Blend: AUG-CC-PVTZ
  Basis Set: (AUG-CC-PVTZ AUX)
    Blend: AUG-CC-PVTZ-JKFIT

    Orbital Energies [Eh]
    ---------------------

    Doubly Occupied:

       1A    -26.319741     2A    -26.301365     3A    -11.350401
       4A    -11.333942     5A    -11.293712     6A    -11.249625
       7A    -11.248517     8A    -11.245446     9A    -11.244770
      10A     -1.632586    11A     -1.621189    12A     -1.171032
      13A     -1.063841    14A     -1.044545    15A     -0.966587
      16A     -0.864608    17A     -0.834780    18A     -0.750527
      19A     -0.741074    20A     -0.713844    21A     -0.701616
      22A     -0.689104    23A     -0.684150    24A     -0.659901
      25A     -0.600162    26A     -0.596232    27A     -0.591984
      28A     -0.577052    29A     -0.540658    30A     -0.499561
      31A     -0.498420    32A     -0.366005    33A     -0.332862

  @DF-RHF Final Energy:  -467.57045765713451

   => Energetics <=

    Nuclear Repulsion Energy =            419.2632264603147974
    One-Electron Energy =               -1473.0076902517575945
    Two-Electron Energy =                 586.1740061343082289
    Total Energy =                       -467.5704576571345115
  Basis Set: (AUG-CC-PVTZ AUX)
    Blend: AUG-CC-PVTZ-RI
    Molecular point group: c1

    Geometry (in Angstrom), charge = 0, multiplicity = 1:

       Center              X                  Y                   Z               Mass
    ------------   -----------------  -----------------  -----------------  -----------------
         F            1.302067154828     2.373078101939     0.002640491520    18.998403162730
         F            1.302073154828    -2.340730898061     0.002641491520    18.998403162730
         C           -1.470859845172     0.016171101939    -0.016764508480    12.000000000000
         C           -0.662056845172    -1.364346198061    -0.007851408480    12.000000000000
         C           -0.763157845172     1.224126101939    -0.008964508480    12.000000000000
         C           -2.977057845172     0.016169101939     0.012651491520    12.000000000000
         C            0.625540154828     1.196727101939     0.000768491520    12.000000000000
         C            0.625542154828    -1.164380898061     0.000767491520    12.000000000000
         C            1.357179154828     0.016173101939     0.007313491520    12.000000000000
         H           -1.275551845172    -2.149644898061    -0.017951508480     1.007825032230
         H           -1.275555845172     2.181987101939    -0.017950508480     1.007825032230
         H           -3.348001845172     0.016184101939     1.043078491520     1.007825032230
         H           -3.379140845172     0.901759101939    -0.486624508480     1.007825032230
         H           -3.379138845172    -0.869436898061    -0.486597508480     1.007825032230
         H            2.441274154828     0.016174101939     0.010303491520     1.007825032230

  Basis Set: AUG-CC-PVTZ
    Blend: AUG-CC-PVTZ
  Basis Set: (AUG-CC-PVTZ AUX)
    Blend: AUG-CC-PVTZ-JKFIT
	 Reference Energy          =    -467.5704576571345115 [Eh]
	 Singles Energy            =      -0.0000000000000000 [Eh]
	 Same-Spin Energy          =      -0.4443319126394594 [Eh]
	 Opposite-Spin Energy      =      -1.3540378747701687 [Eh]
	 Correlation Energy        =      -1.7983697874096281 [Eh]
	 Total Energy              =    -469.3688274445441380 [Eh]

	 ================> DF-SCS-MP2 Energies <==================
	-----------------------------------------------------------
	 SCS Same-Spin Scale       =       0.3333333333333333 [-]
	 SCS Opposite-Spin Scale   =       1.2000000000000000 [-]
	 SCS Same-Spin Energy      =      -0.1481106375464865 [Eh]
	 SCS Opposite-Spin Energy  =      -1.6248454497242024 [Eh]
	 SCS Correlation Energy    =      -1.7729560872706889 [Eh]
	 SCS Total Energy          =    -469.3434137444052112 [Eh]
	-----------------------------------------------------------

  Dipole Moment: [D]
     X:    -2.2258      Y:     0.2115      Z:     0.0376     Total:     2.2361

*** Psi4 exiting successfully. Buy a developer a beer!
