                               Psi4 1.4a3.dev225

  ==> Input File <==

--------------------------------------------------------------------------
#psi4
#
memory 32 gb

molecule  {
0 1
  F        1.4077440     2.3569060     0.0024490
  F        1.4077500    -2.3569030     0.0024500
  C       -1.3651830    -0.0000010    -0.0169560
  C       -0.6574790    -1.2079560    -0.0091570
  C       -0.6574810     1.2079540    -0.0091560
  C       -2.8713810    -0.0000030     0.0124600
  C        0.7312170     1.1805550     0.0005770
  C        0.7312190    -1.1805530     0.0005760
  C        1.4628560     0.0000010     0.0071220
  H       -1.1698750    -2.1658170    -0.0181430
  H       -1.1604455     2.1481803    -0.0179766
  H       -3.2423250     0.0000120     1.0428870
  H       -3.2734640     0.8855870    -0.4868160
  H       -3.2734620    -0.8856090    -0.4867890
  H        2.5469510     0.0000020     0.0101120
units angstrom
no_reorient  #important for SAPT in psi4, default
symmetry c1  #important for SAPT in psi4, default
}

set PROPERTIES_ORIGIN ["COM"]
properties('MP2/aug-cc-pvtz', properties = ['dipole'])
--------------------------------------------------------------------------

    Molecular point group: c1
  Charge       = 0
  Multiplicity = 1
  Basis Set: AUG-CC-PVTZ
    Blend: AUG-CC-PVTZ
  Basis Set: (AUG-CC-PVTZ AUX)
    Blend: AUG-CC-PVTZ-JKFIT

    Orbital Energies [Eh]
    ---------------------

    Doubly Occupied:

       1A    -26.317097     2A    -26.317025     3A    -11.345966
       4A    -11.345857     5A    -11.274303     6A    -11.251419
       7A    -11.246276     8A    -11.244146     9A    -11.241839
      10A     -1.630379    11A     -1.629826    12A     -1.179775
      13A     -1.070605    14A     -1.032990    15A     -0.963336
      16A     -0.863677    17A     -0.844129    18A     -0.754390
      19A     -0.740838    20A     -0.702173    21A     -0.700712
      22A     -0.694261    23A     -0.687422    24A     -0.662986
      25A     -0.603668    26A     -0.598585    27A     -0.592711
      28A     -0.557206    29A     -0.540555    30A     -0.524412
      31A     -0.502872    32A     -0.349941    33A     -0.349453

  @DF-RHF Final Energy:  -467.61192583326442

   => Energetics <=

    Nuclear Repulsion Energy =            420.6121567308392741
    One-Electron Energy =               -1475.7265054614331348
    Two-Electron Energy =                 587.5024228973295521
    Total Energy =                       -467.6119258332644222
  Basis Set: (AUG-CC-PVTZ AUX)
    Blend: AUG-CC-PVTZ-RI
    Molecular point group: c1

    Geometry (in Angstrom), charge = 0, multiplicity = 1:

       Center              X                  Y                   Z               Mass
    ------------   -----------------  -----------------  -----------------  -----------------
         F            1.311467696606     2.357044716448     0.002743600849    18.998403162730
         F            1.311473696606    -2.356764283552     0.002744600849    18.998403162730
         C           -1.461459303394     0.000137716448    -0.016661399151    12.000000000000
         C           -0.753755303394    -1.207817283552    -0.008862399151    12.000000000000
         C           -0.753757303394     1.208092716448    -0.008861399151    12.000000000000
         C           -2.967657303394     0.000135716448     0.012754600849    12.000000000000
         C            0.634940696606     1.180693716448     0.000871600849    12.000000000000
         C            0.634942696606    -1.180414283552     0.000870600849    12.000000000000
         C            1.366579696606     0.000139716448     0.007416600849    12.000000000000
         H           -1.266151303394    -2.165678283552    -0.017848399151     1.007825032230
         H           -1.256721803394     2.148319016448    -0.017681999151     1.007825032230
         H           -3.338601303394     0.000150716448     1.043181600849     1.007825032230
         H           -3.369740303394     0.885725716448    -0.486521399151     1.007825032230
         H           -3.369738303394    -0.885470283552    -0.486494399151     1.007825032230
         H            2.450674696606     0.000140716448     0.010406600849     1.007825032230

  Basis Set: AUG-CC-PVTZ
    Blend: AUG-CC-PVTZ
  Basis Set: (AUG-CC-PVTZ AUX)
    Blend: AUG-CC-PVTZ-JKFIT
	 Reference Energy          =    -467.6119258332644222 [Eh]
	 Singles Energy            =      -0.0000000000000000 [Eh]
	 Same-Spin Energy          =      -0.4450201875112580 [Eh]
	 Opposite-Spin Energy      =      -1.3526542013912903 [Eh]
	 Correlation Energy        =      -1.7976743889025484 [Eh]
	 Total Energy              =    -469.4096002221669437 [Eh]

	 ================> DF-SCS-MP2 Energies <==================
	-----------------------------------------------------------
	 SCS Same-Spin Scale       =       0.3333333333333333 [-]
	 SCS Opposite-Spin Scale   =       1.2000000000000000 [-]
	 SCS Same-Spin Energy      =      -0.1483400625037527 [Eh]
	 SCS Opposite-Spin Energy  =      -1.6231850416695484 [Eh]
	 SCS Correlation Energy    =      -1.7715251041733011 [Eh]
	 SCS Total Energy          =    -469.3834509374377149 [Eh]
	-----------------------------------------------------------

  Dipole Moment: [D]
     X:    -2.0461      Y:     0.0012      Z:     0.0335     Total:     2.0463

*** Psi4 exiting successfully. Buy a developer a beer!
