                               Psi4 1.4a3.dev225

  ==> Input File <==

--------------------------------------------------------------------------
#psi4
#
memory 32 gb

molecule  {
0 1
  F        1.4077440     2.3569060     0.0024490
  F        1.4077500    -2.3569030     0.0024500
  C       -1.3651830    -0.0000010    -0.0169560
  C       -0.6473691    -1.2252122    -0.0090456
  C       -0.6574810     1.2079540    -0.0091560
  C       -2.8713810    -0.0000030     0.0124600
  C        0.7312170     1.1805550     0.0005770
  C        0.7312190    -1.1805530     0.0005760
  C        1.4628560     0.0000010     0.0071220
  H       -1.1698750    -2.1658170    -0.0181430
  H       -1.1698790     2.1658150    -0.0181420
  H       -3.2423250     0.0000120     1.0428870
  H       -3.2734640     0.8855870    -0.4868160
  H       -3.2734620    -0.8856090    -0.4867890
  H        2.5469510     0.0000020     0.0101120
units angstrom
no_reorient  #important for SAPT in psi4, default
symmetry c1  #important for SAPT in psi4, default
}

set PROPERTIES_ORIGIN ["COM"]
properties('MP2/aug-cc-pvtz', properties = ['dipole'])
--------------------------------------------------------------------------

    Molecular point group: c1
  Charge       = 0
  Multiplicity = 1
  Basis Set: AUG-CC-PVTZ
    Blend: AUG-CC-PVTZ
  Basis Set: (AUG-CC-PVTZ AUX)
    Blend: AUG-CC-PVTZ-JKFIT

    Orbital Energies [Eh]
    ---------------------

    Doubly Occupied:

       1A    -26.317304     2A    -26.315522     3A    -11.346408
       4A    -11.344687     5A    -11.277012     6A    -11.251323
       7A    -11.246667     8A    -11.246192     9A    -11.242235
      10A     -1.630388    11A     -1.629071    12A     -1.178571
      13A     -1.069453    14A     -1.033826    15A     -0.963451
      16A     -0.862482    17A     -0.843609    18A     -0.753837
      19A     -0.740337    20A     -0.701892    21A     -0.699664
      22A     -0.693882    23A     -0.687215    24A     -0.662363
      25A     -0.602787    26A     -0.597905    27A     -0.592514
      28A     -0.558299    29A     -0.538898    30A     -0.525520
      31A     -0.502482    32A     -0.351157    33A     -0.347726

  @DF-RHF Final Energy:  -467.61137715658293

   => Energetics <=

    Nuclear Repulsion Energy =            420.3591524491306473
    One-Electron Energy =               -1475.2316979573363369
    Two-Electron Energy =                 587.2611683516229277
    Total Energy =                       -467.6113771565828756
  Basis Set: (AUG-CC-PVTZ AUX)
    Blend: AUG-CC-PVTZ-RI
    Molecular point group: c1

    Geometry (in Angstrom), charge = 0, multiplicity = 1:

       Center              X                  Y                   Z               Mass
    ------------   -----------------  -----------------  -----------------  -----------------
         F            1.310594467910     2.358523130649     0.002734462521    18.998403162730
         F            1.310600467910    -2.355285869351     0.002735462521    18.998403162730
         C           -1.462332532090     0.001616130649    -0.016670537479    12.000000000000
         C           -0.744518632090    -1.223595069351    -0.008760137479    12.000000000000
         C           -0.754630532090     1.209571130649    -0.008870537479    12.000000000000
         C           -2.968530532090     0.001614130649     0.012745462521    12.000000000000
         C            0.634067467910     1.182172130649     0.000862462521    12.000000000000
         C            0.634069467910    -1.178935869351     0.000861462521    12.000000000000
         C            1.365706467910     0.001618130649     0.007407462521    12.000000000000
         H           -1.267024532090    -2.164199869351    -0.017857537479     1.007825032230
         H           -1.267028532090     2.167432130649    -0.017856537479     1.007825032230
         H           -3.339474532090     0.001629130649     1.043172462521     1.007825032230
         H           -3.370613532090     0.887204130649    -0.486530537479     1.007825032230
         H           -3.370611532090    -0.883991869351    -0.486503537479     1.007825032230
         H            2.449801467910     0.001619130649     0.010397462521     1.007825032230

  Basis Set: AUG-CC-PVTZ
    Blend: AUG-CC-PVTZ
  Basis Set: (AUG-CC-PVTZ AUX)
    Blend: AUG-CC-PVTZ-JKFIT
	 Reference Energy          =    -467.6113771565829325 [Eh]
	 Singles Energy            =      -0.0000000000000000 [Eh]
	 Same-Spin Energy          =      -0.4449977338083131 [Eh]
	 Opposite-Spin Energy      =      -1.3527205285801538 [Eh]
	 Correlation Energy        =      -1.7977182623884669 [Eh]
	 Total Energy              =    -469.4090954189713898 [Eh]

	 ================> DF-SCS-MP2 Energies <==================
	-----------------------------------------------------------
	 SCS Same-Spin Scale       =       0.3333333333333333 [-]
	 SCS Opposite-Spin Scale   =       1.2000000000000000 [-]
	 SCS Same-Spin Energy      =      -0.1483325779361044 [Eh]
	 SCS Opposite-Spin Energy  =      -1.6232646342961845 [Eh]
	 SCS Correlation Energy    =      -1.7715972122322889 [Eh]
	 SCS Total Energy          =    -469.3829743688152121 [Eh]
	-----------------------------------------------------------

  Dipole Moment: [D]
     X:    -2.0657      Y:     0.0197      Z:     0.0340     Total:     2.0661

*** Psi4 exiting successfully. Buy a developer a beer!
