                               Psi4 1.4a3.dev225

  ==> Input File <==

--------------------------------------------------------------------------
#psi4
#
memory 32 gb

molecule  {
0 1
  F        1.4077440     2.3569060     0.0024490
  F        1.4077500    -2.3569030     0.0024500
  C       -1.3651830    -0.0000010    -0.0169560
  C       -0.6574790    -1.2079560    -0.0091570
  C       -0.6574810     1.2079540    -0.0091560
  C       -2.8713810    -0.0000030     0.0124600
  C        0.7312170     1.1805550     0.0005770
  C        0.7312190    -1.1805530     0.0005760
  C        1.4628560     0.0000010     0.0071220
  H       -1.1698750    -2.1658170    -0.0181430
  H       -1.2642139     2.3421618    -0.0197964
  H       -3.2423250     0.0000120     1.0428870
  H       -3.2734640     0.8855870    -0.4868160
  H       -3.2734620    -0.8856090    -0.4867890
  H        2.5469510     0.0000020     0.0101120
units angstrom
no_reorient  #important for SAPT in psi4, default
symmetry c1  #important for SAPT in psi4, default
}

set PROPERTIES_ORIGIN ["COM"]
properties('MP2/aug-cc-pvtz', properties = ['dipole'])
--------------------------------------------------------------------------

    Molecular point group: c1
  Charge       = 0
  Multiplicity = 1
  Basis Set: AUG-CC-PVTZ
    Blend: AUG-CC-PVTZ
  Basis Set: (AUG-CC-PVTZ AUX)
    Blend: AUG-CC-PVTZ-JKFIT

    Orbital Energies [Eh]
    ---------------------

    Doubly Occupied:

       1A    -26.317771     2A    -26.316954     3A    -11.348121
       4A    -11.346841     5A    -11.276442     6A    -11.266901
       7A    -11.253047     8A    -11.247973     9A    -11.241699
      10A     -1.630879    11A     -1.629831    12A     -1.180324
      13A     -1.070957    14A     -1.029540    15A     -0.962366
      16A     -0.859088    17A     -0.843724    18A     -0.755019
      19A     -0.741206    20A     -0.702540    21A     -0.694518
      22A     -0.691183    23A     -0.679233    24A     -0.657135
      25A     -0.601643    26A     -0.594731    27A     -0.591930
      28A     -0.548151    29A     -0.534250    30A     -0.515974
      31A     -0.504110    32A     -0.351199    33A     -0.350652

  @DF-RHF Final Energy:  -467.58936051711430

   => Energetics <=

    Nuclear Repulsion Energy =            419.5531694626581611
    One-Electron Energy =               -1473.6131937688528524
    Two-Electron Energy =                 586.4706637890803904
    Total Energy =                       -467.5893605171143008
  Basis Set: (AUG-CC-PVTZ AUX)
    Blend: AUG-CC-PVTZ-RI
    Molecular point group: c1

    Geometry (in Angstrom), charge = 0, multiplicity = 1:

       Center              X                  Y                   Z               Mass
    ------------   -----------------  -----------------  -----------------  -----------------
         F            1.312284451705     2.355517899235     0.002757924390    18.998403162730
         F            1.312290451705    -2.358291100765     0.002758924390    18.998403162730
         C           -1.460642548295    -0.001389100765    -0.016647075610    12.000000000000
         C           -0.752938548295    -1.209344100765    -0.008848075610    12.000000000000
         C           -0.752940548295     1.206565899235    -0.008847075610    12.000000000000
         C           -2.966840548295    -0.001391100765     0.012768924390    12.000000000000
         C            0.635757451705     1.179166899235     0.000885924390    12.000000000000
         C            0.635759451705    -1.181941100765     0.000884924390    12.000000000000
         C            1.367396451705    -0.001387100765     0.007430924390    12.000000000000
         H           -1.265334548295    -2.167205100765    -0.017834075610     1.007825032230
         H           -1.359673448295     2.340773699235    -0.019487475610     1.007825032230
         H           -3.337784548295    -0.001376100765     1.043195924390     1.007825032230
         H           -3.368923548295     0.884198899235    -0.486507075610     1.007825032230
         H           -3.368921548295    -0.886997100765    -0.486480075610     1.007825032230
         H            2.451491451705    -0.001386100765     0.010420924390     1.007825032230

  Basis Set: AUG-CC-PVTZ
    Blend: AUG-CC-PVTZ
  Basis Set: (AUG-CC-PVTZ AUX)
    Blend: AUG-CC-PVTZ-JKFIT
	 Reference Energy          =    -467.5893605171143008 [Eh]
	 Singles Energy            =      -0.0000000000000000 [Eh]
	 Same-Spin Energy          =      -0.4456389868271019 [Eh]
	 Opposite-Spin Energy      =      -1.3548260290594978 [Eh]
	 Correlation Energy        =      -1.8004650158865996 [Eh]
	 Total Energy              =    -469.3898255330008737 [Eh]

	 ================> DF-SCS-MP2 Energies <==================
	-----------------------------------------------------------
	 SCS Same-Spin Scale       =       0.3333333333333333 [-]
	 SCS Opposite-Spin Scale   =       1.2000000000000000 [-]
	 SCS Same-Spin Energy      =      -0.1485463289423673 [Eh]
	 SCS Opposite-Spin Energy  =      -1.6257912348713972 [Eh]
	 SCS Correlation Energy    =      -1.7743375638137644 [Eh]
	 SCS Total Energy          =    -469.3636980809280885 [Eh]
	-----------------------------------------------------------

  Dipole Moment: [D]
     X:    -2.0292      Y:    -0.0320      Z:     0.0343     Total:     2.0297

*** Psi4 exiting successfully. Buy a developer a beer!
