                               Psi4 1.4a3.dev225

  ==> Input File <==

--------------------------------------------------------------------------
#psi4
#
memory 32 gb

molecule  {
0 1
  F        1.4077440     2.3569060     0.0024490
  F        1.4077500    -2.3569030     0.0024500
  C       -1.3651830    -0.0000010    -0.0169560
  C       -0.6574790    -1.2079560    -0.0091570
  C       -0.6574810     1.2079540    -0.0091560
  C       -2.6714191    -0.0000027     0.0085548
  C        0.7312170     1.1805550     0.0005770
  C        0.7312190    -1.1805530     0.0005760
  C        1.4628560     0.0000010     0.0071220
  H       -1.1698750    -2.1658170    -0.0181430
  H       -1.1698790     2.1658150    -0.0181420
  H       -3.2423250     0.0000120     1.0428870
  H       -3.2734640     0.8855870    -0.4868160
  H       -3.2734620    -0.8856090    -0.4867890
  H        2.5469510     0.0000020     0.0101120
units angstrom
no_reorient  #important for SAPT in psi4, default
symmetry c1  #important for SAPT in psi4, default
}

set PROPERTIES_ORIGIN ["COM"]
properties('MP2/aug-cc-pvtz', properties = ['dipole'])
--------------------------------------------------------------------------

    Molecular point group: c1
  Charge       = 0
  Multiplicity = 1
  Basis Set: AUG-CC-PVTZ
    Blend: AUG-CC-PVTZ
  Basis Set: (AUG-CC-PVTZ AUX)
    Blend: AUG-CC-PVTZ-JKFIT

    Orbital Energies [Eh]
    ---------------------

    Doubly Occupied:

       1A    -26.317668     2A    -26.317667     3A    -11.346672
       4A    -11.346667     5A    -11.263086     6A    -11.252227
       7A    -11.251764     8A    -11.247049     9A    -11.246992
      10A     -1.630965    11A     -1.630417    12A     -1.192050
      13A     -1.097712    14A     -1.034177    15A     -0.963961
      16A     -0.866378    17A     -0.836948    18A     -0.756998
      19A     -0.744722    20A     -0.702847    21A     -0.699239
      22A     -0.694832    23A     -0.690098    24A     -0.671331
      25A     -0.628605    26A     -0.604125    27A     -0.582164
      28A     -0.555327    29A     -0.546800    30A     -0.495330
      31A     -0.489634    32A     -0.350736    33A     -0.341765

  @DF-RHF Final Energy:  -467.55906790315879

   => Energetics <=

    Nuclear Repulsion Energy =            424.2203593767102348
    One-Electron Energy =               -1482.7649488305298746
    Two-Electron Energy =                 590.9855215506609056
    Total Energy =                       -467.5590679031588479
  Basis Set: (AUG-CC-PVTZ AUX)
    Blend: AUG-CC-PVTZ-RI
    Molecular point group: c1

    Geometry (in Angstrom), charge = 0, multiplicity = 1:

       Center              X                  Y                   Z               Mass
    ------------   -----------------  -----------------  -----------------  -----------------
         F            1.292801925251     2.356905886625     0.003110890091    18.998403162730
         F            1.292807925251    -2.356903113375     0.003111890091    18.998403162730
         C           -1.480125074749    -0.000001113375    -0.016294109909    12.000000000000
         C           -0.772421074749    -1.207956113375    -0.008495109909    12.000000000000
         C           -0.772423074749     1.207953886625    -0.008494109909    12.000000000000
         C           -2.786361174749    -0.000002813375     0.009216690091    12.000000000000
         C            0.616274925251     1.180554886625     0.001238890091    12.000000000000
         C            0.616276925251    -1.180553113375     0.001237890091    12.000000000000
         C            1.347913925251     0.000000886625     0.007783890091    12.000000000000
         H           -1.284817074749    -2.165817113375    -0.017481109909     1.007825032230
         H           -1.284821074749     2.165814886625    -0.017480109909     1.007825032230
         H           -3.357267074749     0.000011886625     1.043548890091     1.007825032230
         H           -3.388406074749     0.885586886625    -0.486154109909     1.007825032230
         H           -3.388404074749    -0.885609113375    -0.486127109909     1.007825032230
         H            2.432008925251     0.000001886625     0.010773890091     1.007825032230

  Basis Set: AUG-CC-PVTZ
    Blend: AUG-CC-PVTZ
  Basis Set: (AUG-CC-PVTZ AUX)
    Blend: AUG-CC-PVTZ-JKFIT
	 Reference Energy          =    -467.5590679031587911 [Eh]
	 Singles Energy            =      -0.0000000000000000 [Eh]
	 Same-Spin Energy          =      -0.4486188502582775 [Eh]
	 Opposite-Spin Energy      =      -1.3574846472962367 [Eh]
	 Correlation Energy        =      -1.8061034975545143 [Eh]
	 Total Energy              =    -469.3651714007132796 [Eh]

	 ================> DF-SCS-MP2 Energies <==================
	-----------------------------------------------------------
	 SCS Same-Spin Scale       =       0.3333333333333333 [-]
	 SCS Opposite-Spin Scale   =       1.2000000000000000 [-]
	 SCS Same-Spin Energy      =      -0.1495396167527592 [Eh]
	 SCS Opposite-Spin Energy  =      -1.6289815767554841 [Eh]
	 SCS Correlation Energy    =      -1.7785211935082432 [Eh]
	 SCS Total Energy          =    -469.3375890966670454 [Eh]
	-----------------------------------------------------------

  Dipole Moment: [D]
     X:    -2.0423      Y:     0.0000      Z:     0.0463     Total:     2.0428

*** Psi4 exiting successfully. Buy a developer a beer!
