                               Psi4 1.4a3.dev225

  ==> Input File <==

--------------------------------------------------------------------------
#psi4
#
memory 32 gb

molecule  {
0 1
  F        1.4077440     2.3569060     0.0024490
  F        1.4077500    -2.3569030     0.0024500
  C       -1.3651830    -0.0000010    -0.0169560
  C       -0.6574790    -1.2079560    -0.0091570
  C       -0.6574810     1.2079540    -0.0091560
  C       -2.8713810    -0.0000030     0.0124600
  C        0.7312170     1.1805550     0.0005770
  C        0.7312190    -1.1805530     0.0005760
  C        1.4101785     0.0850001     0.0066508
  H       -1.1698750    -2.1658170    -0.0181430
  H       -1.1698790     2.1658150    -0.0181420
  H       -3.2423250     0.0000120     1.0428870
  H       -3.2734640     0.8855870    -0.4868160
  H       -3.2734620    -0.8856090    -0.4867890
  H        2.5469510     0.0000020     0.0101120
units angstrom
no_reorient  #important for SAPT in psi4, default
symmetry c1  #important for SAPT in psi4, default
}

set PROPERTIES_ORIGIN ["COM"]
properties('MP2/aug-cc-pvtz', properties = ['dipole'])
--------------------------------------------------------------------------

    Molecular point group: c1
  Charge       = 0
  Multiplicity = 1
  Basis Set: AUG-CC-PVTZ
    Blend: AUG-CC-PVTZ
  Basis Set: (AUG-CC-PVTZ AUX)
    Blend: AUG-CC-PVTZ-JKFIT

    Orbital Energies [Eh]
    ---------------------

    Doubly Occupied:

       1A    -26.323983     2A    -26.312357     3A    -11.351842
       4A    -11.331250     5A    -11.272764     6A    -11.249791
       7A    -11.247283     8A    -11.245387     9A    -11.241142
      10A     -1.634495    11A     -1.627006    12A     -1.186058
      13A     -1.076385    14A     -1.033222    15A     -0.962258
      16A     -0.867211    17A     -0.841229    18A     -0.756263
      19A     -0.743664    20A     -0.704512    21A     -0.695400
      22A     -0.694759    23A     -0.687378    24A     -0.661605
      25A     -0.609285    26A     -0.592583    27A     -0.584465
      28A     -0.557824    29A     -0.539929    30A     -0.516068
      31A     -0.507986    32A     -0.362428    33A     -0.342324

  @DF-RHF Final Energy:  -467.59741884198718

   => Energetics <=

    Nuclear Repulsion Energy =            421.5292989066322207
    One-Electron Energy =               -1477.5331648456924540
    Two-Electron Energy =                 588.4064470970730554
    Total Energy =                       -467.5974188419871780
  Basis Set: (AUG-CC-PVTZ AUX)
    Blend: AUG-CC-PVTZ-RI
    Molecular point group: c1

    Geometry (in Angstrom), charge = 0, multiplicity = 1:

       Center              X                  Y                   Z               Mass
    ------------   -----------------  -----------------  -----------------  -----------------
         F            1.316478775122     2.348939972255     0.002789062607    18.998403162730
         F            1.316484775122    -2.364869027745     0.002790062607    18.998403162730
         C           -1.456448224878    -0.007967027745    -0.016615937393    12.000000000000
         C           -0.748744224878    -1.215922027745    -0.008816937393    12.000000000000
         C           -0.748746224878     1.199987972255    -0.008815937393    12.000000000000
         C           -2.962646224878    -0.007969027745     0.012800062607    12.000000000000
         C            0.639951775122     1.172588972255     0.000917062607    12.000000000000
         C            0.639953775122    -1.188519027745     0.000916062607    12.000000000000
         C            1.318913275122     0.077034072255     0.006990862607    12.000000000000
         H           -1.261140224878    -2.173783027745    -0.017802937393     1.007825032230
         H           -1.261144224878     2.157848972255    -0.017801937393     1.007825032230
         H           -3.333590224878    -0.007954027745     1.043227062607     1.007825032230
         H           -3.364729224878     0.877620972255    -0.486475937393     1.007825032230
         H           -3.364727224878    -0.893575027745    -0.486448937393     1.007825032230
         H            2.455685775122    -0.007964027745     0.010452062607     1.007825032230

  Basis Set: AUG-CC-PVTZ
    Blend: AUG-CC-PVTZ
  Basis Set: (AUG-CC-PVTZ AUX)
    Blend: AUG-CC-PVTZ-JKFIT
	 Reference Energy          =    -467.5974188419871780 [Eh]
	 Singles Energy            =      -0.0000000000000000 [Eh]
	 Same-Spin Energy          =      -0.4451384106475835 [Eh]
	 Opposite-Spin Energy      =      -1.3531748721091523 [Eh]
	 Correlation Energy        =      -1.7983132827567359 [Eh]
	 Total Energy              =    -469.3957321247439154 [Eh]

	 ================> DF-SCS-MP2 Energies <==================
	-----------------------------------------------------------
	 SCS Same-Spin Scale       =       0.3333333333333333 [-]
	 SCS Opposite-Spin Scale   =       1.2000000000000000 [-]
	 SCS Same-Spin Energy      =      -0.1483794702158611 [Eh]
	 SCS Opposite-Spin Energy  =      -1.6238098465309827 [Eh]
	 SCS Correlation Energy    =      -1.7721893167468439 [Eh]
	 SCS Total Energy          =    -469.3696081587340245 [Eh]
	-----------------------------------------------------------

  Dipole Moment: [D]
     X:    -2.0228      Y:    -0.1585      Z:     0.0339     Total:     2.0292

*** Psi4 exiting successfully. Buy a developer a beer!
