                               Psi4 1.4a3.dev225

  ==> Input File <==

--------------------------------------------------------------------------
#psi4
#
memory 32 gb

molecule  {
0 1
  F        1.4077440     2.3569060     0.0024490
  F        1.4077500    -2.3569030     0.0024500
  C       -1.3651830    -0.0000010    -0.0169560
  C       -0.6574790    -1.2079560    -0.0091570
  C       -0.6574810     1.2079540    -0.0091560
  C       -2.8713810    -0.0000030     0.0124600
  C        0.7312170     1.1805550     0.0005770
  C        0.7312190    -1.1805530     0.0005760
  C        1.4628560     0.0000010     0.0071220
  H       -1.1698750    -2.1658170    -0.0181430
  H       -1.1698790     2.1658150    -0.0181420
  H       -3.1745827     0.0000093     0.8547090
  H       -3.2734640     0.8855870    -0.4868160
  H       -3.2734620    -0.8856090    -0.4867890
  H        2.5469510     0.0000020     0.0101120
units angstrom
no_reorient  #important for SAPT in psi4, default
symmetry c1  #important for SAPT in psi4, default
}

set PROPERTIES_ORIGIN ["COM"]
properties('MP2/aug-cc-pvtz', properties = ['dipole'])
--------------------------------------------------------------------------

    Molecular point group: c1
  Charge       = 0
  Multiplicity = 1
  Basis Set: AUG-CC-PVTZ
    Blend: AUG-CC-PVTZ
  Basis Set: (AUG-CC-PVTZ AUX)
    Blend: AUG-CC-PVTZ-JKFIT

    Orbital Energies [Eh]
    ---------------------

    Doubly Occupied:

       1A    -26.316855     2A    -26.316855     3A    -11.345745
       4A    -11.345740     5A    -11.273458     6A    -11.251253
       7A    -11.246028     8A    -11.245990     9A    -11.217592
      10A     -1.630175    11A     -1.629628    12A     -1.179955
      13A     -1.076785    14A     -1.032155    15A     -0.980196
      16A     -0.862693    17A     -0.849303    18A     -0.757384
      19A     -0.740501    20A     -0.702018    21A     -0.698378
      22A     -0.694060    23A     -0.686819    24A     -0.663151
      25A     -0.630960    26A     -0.602496    27A     -0.596088
      28A     -0.555582    29A     -0.539219    30A     -0.524663
      31A     -0.506092    32A     -0.351236    33A     -0.349225

  @DF-RHF Final Energy:  -467.57811859920582

   => Energetics <=

    Nuclear Repulsion Energy =            421.5010899633472832
    One-Electron Energy =               -1477.3618619713095086
    Two-Electron Energy =                 588.2826534087563459
    Total Energy =                       -467.5781185992058226
  Basis Set: (AUG-CC-PVTZ AUX)
    Blend: AUG-CC-PVTZ-RI
    Molecular point group: c1

    Geometry (in Angstrom), charge = 0, multiplicity = 1:

       Center              X                  Y                   Z               Mass
    ------------   -----------------  -----------------  -----------------  -----------------
         F            1.311008751400     2.356905935992     0.004226040901    18.998403162730
         F            1.311014751400    -2.356903064008     0.004227040901    18.998403162730
         C           -1.461918248600    -0.000001064008    -0.015178959099    12.000000000000
         C           -0.754214248600    -1.207956064008    -0.007379959099    12.000000000000
         C           -0.754216248600     1.207953935992    -0.007378959099    12.000000000000
         C           -2.968116248600    -0.000003064008     0.014237040901    12.000000000000
         C            0.634481751400     1.180554935992     0.002354040901    12.000000000000
         C            0.634483751400    -1.180553064008     0.002353040901    12.000000000000
         C            1.366120751400     0.000000935992     0.008899040901    12.000000000000
         H           -1.266610248600    -2.165817064008    -0.016365959099     1.007825032230
         H           -1.266614248600     2.165814935992    -0.016364959099     1.007825032230
         H           -3.271317948600     0.000009235992     0.856486040901     1.007825032230
         H           -3.370199248600     0.885586935992    -0.485038959099     1.007825032230
         H           -3.370197248600    -0.885609064008    -0.485011959099     1.007825032230
         H            2.450215751400     0.000001935992     0.011889040901     1.007825032230

  Basis Set: AUG-CC-PVTZ
    Blend: AUG-CC-PVTZ
  Basis Set: (AUG-CC-PVTZ AUX)
    Blend: AUG-CC-PVTZ-JKFIT
	 Reference Energy          =    -467.5781185992058226 [Eh]
	 Singles Energy            =      -0.0000000000000000 [Eh]
	 Same-Spin Energy          =      -0.4451744338580638 [Eh]
	 Opposite-Spin Energy      =      -1.3521761282043057 [Eh]
	 Correlation Energy        =      -1.7973505620623693 [Eh]
	 Total Energy              =    -469.3754691612681995 [Eh]

	 ================> DF-SCS-MP2 Energies <==================
	-----------------------------------------------------------
	 SCS Same-Spin Scale       =       0.3333333333333333 [-]
	 SCS Opposite-Spin Scale   =       1.2000000000000000 [-]
	 SCS Same-Spin Energy      =      -0.1483914779526879 [Eh]
	 SCS Opposite-Spin Energy  =      -1.6226113538451667 [Eh]
	 SCS Correlation Energy    =      -1.7710028317978546 [Eh]
	 SCS Total Energy          =    -469.3491214310036526 [Eh]
	-----------------------------------------------------------

  Dipole Moment: [D]
     X:    -2.0847      Y:     0.0000      Z:     0.0654     Total:     2.0857

*** Psi4 exiting successfully. Buy a developer a beer!
