                               Psi4 1.4a3.dev225

  ==> Input File <==

--------------------------------------------------------------------------
#psi4
#
memory 32 gb

molecule  {
0 1
  F        1.4077440     2.3569060     0.0024490
  F        1.4077500    -2.3569030     0.0024500
  C       -1.3651830    -0.0000010    -0.0169560
  C       -0.6827537    -1.1648154    -0.0094355
  C       -0.6574810     1.2079540    -0.0091560
  C       -2.8713810    -0.0000030     0.0124600
  C        0.7312170     1.1805550     0.0005770
  C        0.7312190    -1.1805530     0.0005760
  C        1.4628560     0.0000010     0.0071220
  H       -1.1698750    -2.1658170    -0.0181430
  H       -1.1698790     2.1658150    -0.0181420
  H       -3.2423250     0.0000120     1.0428870
  H       -3.2734640     0.8855870    -0.4868160
  H       -3.2734620    -0.8856090    -0.4867890
  H        2.5469510     0.0000020     0.0101120
units angstrom
no_reorient  #important for SAPT in psi4, default
symmetry c1  #important for SAPT in psi4, default
}

set PROPERTIES_ORIGIN ["COM"]
properties('MP2/aug-cc-pvtz', properties = ['dipole'])
--------------------------------------------------------------------------

    Molecular point group: c1
  Charge       = 0
  Multiplicity = 1
  Basis Set: AUG-CC-PVTZ
    Blend: AUG-CC-PVTZ
  Basis Set: (AUG-CC-PVTZ AUX)
    Blend: AUG-CC-PVTZ-JKFIT

    Orbital Energies [Eh]
    ---------------------

    Doubly Occupied:

       1A    -26.320810     2A    -26.316521     3A    -11.349289
       4A    -11.345079     5A    -11.267473     6A    -11.252108
       7A    -11.246798     8A    -11.245746     9A    -11.240790
      10A     -1.632538    11A     -1.629563    12A     -1.183165
      13A     -1.073873    14A     -1.029048    15A     -0.962623
      16A     -0.865399    17A     -0.844063    18A     -0.756142
      19A     -0.741990    20A     -0.703177    21A     -0.696526
      22A     -0.694971    23A     -0.686367    24A     -0.662981
      25A     -0.604161    26A     -0.599590    27A     -0.593243
      28A     -0.551832    29A     -0.544011    30A     -0.517486
      31A     -0.504300    32A     -0.356175    33A     -0.345742

  @DF-RHF Final Energy:  -467.60825996789805

   => Energetics <=

    Nuclear Repulsion Energy =            420.9004096165327837
    One-Electron Energy =               -1476.2901764569489842
    Two-Electron Energy =                 587.7815068725180936
    Total Energy =                       -467.6082599678979932
  Basis Set: (AUG-CC-PVTZ AUX)
    Blend: AUG-CC-PVTZ-RI
    Molecular point group: c1

    Geometry (in Angstrom), charge = 0, multiplicity = 1:

       Center              X                  Y                   Z               Mass
    ------------   -----------------  -----------------  -----------------  -----------------
         F            1.313910640534     2.352862865598     0.002771003155    18.998403162730
         F            1.313916640534    -2.360946134402     0.002772003155    18.998403162730
         C           -1.459016359466    -0.004044134402    -0.016633996845    12.000000000000
         C           -0.776587059466    -1.168858534402    -0.009113496845    12.000000000000
         C           -0.751314359466     1.203910865598    -0.008833996845    12.000000000000
         C           -2.965214359466    -0.004046134402     0.012782003155    12.000000000000
         C            0.637383640534     1.176511865598     0.000899003155    12.000000000000
         C            0.637385640534    -1.184596134402     0.000898003155    12.000000000000
         C            1.369022640534    -0.004042134402     0.007444003155    12.000000000000
         H           -1.263708359466    -2.169860134402    -0.017820996845     1.007825032230
         H           -1.263712359466     2.161771865598    -0.017819996845     1.007825032230
         H           -3.336158359466    -0.004031134402     1.043209003155     1.007825032230
         H           -3.367297359466     0.881543865598    -0.486493996845     1.007825032230
         H           -3.367295359466    -0.889652134402    -0.486466996845     1.007825032230
         H            2.453117640534    -0.004041134402     0.010434003155     1.007825032230

  Basis Set: AUG-CC-PVTZ
    Blend: AUG-CC-PVTZ
  Basis Set: (AUG-CC-PVTZ AUX)
    Blend: AUG-CC-PVTZ-JKFIT
	 Reference Energy          =    -467.6082599678980500 [Eh]
	 Singles Energy            =      -0.0000000000000000 [Eh]
	 Same-Spin Energy          =      -0.4451886442237187 [Eh]
	 Opposite-Spin Energy      =      -1.3530985092498560 [Eh]
	 Correlation Energy        =      -1.7982871534735747 [Eh]
	 Total Energy              =    -469.4065471213716023 [Eh]

	 ================> DF-SCS-MP2 Energies <==================
	-----------------------------------------------------------
	 SCS Same-Spin Scale       =       0.3333333333333333 [-]
	 SCS Opposite-Spin Scale   =       1.2000000000000000 [-]
	 SCS Same-Spin Energy      =      -0.1483962147412395 [Eh]
	 SCS Opposite-Spin Energy  =      -1.6237182110998272 [Eh]
	 SCS Correlation Energy    =      -1.7721144258410668 [Eh]
	 SCS Total Energy          =    -469.3803743937390891 [Eh]
	-----------------------------------------------------------

  Dipole Moment: [D]
     X:    -1.9933      Y:    -0.0458      Z:     0.0325     Total:     1.9941

*** Psi4 exiting successfully. Buy a developer a beer!
