                               Psi4 1.4a3.dev225

  ==> Input File <==

--------------------------------------------------------------------------
#psi4
#
memory 32 gb

molecule  {
0 1
  F        1.4077440     2.3569060     0.0024490
  F        1.4077500    -2.3569030     0.0024500
  C       -1.3651830    -0.0000010    -0.0169560
  C       -0.6574790    -1.2079560    -0.0091570
  C       -0.6574810     1.2079540    -0.0091560
  C       -2.9713619    -0.0000031     0.0144126
  C        0.7312170     1.1805550     0.0005770
  C        0.7312190    -1.1805530     0.0005760
  C        1.4628560     0.0000010     0.0071220
  H       -1.1698750    -2.1658170    -0.0181430
  H       -1.1698790     2.1658150    -0.0181420
  H       -3.2423250     0.0000120     1.0428870
  H       -3.2734640     0.8855870    -0.4868160
  H       -3.2734620    -0.8856090    -0.4867890
  H        2.5469510     0.0000020     0.0101120
units angstrom
no_reorient  #important for SAPT in psi4, default
symmetry c1  #important for SAPT in psi4, default
}

set PROPERTIES_ORIGIN ["COM"]
properties('MP2/aug-cc-pvtz', properties = ['dipole'])
--------------------------------------------------------------------------

    Molecular point group: c1
  Charge       = 0
  Multiplicity = 1
  Basis Set: AUG-CC-PVTZ
    Blend: AUG-CC-PVTZ
  Basis Set: (AUG-CC-PVTZ AUX)
    Blend: AUG-CC-PVTZ-JKFIT

    Orbital Energies [Eh]
    ---------------------

    Doubly Occupied:

       1A    -26.316691     2A    -26.316691     3A    -11.345589
       4A    -11.345584     5A    -11.277480     6A    -11.251179
       7A    -11.246244     8A    -11.246209     9A    -11.240808
      10A     -1.630015    11A     -1.629468    12A     -1.176760
      13A     -1.061562    14A     -1.031732    15A     -0.964796
      16A     -0.861745    17A     -0.845661    18A     -0.752947
      19A     -0.739438    20A     -0.701796    21A     -0.698052
      22A     -0.693921    23A     -0.686066    24A     -0.660642
      25A     -0.606370    26A     -0.604636    27A     -0.586727
      28A     -0.565008    29A     -0.548075    30A     -0.506430
      31A     -0.501719    32A     -0.351559    33A     -0.348940

  @DF-RHF Final Energy:  -467.60468033642815

   => Energetics <=

    Nuclear Repulsion Energy =            418.8541093227406691
    One-Electron Energy =               -1472.2364989673651507
    Two-Electron Energy =                 585.7777093081963358
    Total Energy =                       -467.6046803364281459
  Basis Set: (AUG-CC-PVTZ AUX)
    Blend: AUG-CC-PVTZ-RI
    Molecular point group: c1

    Geometry (in Angstrom), charge = 0, multiplicity = 1:

       Center              X                  Y                   Z               Mass
    ------------   -----------------  -----------------  -----------------  -----------------
         F            1.320911953400     2.356905924112     0.002561909008    18.998403162730
         F            1.320917953400    -2.356903075888     0.002562909008    18.998403162730
         C           -1.452015046600    -0.000001075888    -0.016843090992    12.000000000000
         C           -0.744311046600    -1.207956075888    -0.009044090992    12.000000000000
         C           -0.744313046600     1.207953924112    -0.009043090992    12.000000000000
         C           -3.058193946600    -0.000003175888     0.014525509008    12.000000000000
         C            0.644384953400     1.180554924112     0.000689909008    12.000000000000
         C            0.644386953400    -1.180553075888     0.000688909008    12.000000000000
         C            1.376023953400     0.000000924112     0.007234909008    12.000000000000
         H           -1.256707046600    -2.165817075888    -0.018030090992     1.007825032230
         H           -1.256711046600     2.165814924112    -0.018029090992     1.007825032230
         H           -3.329157046600     0.000011924112     1.042999909008     1.007825032230
         H           -3.360296046600     0.885586924112    -0.486703090992     1.007825032230
         H           -3.360294046600    -0.885609075888    -0.486676090992     1.007825032230
         H            2.460118953400     0.000001924112     0.010224909008     1.007825032230

  Basis Set: AUG-CC-PVTZ
    Blend: AUG-CC-PVTZ
  Basis Set: (AUG-CC-PVTZ AUX)
    Blend: AUG-CC-PVTZ-JKFIT
	 Reference Energy          =    -467.6046803364281459 [Eh]
	 Singles Energy            =      -0.0000000000000000 [Eh]
	 Same-Spin Energy          =      -0.4445902722080808 [Eh]
	 Opposite-Spin Energy      =      -1.3526343819423539 [Eh]
	 Correlation Energy        =      -1.7972246541504346 [Eh]
	 Total Energy              =    -469.4019049905786005 [Eh]

	 ================> DF-SCS-MP2 Energies <==================
	-----------------------------------------------------------
	 SCS Same-Spin Scale       =       0.3333333333333333 [-]
	 SCS Opposite-Spin Scale   =       1.2000000000000000 [-]
	 SCS Same-Spin Energy      =      -0.1481967574026936 [Eh]
	 SCS Opposite-Spin Energy  =      -1.6231612583308246 [Eh]
	 SCS Correlation Energy    =      -1.7713580157335183 [Eh]
	 SCS Total Energy          =    -469.3760383521616859 [Eh]
	-----------------------------------------------------------

  Dipole Moment: [D]
     X:    -2.0317      Y:     0.0000      Z:     0.0303     Total:     2.0319

*** Psi4 exiting successfully. Buy a developer a beer!
