                               Psi4 1.4a3.dev225

  ==> Input File <==

--------------------------------------------------------------------------
#psi4
#
memory 32 gb

molecule  {
0 1
  F        1.3871113     2.3685338     0.0023044
  F        1.4077500    -2.3569030     0.0024500
  C       -1.3651830    -0.0000010    -0.0169560
  C       -0.6574790    -1.2079560    -0.0091570
  C       -0.6574810     1.2079540    -0.0091560
  C       -2.8713810    -0.0000030     0.0124600
  C        0.7312170     1.1805550     0.0005770
  C        0.7312190    -1.1805530     0.0005760
  C        1.4628560     0.0000010     0.0071220
  H       -1.1698750    -2.1658170    -0.0181430
  H       -1.1698790     2.1658150    -0.0181420
  H       -3.2423250     0.0000120     1.0428870
  H       -3.2734640     0.8855870    -0.4868160
  H       -3.2734620    -0.8856090    -0.4867890
  H        2.5469510     0.0000020     0.0101120
units angstrom
no_reorient  #important for SAPT in psi4, default
symmetry c1  #important for SAPT in psi4, default
}

set PROPERTIES_ORIGIN ["COM"]
properties('MP2/aug-cc-pvtz', properties = ['dipole'])
--------------------------------------------------------------------------

    Molecular point group: c1
  Charge       = 0
  Multiplicity = 1
  Basis Set: AUG-CC-PVTZ
    Blend: AUG-CC-PVTZ
  Basis Set: (AUG-CC-PVTZ AUX)
    Blend: AUG-CC-PVTZ-JKFIT

    Orbital Energies [Eh]
    ---------------------

    Doubly Occupied:

       1A    -26.317236     2A    -26.317069     3A    -11.346236
       4A    -11.346017     5A    -11.274210     6A    -11.252115
       7A    -11.246395     8A    -11.245843     9A    -11.241680
      10A     -1.630461    11A     -1.629904    12A     -1.179732
      13A     -1.070624    14A     -1.032419    15A     -0.963135
      16A     -0.862793    17A     -0.844321    18A     -0.754288
      19A     -0.740964    20A     -0.702245    21A     -0.698620
      22A     -0.694365    23A     -0.687095    24A     -0.662518
      25A     -0.603142    26A     -0.598415    27A     -0.592561
      28A     -0.556680    29A     -0.540025    30A     -0.523782
      31A     -0.502986    32A     -0.350217    33A     -0.349312

  @DF-RHF Final Energy:  -467.61171801545601

   => Energetics <=

    Nuclear Repulsion Energy =            420.5076762799803873
    One-Electron Energy =               -1475.5239741761622554
    Two-Electron Energy =                 587.4045798807258052
    Total Energy =                       -467.6117180154560629
  Basis Set: (AUG-CC-PVTZ AUX)
    Blend: AUG-CC-PVTZ-RI
    Molecular point group: c1

    Geometry (in Angstrom), charge = 0, multiplicity = 1:

       Center              X                  Y                   Z               Mass
    ------------   -----------------  -----------------  -----------------  -----------------
         F            1.293970609628     2.366808448017     0.002621757627    18.998403162730
         F            1.314609309628    -2.358628351983     0.002767357627    18.998403162730
         C           -1.458323690372    -0.001726351983    -0.016638642373    12.000000000000
         C           -0.750619690372    -1.209681351983    -0.008839642373    12.000000000000
         C           -0.750621690372     1.206228648017    -0.008838642373    12.000000000000
         C           -2.964521690372    -0.001728351983     0.012777357627    12.000000000000
         C            0.638076309628     1.178829648017     0.000894357627    12.000000000000
         C            0.638078309628    -1.182278351983     0.000893357627    12.000000000000
         C            1.369715309628    -0.001724351983     0.007439357627    12.000000000000
         H           -1.263015690372    -2.167542351983    -0.017825642373     1.007825032230
         H           -1.263019690372     2.164089648017    -0.017824642373     1.007825032230
         H           -3.335465690372    -0.001713351983     1.043204357627     1.007825032230
         H           -3.366604690372     0.883861648017    -0.486498642373     1.007825032230
         H           -3.366602690372    -0.887334351983    -0.486471642373     1.007825032230
         H            2.453810309628    -0.001723351983     0.010429357627     1.007825032230

  Basis Set: AUG-CC-PVTZ
    Blend: AUG-CC-PVTZ
  Basis Set: (AUG-CC-PVTZ AUX)
    Blend: AUG-CC-PVTZ-JKFIT
	 Reference Energy          =    -467.6117180154560060 [Eh]
	 Singles Energy            =      -0.0000000000000000 [Eh]
	 Same-Spin Energy          =      -0.4450640262228174 [Eh]
	 Opposite-Spin Energy      =      -1.3527815671397598 [Eh]
	 Correlation Energy        =      -1.7978455933625772 [Eh]
	 Total Energy              =    -469.4095636088185870 [Eh]

	 ================> DF-SCS-MP2 Energies <==================
	-----------------------------------------------------------
	 SCS Same-Spin Scale       =       0.3333333333333333 [-]
	 SCS Opposite-Spin Scale   =       1.2000000000000000 [-]
	 SCS Same-Spin Energy      =      -0.1483546754076058 [Eh]
	 SCS Opposite-Spin Energy  =      -1.6233378805677117 [Eh]
	 SCS Correlation Energy    =      -1.7716925559753174 [Eh]
	 SCS Total Energy          =    -469.3834105714313409 [Eh]
	-----------------------------------------------------------

  Dipole Moment: [D]
     X:    -2.0242      Y:    -0.0099      Z:     0.0338     Total:     2.0245

*** Psi4 exiting successfully. Buy a developer a beer!
