                               Psi4 1.4a3.dev225

  ==> Input File <==

--------------------------------------------------------------------------
#psi4
#
memory 32 gb

molecule  {
0 1
  F        1.4077440     2.3569060     0.0024490
  F        1.4077500    -2.3569030     0.0024500
  C       -1.4477122     0.0523110    -0.0182176
  C       -0.6574790    -1.2079560    -0.0091570
  C       -0.6574810     1.2079540    -0.0091560
  C       -2.8713810    -0.0000030     0.0124600
  C        0.7312170     1.1805550     0.0005770
  C        0.7312190    -1.1805530     0.0005760
  C        1.4628560     0.0000010     0.0071220
  H       -1.1698750    -2.1658170    -0.0181430
  H       -1.1698790     2.1658150    -0.0181420
  H       -3.2423250     0.0000120     1.0428870
  H       -3.2734640     0.8855870    -0.4868160
  H       -3.2734620    -0.8856090    -0.4867890
  H        2.5469510     0.0000020     0.0101120
units angstrom
no_reorient  #important for SAPT in psi4, default
symmetry c1  #important for SAPT in psi4, default
}

set PROPERTIES_ORIGIN ["COM"]
properties('MP2/aug-cc-pvtz', properties = ['dipole'])
--------------------------------------------------------------------------

    Molecular point group: c1
  Charge       = 0
  Multiplicity = 1
  Basis Set: AUG-CC-PVTZ
    Blend: AUG-CC-PVTZ
  Basis Set: (AUG-CC-PVTZ AUX)
    Blend: AUG-CC-PVTZ-JKFIT

    Orbital Energies [Eh]
    ---------------------

    Doubly Occupied:

       1A    -26.317704     2A    -26.315595     3A    -11.346695
       4A    -11.343921     5A    -11.281263     6A    -11.251941
       7A    -11.251472     8A    -11.247605     9A    -11.240565
      10A     -1.630451    11A     -1.628491    12A     -1.173436
      13A     -1.081690    14A     -1.027483    15A     -0.969356
      16A     -0.860406    17A     -0.839526    18A     -0.755770
      19A     -0.737163    20A     -0.701666    21A     -0.694469
      22A     -0.693727    23A     -0.687866    24A     -0.664112
      25A     -0.607631    26A     -0.604632    27A     -0.602100
      28A     -0.556954    29A     -0.545051    30A     -0.514565
      31A     -0.497263    32A     -0.351668    33A     -0.338580

  @DF-RHF Final Energy:  -467.59796963581846

   => Energetics <=

    Nuclear Repulsion Energy =            419.6307605556224871
    One-Electron Energy =               -1473.7358304122408299
    Two-Electron Energy =                 586.5071002207997708
    Total Energy =                       -467.5979696358184583
  Basis Set: (AUG-CC-PVTZ AUX)
    Blend: AUG-CC-PVTZ-RI
    Molecular point group: c1

    Geometry (in Angstrom), charge = 0, multiplicity = 1:

       Center              X                  Y                   Z               Mass
    ------------   -----------------  -----------------  -----------------  -----------------
         F            1.319276415630     2.352003340675     0.002863137284    18.998403162730
         F            1.319282415630    -2.361805659325     0.002864137284    18.998403162730
         C           -1.536179784370     0.047408340675    -0.017803462716    12.000000000000
         C           -0.745946584370    -1.212858659325    -0.008742862716    12.000000000000
         C           -0.745948584370     1.203051340675    -0.008741862716    12.000000000000
         C           -2.959848584370    -0.004905659325     0.012874137284    12.000000000000
         C            0.642749415630     1.175652340675     0.000991137284    12.000000000000
         C            0.642751415630    -1.185455659325     0.000990137284    12.000000000000
         C            1.374388415630    -0.004901659325     0.007536137284    12.000000000000
         H           -1.258342584370    -2.170719659325    -0.017728862716     1.007825032230
         H           -1.258346584370     2.160912340675    -0.017727862716     1.007825032230
         H           -3.330792584370    -0.004890659325     1.043301137284     1.007825032230
         H           -3.361931584370     0.880684340675    -0.486401862716     1.007825032230
         H           -3.361929584370    -0.890511659325    -0.486374862716     1.007825032230
         H            2.458483415630    -0.004900659325     0.010526137284     1.007825032230

  Basis Set: AUG-CC-PVTZ
    Blend: AUG-CC-PVTZ
  Basis Set: (AUG-CC-PVTZ AUX)
    Blend: AUG-CC-PVTZ-JKFIT
	 Reference Energy          =    -467.5979696358184583 [Eh]
	 Singles Energy            =      -0.0000000000000000 [Eh]
	 Same-Spin Energy          =      -0.4460616861614867 [Eh]
	 Opposite-Spin Energy      =      -1.3546417465009910 [Eh]
	 Correlation Energy        =      -1.8007034326624778 [Eh]
	 Total Energy              =    -469.3986730684809459 [Eh]

	 ================> DF-SCS-MP2 Energies <==================
	-----------------------------------------------------------
	 SCS Same-Spin Scale       =       0.3333333333333333 [-]
	 SCS Opposite-Spin Scale   =       1.2000000000000000 [-]
	 SCS Same-Spin Energy      =      -0.1486872287204956 [Eh]
	 SCS Opposite-Spin Energy  =      -1.6255700958011892 [Eh]
	 SCS Correlation Energy    =      -1.7742573245216846 [Eh]
	 SCS Total Energy          =    -469.3722269603401287 [Eh]
	-----------------------------------------------------------

  Dipole Moment: [D]
     X:    -2.2064      Y:     0.0380      Z:     0.0438     Total:     2.2072

*** Psi4 exiting successfully. Buy a developer a beer!
