                               Psi4 1.4a3.dev225

  ==> Input File <==

--------------------------------------------------------------------------
#psi4
#
memory 32 gb

molecule  {
0 1
  F        1.4077440     2.3569060     0.0024490
  F        1.4077500    -2.3569030     0.0024500
  C       -1.3651830    -0.0000010    -0.0169560
  C       -0.6574790    -1.2079560    -0.0091570
  C       -0.6574810     1.2079540    -0.0091560
  C       -2.8713810    -0.0000030     0.0124600
  C        0.7312170     1.1805550     0.0005770
  C        0.7312190    -1.1805530     0.0005760
  C        1.4891948    -0.0424986     0.0073576
  H       -1.1698750    -2.1658170    -0.0181430
  H       -1.1698790     2.1658150    -0.0181420
  H       -3.2423250     0.0000120     1.0428870
  H       -3.2734640     0.8855870    -0.4868160
  H       -3.2734620    -0.8856090    -0.4867890
  H        2.5469510     0.0000020     0.0101120
units angstrom
no_reorient  #important for SAPT in psi4, default
symmetry c1  #important for SAPT in psi4, default
}

set PROPERTIES_ORIGIN ["COM"]
properties('MP2/aug-cc-pvtz', properties = ['dipole'])
--------------------------------------------------------------------------

    Molecular point group: c1
  Charge       = 0
  Multiplicity = 1
  Basis Set: AUG-CC-PVTZ
    Blend: AUG-CC-PVTZ
  Basis Set: (AUG-CC-PVTZ AUX)
    Blend: AUG-CC-PVTZ-JKFIT

    Orbital Energies [Eh]
    ---------------------

    Doubly Occupied:

       1A    -26.319061     2A    -26.313425     3A    -11.351966
       4A    -11.343176     5A    -11.275375     6A    -11.252094
       7A    -11.246858     8A    -11.246056     9A    -11.242192
      10A     -1.631420    11A     -1.627901    12A     -1.177458
      13A     -1.069759    14A     -1.031240    15A     -0.964113
      16A     -0.861193    17A     -0.844512    18A     -0.753425
      19A     -0.739570    20A     -0.703388    21A     -0.701538
      22A     -0.693505    23A     -0.684719    24A     -0.662885
      25A     -0.606608    26A     -0.597894    27A     -0.593006
      28A     -0.554034    29A     -0.540440    30A     -0.525631
      31A     -0.501039    32A     -0.353697    33A     -0.344565

  @DF-RHF Final Energy:  -467.60855472785477

   => Energetics <=

    Nuclear Repulsion Energy =            420.0582646597453618
    One-Electron Energy =               -1474.6261518988701482
    Two-Electron Energy =                 586.9593325112699631
    Total Energy =                       -467.6085547278547665
  Basis Set: (AUG-CC-PVTZ AUX)
    Blend: AUG-CC-PVTZ-RI
    Molecular point group: c1

    Geometry (in Angstrom), charge = 0, multiplicity = 1:

       Center              X                  Y                   Z               Mass
    ------------   -----------------  -----------------  -----------------  -----------------
         F            1.309073528465     2.360888890669     0.002722822750    18.998403162730
         F            1.309079528465    -2.352920109331     0.002723822750    18.998403162730
         C           -1.463853471535     0.003981890669    -0.016682177250    12.000000000000
         C           -0.756149471535    -1.203973109331    -0.008883177250    12.000000000000
         C           -0.756151471535     1.211936890669    -0.008882177250    12.000000000000
         C           -2.970051471535     0.003979890669     0.012733822750    12.000000000000
         C            0.632546528465     1.184537890669     0.000850822750    12.000000000000
         C            0.632548528465    -1.176570109331     0.000849822750    12.000000000000
         C            1.390524328465    -0.038515709331     0.007631422750    12.000000000000
         H           -1.268545471535    -2.161834109331    -0.017869177250     1.007825032230
         H           -1.268549471535     2.169797890669    -0.017868177250     1.007825032230
         H           -3.340995471535     0.003994890669     1.043160822750     1.007825032230
         H           -3.372134471535     0.889569890669    -0.486542177250     1.007825032230
         H           -3.372132471535    -0.881626109331    -0.486515177250     1.007825032230
         H            2.448280528465     0.003984890669     0.010385822750     1.007825032230

  Basis Set: AUG-CC-PVTZ
    Blend: AUG-CC-PVTZ
  Basis Set: (AUG-CC-PVTZ AUX)
    Blend: AUG-CC-PVTZ-JKFIT
	 Reference Energy          =    -467.6085547278547665 [Eh]
	 Singles Energy            =      -0.0000000000000000 [Eh]
	 Same-Spin Energy          =      -0.4449378565519141 [Eh]
	 Opposite-Spin Energy      =      -1.3529691632499095 [Eh]
	 Correlation Energy        =      -1.7979070198018237 [Eh]
	 Total Energy              =    -469.4064617476565786 [Eh]

	 ================> DF-SCS-MP2 Energies <==================
	-----------------------------------------------------------
	 SCS Same-Spin Scale       =       0.3333333333333333 [-]
	 SCS Opposite-Spin Scale   =       1.2000000000000000 [-]
	 SCS Same-Spin Energy      =      -0.1483126188506380 [Eh]
	 SCS Opposite-Spin Energy  =      -1.6235629958998914 [Eh]
	 SCS Correlation Energy    =      -1.7718756147505295 [Eh]
	 SCS Total Energy          =    -469.3804303426052797 [Eh]
	-----------------------------------------------------------

  Dipole Moment: [D]
     X:    -2.0608      Y:     0.0699      Z:     0.0334     Total:     2.0623

*** Psi4 exiting successfully. Buy a developer a beer!
