                               Psi4 1.4a3.dev225

  ==> Input File <==

--------------------------------------------------------------------------
#psi4
#
memory 32 gb

molecule  {
0 1
  F        1.4077440     2.3569060     0.0024490
  F        1.4077500    -2.3569030     0.0024500
  C       -1.3651830    -0.0000010    -0.0169560
  C       -0.6322043    -1.2510966    -0.0088785
  C       -0.6574810     1.2079540    -0.0091560
  C       -2.8713810    -0.0000030     0.0124600
  C        0.7312170     1.1805550     0.0005770
  C        0.7312190    -1.1805530     0.0005760
  C        1.4628560     0.0000010     0.0071220
  H       -1.1698750    -2.1658170    -0.0181430
  H       -1.1698790     2.1658150    -0.0181420
  H       -3.2423250     0.0000120     1.0428870
  H       -3.2734640     0.8855870    -0.4868160
  H       -3.2734620    -0.8856090    -0.4867890
  H        2.5469510     0.0000020     0.0101120
units angstrom
no_reorient  #important for SAPT in psi4, default
symmetry c1  #important for SAPT in psi4, default
}

set PROPERTIES_ORIGIN ["COM"]
properties('MP2/aug-cc-pvtz', properties = ['dipole'])
--------------------------------------------------------------------------

    Molecular point group: c1
  Charge       = 0
  Multiplicity = 1
  Basis Set: AUG-CC-PVTZ
    Blend: AUG-CC-PVTZ
  Basis Set: (AUG-CC-PVTZ AUX)
    Blend: AUG-CC-PVTZ-JKFIT

    Orbital Energies [Eh]
    ---------------------

    Doubly Occupied:

       1A    -26.317674     2A    -26.313167     3A    -11.347021
       4A    -11.342708     5A    -11.280598     6A    -11.251007
       7A    -11.247055     8A    -11.245848     9A    -11.242850
      10A     -1.630698    11A     -1.627648    12A     -1.176967
      13A     -1.067956    14A     -1.035818    15A     -0.963908
      16A     -0.862153    17A     -0.842500    18A     -0.753068
      19A     -0.739659    20A     -0.701942    21A     -0.701508
      22A     -0.693197    23A     -0.687043    24A     -0.661963
      25A     -0.602257    26A     -0.597267    27A     -0.592319
      28A     -0.561774    29A     -0.537782    30A     -0.525308
      31A     -0.501827    32A     -0.353573    33A     -0.344606

  @DF-RHF Final Energy:  -467.60897187440560

   => Energetics <=

    Nuclear Repulsion Energy =            420.1503789219577243
    One-Electron Energy =               -1474.8173677125778340
    Two-Electron Energy =                 587.0580169162144557
    Total Energy =                       -467.6089718744055972
  Basis Set: (AUG-CC-PVTZ AUX)
    Blend: AUG-CC-PVTZ-RI
    Molecular point group: c1

    Geometry (in Angstrom), charge = 0, multiplicity = 1:

       Center              X                  Y                   Z               Mass
    ------------   -----------------  -----------------  -----------------  -----------------
         F            1.309173253749     2.360948963883     0.002718802250    18.998403162730
         F            1.309179253749    -2.352860036117     0.002719802250    18.998403162730
         C           -1.463753746251     0.004041963883    -0.016686197750    12.000000000000
         C           -0.730775046251    -1.247053636117    -0.008608697750    12.000000000000
         C           -0.756051746251     1.211996963883    -0.008886197750    12.000000000000
         C           -2.969951746251     0.004039963883     0.012729802250    12.000000000000
         C            0.632646253749     1.184597963883     0.000846802250    12.000000000000
         C            0.632648253749    -1.176510036117     0.000845802250    12.000000000000
         C            1.364285253749     0.004043963883     0.007391802250    12.000000000000
         H           -1.268445746251    -2.161774036117    -0.017873197750     1.007825032230
         H           -1.268449746251     2.169857963883    -0.017872197750     1.007825032230
         H           -3.340895746251     0.004054963883     1.043156802250     1.007825032230
         H           -3.372034746251     0.889629963883    -0.486546197750     1.007825032230
         H           -3.372032746251    -0.881566036117    -0.486519197750     1.007825032230
         H            2.448380253749     0.004044963883     0.010381802250     1.007825032230

  Basis Set: AUG-CC-PVTZ
    Blend: AUG-CC-PVTZ
  Basis Set: (AUG-CC-PVTZ AUX)
    Blend: AUG-CC-PVTZ-JKFIT
	 Reference Energy          =    -467.6089718744055972 [Eh]
	 Singles Energy            =      -0.0000000000000000 [Eh]
	 Same-Spin Energy          =      -0.4448825700438898 [Eh]
	 Opposite-Spin Energy      =      -1.3527095344230715 [Eh]
	 Correlation Energy        =      -1.7975921044669614 [Eh]
	 Total Energy              =    -469.4065639788725548 [Eh]

	 ================> DF-SCS-MP2 Energies <==================
	-----------------------------------------------------------
	 SCS Same-Spin Scale       =       0.3333333333333333 [-]
	 SCS Opposite-Spin Scale   =       1.2000000000000000 [-]
	 SCS Same-Spin Energy      =      -0.1482941900146299 [Eh]
	 SCS Opposite-Spin Energy  =      -1.6232514413076857 [Eh]
	 SCS Correlation Energy    =      -1.7715456313223157 [Eh]
	 SCS Total Energy          =    -469.3805175057279371 [Eh]
	-----------------------------------------------------------

  Dipole Moment: [D]
     X:    -2.0952      Y:     0.0504      Z:     0.0347     Total:     2.0961

*** Psi4 exiting successfully. Buy a developer a beer!
