                               Psi4 1.4a3.dev225

  ==> Input File <==

--------------------------------------------------------------------------
#psi4
#
memory 32 gb

molecule  {
0 1
  F        1.4077440     2.3569060     0.0024490
  F        1.4077500    -2.3569030     0.0024500
  C       -1.3651830    -0.0000010    -0.0169560
  C       -0.6574790    -1.2079560    -0.0091570
  C       -0.6574810     1.2079540    -0.0091560
  C       -2.8713810    -0.0000030     0.0124600
  C        0.7312170     1.1805550     0.0005770
  C        0.7312190    -1.1805530     0.0005760
  C        1.4628560     0.0000010     0.0071220
  H       -1.1698750    -2.1658170    -0.0181430
  H       -1.1698790     2.1658150    -0.0181420
  H       -3.2423250     0.0000120     1.0428870
  H       -3.2550748     0.8450847    -0.4639817
  H       -3.2734620    -0.8856090    -0.4867890
  H        2.5469510     0.0000020     0.0101120
units angstrom
no_reorient  #important for SAPT in psi4, default
symmetry c1  #important for SAPT in psi4, default
}

set PROPERTIES_ORIGIN ["COM"]
properties('MP2/aug-cc-pvtz', properties = ['dipole'])
--------------------------------------------------------------------------

    Molecular point group: c1
  Charge       = 0
  Multiplicity = 1
  Basis Set: AUG-CC-PVTZ
    Blend: AUG-CC-PVTZ
  Basis Set: (AUG-CC-PVTZ AUX)
    Blend: AUG-CC-PVTZ-JKFIT

    Orbital Energies [Eh]
    ---------------------

    Doubly Occupied:

       1A    -26.317001     2A    -26.316917     3A    -11.345945
       4A    -11.345828     5A    -11.274061     6A    -11.251391
       7A    -11.246345     8A    -11.246061     9A    -11.235769
      10A     -1.630278    11A     -1.629724    12A     -1.179677
      13A     -1.071533    14A     -1.032332    15A     -0.966493
      16A     -0.862921    17A     -0.845121    18A     -0.754933
      19A     -0.740852    20A     -0.702071    21A     -0.698336
      22A     -0.694163    23A     -0.687365    24A     -0.662612
      25A     -0.605883    26A     -0.598309    27A     -0.594437
      28A     -0.557943    29A     -0.543053    30A     -0.524037
      31A     -0.503059    32A     -0.349955    33A     -0.349382

  @DF-RHF Final Energy:  -467.61085434401417

   => Energetics <=

    Nuclear Repulsion Energy =            420.7266182074282597
    One-Electron Energy =               -1475.9473680378200697
    Two-Electron Energy =                 587.6098954863778090
    Total Energy =                       -467.6108543440141148
  Basis Set: (AUG-CC-PVTZ AUX)
    Blend: AUG-CC-PVTZ-RI
    Molecular point group: c1

    Geometry (in Angstrom), charge = 0, multiplicity = 1:

       Center              X                  Y                   Z               Mass
    ------------   -----------------  -----------------  -----------------  -----------------
         F            1.311397206807     2.357224706011     0.002565175242    18.998403162730
         F            1.311403206807    -2.356584293989     0.002566175242    18.998403162730
         C           -1.461529793193     0.000317706011    -0.016839824758    12.000000000000
         C           -0.753825793193    -1.207637293989    -0.009040824758    12.000000000000
         C           -0.753827793193     1.208272706011    -0.009039824758    12.000000000000
         C           -2.967727793193     0.000315706011     0.012576175242    12.000000000000
         C            0.634870206807     1.180873706011     0.000693175242    12.000000000000
         C            0.634872206807    -1.180234293989     0.000692175242    12.000000000000
         C            1.366509206807     0.000319706011     0.007238175242    12.000000000000
         H           -1.266221793193    -2.165498293989    -0.018026824758     1.007825032230
         H           -1.266225793193     2.166133706011    -0.018025824758     1.007825032230
         H           -3.338671793193     0.000330706011     1.043003175242     1.007825032230
         H           -3.351421593193     0.845403406011    -0.463865524758     1.007825032230
         H           -3.369808793193    -0.885290293989    -0.486672824758     1.007825032230
         H            2.450604206807     0.000320706011     0.010228175242     1.007825032230

  Basis Set: AUG-CC-PVTZ
    Blend: AUG-CC-PVTZ
  Basis Set: (AUG-CC-PVTZ AUX)
    Blend: AUG-CC-PVTZ-JKFIT
	 Reference Energy          =    -467.6108543440141716 [Eh]
	 Singles Energy            =      -0.0000000000000000 [Eh]
	 Same-Spin Energy          =      -0.4450592880696850 [Eh]
	 Opposite-Spin Energy      =      -1.3524851140605256 [Eh]
	 Correlation Energy        =      -1.7975444021302107 [Eh]
	 Total Energy              =    -469.4083987461443712 [Eh]

	 ================> DF-SCS-MP2 Energies <==================
	-----------------------------------------------------------
	 SCS Same-Spin Scale       =       0.3333333333333333 [-]
	 SCS Opposite-Spin Scale   =       1.2000000000000000 [-]
	 SCS Same-Spin Energy      =      -0.1483530960232283 [Eh]
	 SCS Opposite-Spin Energy  =      -1.6229821368726307 [Eh]
	 SCS Correlation Energy    =      -1.7713352328958591 [Eh]
	 SCS Total Energy          =    -469.3821895769100365 [Eh]
	-----------------------------------------------------------

  Dipole Moment: [D]
     X:    -2.0634      Y:     0.0140      Z:     0.0266     Total:     2.0636

*** Psi4 exiting successfully. Buy a developer a beer!
