                               Psi4 1.4a3.dev225

  ==> Input File <==

--------------------------------------------------------------------------
#psi4
#
memory 32 gb

molecule  {
0 1
  F        1.4077440     2.3569060     0.0024490
  F        1.4077500    -2.3569030     0.0024500
  C       -1.3651830    -0.0000010    -0.0169560
  C       -0.6574790    -1.2079560    -0.0091570
  C       -0.6574810     1.2079540    -0.0091560
  C       -2.8713810    -0.0000030     0.0124600
  C        0.7312170     1.1805550     0.0005770
  C        0.7312190    -1.1805530     0.0005760
  C        1.4628560     0.0000010     0.0071220
  H       -1.1698750    -2.1658170    -0.0181430
  H       -1.1698790     2.1658150    -0.0181420
  H       -3.2423250     0.0000120     1.0428870
  H       -3.2918532     0.9260893    -0.5096503
  H       -3.2734620    -0.8856090    -0.4867890
  H        2.5469510     0.0000020     0.0101120
units angstrom
no_reorient  #important for SAPT in psi4, default
symmetry c1  #important for SAPT in psi4, default
}

set PROPERTIES_ORIGIN ["COM"]
properties('MP2/aug-cc-pvtz', properties = ['dipole'])
--------------------------------------------------------------------------

    Molecular point group: c1
  Charge       = 0
  Multiplicity = 1
  Basis Set: AUG-CC-PVTZ
    Blend: AUG-CC-PVTZ
  Basis Set: (AUG-CC-PVTZ AUX)
    Blend: AUG-CC-PVTZ-JKFIT

    Orbital Energies [Eh]
    ---------------------

    Doubly Occupied:

       1A    -26.317243     2A    -26.317153     3A    -11.346225
       4A    -11.346101     5A    -11.274890     6A    -11.251725
       7A    -11.247717     8A    -11.246794     9A    -11.246491
      10A     -1.630508    11A     -1.629953    12A     -1.179880
      13A     -1.069909    14A     -1.032644    15A     -0.960430
      16A     -0.863113    17A     -0.843178    18A     -0.754042
      19A     -0.740820    20A     -0.702304    21A     -0.698609
      22A     -0.694394    23A     -0.687033    24A     -0.662632
      25A     -0.602051    26A     -0.598592    27A     -0.590377
      28A     -0.554782    29A     -0.536227    30A     -0.524281
      31A     -0.502738    32A     -0.350144    33A     -0.349662

  @DF-RHF Final Energy:  -467.60963801996115

   => Energetics <=

    Nuclear Repulsion Energy =            420.2977870990007432
    One-Electron Energy =               -1475.1095679709101205
    Two-Electron Energy =                 587.2021428519482242
    Total Energy =                       -467.6096380199611531
  Basis Set: (AUG-CC-PVTZ AUX)
    Blend: AUG-CC-PVTZ-RI
    Molecular point group: c1

    Geometry (in Angstrom), charge = 0, multiplicity = 1:

       Center              X                  Y                   Z               Mass
    ------------   -----------------  -----------------  -----------------  -----------------
         F            1.311686687475     2.356587123470     0.002924630163    18.998403162730
         F            1.311692687475    -2.357221876530     0.002925630163    18.998403162730
         C           -1.461240312525    -0.000319876530    -0.016480369837    12.000000000000
         C           -0.753536312525    -1.208274876530    -0.008681369837    12.000000000000
         C           -0.753538312525     1.207635123470    -0.008680369837    12.000000000000
         C           -2.967438312525    -0.000321876530     0.012935630163    12.000000000000
         C            0.635159687475     1.180236123470     0.001052630163    12.000000000000
         C            0.635161687475    -1.180871876530     0.001051630163    12.000000000000
         C            1.366798687475    -0.000317876530     0.007597630163    12.000000000000
         H           -1.265932312525    -2.166135876530    -0.017667369837     1.007825032230
         H           -1.265936312525     2.165496123470    -0.017666369837     1.007825032230
         H           -3.338382312525    -0.000306876530     1.043362630163     1.007825032230
         H           -3.387910512525     0.925770423470    -0.509174669837     1.007825032230
         H           -3.369519312525    -0.885927876530    -0.486313369837     1.007825032230
         H            2.450893687475    -0.000316876530     0.010587630163     1.007825032230

  Basis Set: AUG-CC-PVTZ
    Blend: AUG-CC-PVTZ
  Basis Set: (AUG-CC-PVTZ AUX)
    Blend: AUG-CC-PVTZ-JKFIT
	 Reference Energy          =    -467.6096380199611531 [Eh]
	 Singles Energy            =      -0.0000000000000000 [Eh]
	 Same-Spin Energy          =      -0.4450787533227659 [Eh]
	 Opposite-Spin Energy      =      -1.3531363870978810 [Eh]
	 Correlation Energy        =      -1.7982151404206470 [Eh]
	 Total Energy              =    -469.4078531603818192 [Eh]

	 ================> DF-SCS-MP2 Energies <==================
	-----------------------------------------------------------
	 SCS Same-Spin Scale       =       0.3333333333333333 [-]
	 SCS Opposite-Spin Scale   =       1.2000000000000000 [-]
	 SCS Same-Spin Energy      =      -0.1483595844409220 [Eh]
	 SCS Opposite-Spin Energy  =      -1.6237636645174571 [Eh]
	 SCS Correlation Energy    =      -1.7721232489583791 [Eh]
	 SCS Total Energy          =    -469.3817612689195471 [Eh]
	-----------------------------------------------------------

  Dipole Moment: [D]
     X:    -2.0248      Y:    -0.0163      Z:     0.0420     Total:     2.0253

*** Psi4 exiting successfully. Buy a developer a beer!
