                               Psi4 1.4a3.dev225

  ==> Input File <==

--------------------------------------------------------------------------
#psi4
#
memory 32 gb

molecule  {
0 1
  F        1.4077440     2.3569060     0.0024490
  F        1.4077500    -2.3569030     0.0024500
  C       -1.3651830    -0.0000010    -0.0169560
  C       -0.6574790    -1.2079560    -0.0091570
  C       -0.6574810     1.2079540    -0.0091560
  C       -2.9213715    -0.0000031     0.0134363
  C        0.7312170     1.1805550     0.0005770
  C        0.7312190    -1.1805530     0.0005760
  C        1.4628560     0.0000010     0.0071220
  H       -1.1698750    -2.1658170    -0.0181430
  H       -1.1698790     2.1658150    -0.0181420
  H       -3.2423250     0.0000120     1.0428870
  H       -3.2734640     0.8855870    -0.4868160
  H       -3.2734620    -0.8856090    -0.4867890
  H        2.5469510     0.0000020     0.0101120
units angstrom
no_reorient  #important for SAPT in psi4, default
symmetry c1  #important for SAPT in psi4, default
}

set PROPERTIES_ORIGIN ["COM"]
properties('MP2/aug-cc-pvtz', properties = ['dipole'])
--------------------------------------------------------------------------

    Molecular point group: c1
  Charge       = 0
  Multiplicity = 1
  Basis Set: AUG-CC-PVTZ
    Blend: AUG-CC-PVTZ
  Basis Set: (AUG-CC-PVTZ AUX)
    Blend: AUG-CC-PVTZ-JKFIT

    Orbital Energies [Eh]
    ---------------------

    Doubly Occupied:

       1A    -26.316890     2A    -26.316889     3A    -11.345814
       4A    -11.345809     5A    -11.276170     6A    -11.251369
       7A    -11.246336     8A    -11.246300     9A    -11.240904
      10A     -1.630207    11A     -1.629659    12A     -1.178118
      13A     -1.065734    14A     -1.032103    15A     -0.963853
      16A     -0.862353    17A     -0.844994    18A     -0.753666
      19A     -0.740102    20A     -0.701995    21A     -0.698264
      22A     -0.694104    23A     -0.686592    24A     -0.661513
      25A     -0.604326    26A     -0.598777    27A     -0.591510
      28A     -0.559604    29A     -0.545896    30A     -0.513926
      31A     -0.504892    32A     -0.350940    33A     -0.349236

  @DF-RHF Final Energy:  -467.61024233550745

   => Energetics <=

    Nuclear Repulsion Energy =            419.6672184756266120
    One-Electron Energy =               -1473.8572301321016766
    Two-Electron Energy =                 586.5797693209675572
    Total Energy =                       -467.6102423355074507
  Basis Set: (AUG-CC-PVTZ AUX)
    Blend: AUG-CC-PVTZ-RI
    Molecular point group: c1

    Geometry (in Angstrom), charge = 0, multiplicity = 1:

       Center              X                  Y                   Z               Mass
    ------------   -----------------  -----------------  -----------------  -----------------
         F            1.316226954957     2.356905924112     0.002653405855    18.998403162730
         F            1.316232954957    -2.356903075888     0.002654405855    18.998403162730
         C           -1.456700045043    -0.000001075888    -0.016751594145    12.000000000000
         C           -0.748996045043    -1.207956075888    -0.008952594145    12.000000000000
         C           -0.748998045043     1.207953924112    -0.008951594145    12.000000000000
         C           -3.012888545043    -0.000003175888     0.013640705855    12.000000000000
         C            0.639699954957     1.180554924112     0.000781405855    12.000000000000
         C            0.639701954957    -1.180553075888     0.000780405855    12.000000000000
         C            1.371338954957     0.000000924112     0.007326405855    12.000000000000
         H           -1.261392045043    -2.165817075888    -0.017938594145     1.007825032230
         H           -1.261396045043     2.165814924112    -0.017937594145     1.007825032230
         H           -3.333842045043     0.000011924112     1.043091405855     1.007825032230
         H           -3.364981045043     0.885586924112    -0.486611594145     1.007825032230
         H           -3.364979045043    -0.885609075888    -0.486584594145     1.007825032230
         H            2.455433954957     0.000001924112     0.010316405855     1.007825032230

  Basis Set: AUG-CC-PVTZ
    Blend: AUG-CC-PVTZ
  Basis Set: (AUG-CC-PVTZ AUX)
    Blend: AUG-CC-PVTZ-JKFIT
	 Reference Energy          =    -467.6102423355074507 [Eh]
	 Singles Energy            =      -0.0000000000000000 [Eh]
	 Same-Spin Energy          =      -0.4447350249708349 [Eh]
	 Opposite-Spin Energy      =      -1.3525478666713449 [Eh]
	 Correlation Energy        =      -1.7972828916421797 [Eh]
	 Total Energy              =    -469.4075252271496197 [Eh]

	 ================> DF-SCS-MP2 Energies <==================
	-----------------------------------------------------------
	 SCS Same-Spin Scale       =       0.3333333333333333 [-]
	 SCS Opposite-Spin Scale   =       1.2000000000000000 [-]
	 SCS Same-Spin Energy      =      -0.1482450083236116 [Eh]
	 SCS Opposite-Spin Energy  =      -1.6230574400056137 [Eh]
	 SCS Correlation Energy    =      -1.7713024483292252 [Eh]
	 SCS Total Energy          =    -469.3815447838366595 [Eh]
	-----------------------------------------------------------

  Dipole Moment: [D]
     X:    -2.0398      Y:     0.0000      Z:     0.0318     Total:     2.0401

*** Psi4 exiting successfully. Buy a developer a beer!
