                               Psi4 1.4a3.dev225

  ==> Input File <==

--------------------------------------------------------------------------
#psi4
#
memory 32 gb

molecule  {
0 1
  F        1.4077440     2.3569060     0.0024490
  F        1.4881575    -2.3068454     0.0031304
  C       -1.3651830    -0.0000010    -0.0169560
  C       -0.6574790    -1.2079560    -0.0091570
  C       -0.6574810     1.2079540    -0.0091560
  C       -2.8713810    -0.0000030     0.0124600
  C        0.7312170     1.1805550     0.0005770
  C        0.7312190    -1.1805530     0.0005760
  C        1.4628560     0.0000010     0.0071220
  H       -1.1698750    -2.1658170    -0.0181430
  H       -1.1698790     2.1658150    -0.0181420
  H       -3.2423250     0.0000120     1.0428870
  H       -3.2734640     0.8855870    -0.4868160
  H       -3.2734620    -0.8856090    -0.4867890
  H        2.5469510     0.0000020     0.0101120
units angstrom
no_reorient  #important for SAPT in psi4, default
symmetry c1  #important for SAPT in psi4, default
}

set PROPERTIES_ORIGIN ["COM"]
properties('MP2/aug-cc-pvtz', properties = ['dipole'])
--------------------------------------------------------------------------

    Molecular point group: c1
  Charge       = 0
  Multiplicity = 1
  Basis Set: AUG-CC-PVTZ
    Blend: AUG-CC-PVTZ
  Basis Set: (AUG-CC-PVTZ AUX)
    Blend: AUG-CC-PVTZ-JKFIT

    Orbital Energies [Eh]
    ---------------------

    Doubly Occupied:

       1A    -26.316934     2A    -26.316323     3A    -11.345980
       4A    -11.344998     5A    -11.275295     6A    -11.249219
       7A    -11.248609     8A    -11.246393     9A    -11.242324
      10A     -1.630332    11A     -1.629347    12A     -1.179756
      13A     -1.070356    14A     -1.032643    15A     -0.963314
      16A     -0.863840    17A     -0.843080    18A     -0.754957
      19A     -0.740229    20A     -0.701949    21A     -0.698015
      22A     -0.693869    23A     -0.687373    24A     -0.662437
      25A     -0.602999    26A     -0.598108    27A     -0.593078
      28A     -0.553910    29A     -0.540952    30A     -0.525813
      31A     -0.502766    32A     -0.350405    33A     -0.349052

  @DF-RHF Final Energy:  -467.61062746855697

   => Energetics <=

    Nuclear Repulsion Energy =            420.5652769503195145
    One-Electron Energy =               -1475.6425002781199964
    Two-Electron Energy =                 587.4665958592435118
    Total Energy =                       -467.6106274685570270
  Basis Set: (AUG-CC-PVTZ AUX)
    Blend: AUG-CC-PVTZ-RI
    Molecular point group: c1

    Geometry (in Angstrom), charge = 0, multiplicity = 1:

       Center              X                  Y                   Z               Mass
    ------------   -----------------  -----------------  -----------------  -----------------
         F            1.299611540350     2.349478653217     0.002643948827    18.998403162730
         F            1.380025040350    -2.314272746783     0.003325348827    18.998403162730
         C           -1.473315459650    -0.007428346783    -0.016761051173    12.000000000000
         C           -0.765611459650    -1.215383346783    -0.008962051173    12.000000000000
         C           -0.765613459650     1.200526653217    -0.008961051173    12.000000000000
         C           -2.979513459650    -0.007430346783     0.012654948827    12.000000000000
         C            0.623084540350     1.173127653217     0.000771948827    12.000000000000
         C            0.623086540350    -1.187980346783     0.000770948827    12.000000000000
         C            1.354723540350    -0.007426346783     0.007316948827    12.000000000000
         H           -1.278007459650    -2.173244346783    -0.017948051173     1.007825032230
         H           -1.278011459650     2.158387653217    -0.017947051173     1.007825032230
         H           -3.350457459650    -0.007415346783     1.043081948827     1.007825032230
         H           -3.381596459650     0.878159653217    -0.486621051173     1.007825032230
         H           -3.381594459650    -0.893036346783    -0.486594051173     1.007825032230
         H            2.438818540350    -0.007425346783     0.010306948827     1.007825032230

  Basis Set: AUG-CC-PVTZ
    Blend: AUG-CC-PVTZ
  Basis Set: (AUG-CC-PVTZ AUX)
    Blend: AUG-CC-PVTZ-JKFIT
	 Reference Energy          =    -467.6106274685569701 [Eh]
	 Singles Energy            =      -0.0000000000000000 [Eh]
	 Same-Spin Energy          =      -0.4451183600134217 [Eh]
	 Opposite-Spin Energy      =      -1.3528740216678001 [Eh]
	 Correlation Energy        =      -1.7979923816812218 [Eh]
	 Total Energy              =    -469.4086198502382103 [Eh]

	 ================> DF-SCS-MP2 Energies <==================
	-----------------------------------------------------------
	 SCS Same-Spin Scale       =       0.3333333333333333 [-]
	 SCS Opposite-Spin Scale   =       1.2000000000000000 [-]
	 SCS Same-Spin Energy      =      -0.1483727866711406 [Eh]
	 SCS Opposite-Spin Energy  =      -1.6234488260013602 [Eh]
	 SCS Correlation Energy    =      -1.7718216126725008 [Eh]
	 SCS Total Energy          =    -469.3824490812294812 [Eh]
	-----------------------------------------------------------

  Dipole Moment: [D]
     X:    -2.1262      Y:    -0.0467      Z:     0.0327     Total:     2.1269

*** Psi4 exiting successfully. Buy a developer a beer!
