                               Psi4 1.4a3.dev225

  ==> Input File <==

--------------------------------------------------------------------------
#psi4
#
memory 32 gb

molecule  {
0 1
  F        1.4077440     2.3569060     0.0024490
  F        1.4077500    -2.3569030     0.0024500
  C       -1.3861545     0.0125348    -0.0172752
  C       -0.6574790    -1.2079560    -0.0091570
  C       -0.6574810     1.2079540    -0.0091560
  C       -2.8713810    -0.0000030     0.0124600
  C        0.7312170     1.1805550     0.0005770
  C        0.7312190    -1.1805530     0.0005760
  C        1.4628560     0.0000010     0.0071220
  H       -1.1698750    -2.1658170    -0.0181430
  H       -1.1698790     2.1658150    -0.0181420
  H       -3.2423250     0.0000120     1.0428870
  H       -3.2734640     0.8855870    -0.4868160
  H       -3.2734620    -0.8856090    -0.4867890
  H        2.5469510     0.0000020     0.0101120
units angstrom
no_reorient  #important for SAPT in psi4, default
symmetry c1  #important for SAPT in psi4, default
}

set PROPERTIES_ORIGIN ["COM"]
properties('MP2/aug-cc-pvtz', properties = ['dipole'])
--------------------------------------------------------------------------

    Molecular point group: c1
  Charge       = 0
  Multiplicity = 1
  Basis Set: AUG-CC-PVTZ
    Blend: AUG-CC-PVTZ
  Basis Set: (AUG-CC-PVTZ AUX)
    Blend: AUG-CC-PVTZ-JKFIT

    Orbital Energies [Eh]
    ---------------------

    Doubly Occupied:

       1A    -26.317242     2A    -26.316726     3A    -11.346178
       4A    -11.345510     5A    -11.276160     6A    -11.251548
       7A    -11.247944     8A    -11.246635     9A    -11.241514
      10A     -1.630323    11A     -1.629607    12A     -1.177896
      13A     -1.072897    14A     -1.031101    15A     -0.964958
      16A     -0.862063    17A     -0.843221    18A     -0.754697
      19A     -0.739994    20A     -0.702041    21A     -0.697385
      22A     -0.694174    23A     -0.687389    24A     -0.662870
      25A     -0.603321    26A     -0.600258    27A     -0.594843
      28A     -0.556068    29A     -0.536708    30A     -0.528276
      31A     -0.501429    32A     -0.350173    33A     -0.346975

  @DF-RHF Final Energy:  -467.61050328029370

   => Energetics <=

    Nuclear Repulsion Energy =            420.2713415530888028
    One-Electron Energy =               -1475.0474414044847435
    Two-Electron Energy =                 587.1655965711021281
    Total Energy =                       -467.6105032802937558
  Basis Set: (AUG-CC-PVTZ AUX)
    Blend: AUG-CC-PVTZ-RI
    Molecular point group: c1

    Geometry (in Angstrom), charge = 0, multiplicity = 1:

       Center              X                  Y                   Z               Mass
    ------------   -----------------  -----------------  -----------------  -----------------
         F            1.313507353396     2.355731085103     0.002774817476    18.998403162730
         F            1.313513353396    -2.358077914897     0.002775817476    18.998403162730
         C           -1.480391146604     0.011359885103    -0.016949382524    12.000000000000
         C           -0.751715646604    -1.209130914897    -0.008831182524    12.000000000000
         C           -0.751717646604     1.206779085103    -0.008830182524    12.000000000000
         C           -2.965617646604    -0.001177914897     0.012785817476    12.000000000000
         C            0.636980353396     1.179380085103     0.000902817476    12.000000000000
         C            0.636982353396    -1.181727914897     0.000901817476    12.000000000000
         C            1.368619353396    -0.001173914897     0.007447817476    12.000000000000
         H           -1.264111646604    -2.166991914897    -0.017817182524     1.007825032230
         H           -1.264115646604     2.164640085103    -0.017816182524     1.007825032230
         H           -3.336561646604    -0.001162914897     1.043212817476     1.007825032230
         H           -3.367700646604     0.884412085103    -0.486490182524     1.007825032230
         H           -3.367698646604    -0.886783914897    -0.486463182524     1.007825032230
         H            2.452714353396    -0.001172914897     0.010437817476     1.007825032230

  Basis Set: AUG-CC-PVTZ
    Blend: AUG-CC-PVTZ
  Basis Set: (AUG-CC-PVTZ AUX)
    Blend: AUG-CC-PVTZ-JKFIT
	 Reference Energy          =    -467.6105032802936989 [Eh]
	 Singles Energy            =      -0.0000000000000000 [Eh]
	 Same-Spin Energy          =      -0.4452633811531033 [Eh]
	 Opposite-Spin Energy      =      -1.3531050261893185 [Eh]
	 Correlation Energy        =      -1.7983684073424218 [Eh]
	 Total Energy              =    -469.4088716876361218 [Eh]

	 ================> DF-SCS-MP2 Energies <==================
	-----------------------------------------------------------
	 SCS Same-Spin Scale       =       0.3333333333333333 [-]
	 SCS Opposite-Spin Scale   =       1.2000000000000000 [-]
	 SCS Same-Spin Energy      =      -0.1484211270510344 [Eh]
	 SCS Opposite-Spin Energy  =      -1.6237260314271822 [Eh]
	 SCS Correlation Energy    =      -1.7721471584782167 [Eh]
	 SCS Total Energy          =    -469.3826504387719183 [Eh]
	-----------------------------------------------------------

  Dipole Moment: [D]
     X:    -2.0837      Y:     0.0094      Z:     0.0360     Total:     2.0840

*** Psi4 exiting successfully. Buy a developer a beer!
