                               Psi4 1.4a3.dev225

  ==> Input File <==

--------------------------------------------------------------------------
#psi4
#
memory 32 gb

molecule  {
0 1
  F        1.4077440     2.3569060     0.0024490
  F        1.4077500    -2.3569030     0.0024500
  C       -1.3651830    -0.0000010    -0.0169560
  C       -0.6574790    -1.2079560    -0.0091570
  C       -0.6574810     1.2079540    -0.0091560
  C       -2.8913772    -0.0000030     0.0128505
  C        0.7312170     1.1805550     0.0005770
  C        0.7312190    -1.1805530     0.0005760
  C        1.4628560     0.0000010     0.0071220
  H       -1.1698750    -2.1658170    -0.0181430
  H       -1.1698790     2.1658150    -0.0181420
  H       -3.2423250     0.0000120     1.0428870
  H       -3.2734640     0.8855870    -0.4868160
  H       -3.2734620    -0.8856090    -0.4867890
  H        2.5469510     0.0000020     0.0101120
units angstrom
no_reorient  #important for SAPT in psi4, default
symmetry c1  #important for SAPT in psi4, default
}

set PROPERTIES_ORIGIN ["COM"]
properties('MP2/aug-cc-pvtz', properties = ['dipole'])
--------------------------------------------------------------------------

    Molecular point group: c1
  Charge       = 0
  Multiplicity = 1
  Basis Set: AUG-CC-PVTZ
    Blend: AUG-CC-PVTZ
  Basis Set: (AUG-CC-PVTZ AUX)
    Blend: AUG-CC-PVTZ-JKFIT

    Orbital Energies [Eh]
    ---------------------

    Doubly Occupied:

       1A    -26.317000     2A    -26.316999     3A    -11.345938
       4A    -11.345933     5A    -11.275190     6A    -11.251475
       7A    -11.246388     8A    -11.246351     9A    -11.241359
      10A     -1.630313    11A     -1.629765    12A     -1.179059
      13A     -1.068556    14A     -1.032326    15A     -0.963411
      16A     -0.862736    17A     -0.844473    18A     -0.754116
      19A     -0.740527    20A     -0.702106    21A     -0.698383
      22A     -0.694205    23A     -0.686928    24A     -0.662132
      25A     -0.603534    26A     -0.596599    27A     -0.593900
      28A     -0.557209    29A     -0.542994    30A     -0.520342
      31A     -0.503803    32A     -0.350431    33A     -0.349408

  @DF-RHF Final Energy:  -467.61170988265093

   => Energetics <=

    Nuclear Repulsion Energy =            420.1669263592335710
    One-Electron Energy =               -1474.8494977702580400
    Two-Electron Energy =                 587.0708615283737117
    Total Energy =                       -467.6117098826508709
  Basis Set: (AUG-CC-PVTZ AUX)
    Blend: AUG-CC-PVTZ-RI
    Molecular point group: c1

    Geometry (in Angstrom), charge = 0, multiplicity = 1:

       Center              X                  Y                   Z               Mass
    ------------   -----------------  -----------------  -----------------  -----------------
         F            1.313415950267     2.356905914740     0.002708305838    18.998403162730
         F            1.313421950267    -2.356903085260     0.002709305838    18.998403162730
         C           -1.459511049733    -0.000001085260    -0.016696694162    12.000000000000
         C           -0.751807049733    -1.207956085260    -0.008897694162    12.000000000000
         C           -0.751809049733     1.207953914740    -0.008896694162    12.000000000000
         C           -2.985705249733    -0.000003085260     0.013109805838    12.000000000000
         C            0.636888950267     1.180554914740     0.000836305838    12.000000000000
         C            0.636890950267    -1.180553085260     0.000835305838    12.000000000000
         C            1.368527950267     0.000000914740     0.007381305838    12.000000000000
         H           -1.264203049733    -2.165817085260    -0.017883694162     1.007825032230
         H           -1.264207049733     2.165814914740    -0.017882694162     1.007825032230
         H           -3.336653049733     0.000011914740     1.043146305838     1.007825032230
         H           -3.367792049733     0.885586914740    -0.486556694162     1.007825032230
         H           -3.367790049733    -0.885609085260    -0.486529694162     1.007825032230
         H            2.452622950267     0.000001914740     0.010371305838     1.007825032230

  Basis Set: AUG-CC-PVTZ
    Blend: AUG-CC-PVTZ
  Basis Set: (AUG-CC-PVTZ AUX)
    Blend: AUG-CC-PVTZ-JKFIT
	 Reference Energy          =    -467.6117098826509277 [Eh]
	 Singles Energy            =      -0.0000000000000000 [Eh]
	 Same-Spin Energy          =      -0.4449097091761453 [Eh]
	 Opposite-Spin Energy      =      -1.3526469172824260 [Eh]
	 Correlation Energy        =      -1.7975566264585714 [Eh]
	 Total Energy              =    -469.4092665091095000 [Eh]

	 ================> DF-SCS-MP2 Energies <==================
	-----------------------------------------------------------
	 SCS Same-Spin Scale       =       0.3333333333333333 [-]
	 SCS Opposite-Spin Scale   =       1.2000000000000000 [-]
	 SCS Same-Spin Energy      =      -0.1483032363920484 [Eh]
	 SCS Opposite-Spin Energy  =      -1.6231763007389113 [Eh]
	 SCS Correlation Energy    =      -1.7714795371309597 [Eh]
	 SCS Total Energy          =    -469.3831894197818997 [Eh]
	-----------------------------------------------------------

  Dipole Moment: [D]
     X:    -2.0434      Y:     0.0000      Z:     0.0328     Total:     2.0437

*** Psi4 exiting successfully. Buy a developer a beer!
