                               Psi4 1.4a3.dev225

  ==> Input File <==

--------------------------------------------------------------------------
#psi4
#
memory 32 gb

molecule  {
0 1
  F        1.4077440     2.3569060     0.0024490
  F        1.4077500    -2.3569030     0.0024500
  C       -1.3651830    -0.0000010    -0.0169560
  C       -0.6574790    -1.2079560    -0.0091570
  C       -0.6574810     1.2079540    -0.0091560
  C       -2.7714001    -0.0000029     0.0105074
  C        0.7312170     1.1805550     0.0005770
  C        0.7312190    -1.1805530     0.0005760
  C        1.4628560     0.0000010     0.0071220
  H       -1.1698750    -2.1658170    -0.0181430
  H       -1.1698790     2.1658150    -0.0181420
  H       -3.2423250     0.0000120     1.0428870
  H       -3.2734640     0.8855870    -0.4868160
  H       -3.2734620    -0.8856090    -0.4867890
  H        2.5469510     0.0000020     0.0101120
units angstrom
no_reorient  #important for SAPT in psi4, default
symmetry c1  #important for SAPT in psi4, default
}

set PROPERTIES_ORIGIN ["COM"]
properties('MP2/aug-cc-pvtz', properties = ['dipole'])
--------------------------------------------------------------------------

    Molecular point group: c1
  Charge       = 0
  Multiplicity = 1
  Basis Set: AUG-CC-PVTZ
    Blend: AUG-CC-PVTZ
  Basis Set: (AUG-CC-PVTZ AUX)
    Blend: AUG-CC-PVTZ-JKFIT

    Orbital Energies [Eh]
    ---------------------

    Doubly Occupied:

       1A    -26.317371     2A    -26.317371     3A    -11.346351
       4A    -11.346346     5A    -11.269663     6A    -11.251853
       7A    -11.246621     8A    -11.246579     9A    -11.245789
      10A     -1.630675    11A     -1.630127    12A     -1.184324
      13A     -1.082626    14A     -1.033241    15A     -0.962829
      16A     -0.864477    17A     -0.841239    18A     -0.755927
      19A     -0.742502    20A     -0.702502    21A     -0.698814
      22A     -0.694550    23A     -0.688467    24A     -0.665816
      25A     -0.613623    26A     -0.602754    27A     -0.584820
      28A     -0.554713    29A     -0.538753    30A     -0.520214
      31A     -0.497269    32A     -0.350081    33A     -0.346992

  @DF-RHF Final Energy:  -467.59928911536514

   => Energetics <=

    Nuclear Repulsion Energy =            422.2793551550882398
    One-Electron Energy =               -1479.0067326965884149
    Two-Electron Energy =                 589.1280884261349229
    Total Energy =                       -467.5992891153651954
  Basis Set: (AUG-CC-PVTZ AUX)
    Blend: AUG-CC-PVTZ-RI
    Molecular point group: c1

    Geometry (in Angstrom), charge = 0, multiplicity = 1:

       Center              X                  Y                   Z               Mass
    ------------   -----------------  -----------------  -----------------  -----------------
         F            1.302171940882     2.356905905369     0.002927896397    18.998403162730
         F            1.302177940882    -2.356903094631     0.002928896397    18.998403162730
         C           -1.470755059118    -0.000001094631    -0.016477103603    12.000000000000
         C           -0.763051059118    -1.207956094631    -0.008678103603    12.000000000000
         C           -0.763053059118     1.207953905369    -0.008677103603    12.000000000000
         C           -2.876972159118    -0.000002994631     0.010986296397    12.000000000000
         C            0.625644940882     1.180554905369     0.001055896397    12.000000000000
         C            0.625646940882    -1.180553094631     0.001054896397    12.000000000000
         C            1.357283940882     0.000000905369     0.007600896397    12.000000000000
         H           -1.275447059118    -2.165817094631    -0.017664103603     1.007825032230
         H           -1.275451059118     2.165814905369    -0.017663103603     1.007825032230
         H           -3.347897059118     0.000011905369     1.043365896397     1.007825032230
         H           -3.379036059118     0.885586905369    -0.486337103603     1.007825032230
         H           -3.379034059118    -0.885609094631    -0.486310103603     1.007825032230
         H            2.441378940882     0.000001905369     0.010590896397     1.007825032230

  Basis Set: AUG-CC-PVTZ
    Blend: AUG-CC-PVTZ
  Basis Set: (AUG-CC-PVTZ AUX)
    Blend: AUG-CC-PVTZ-JKFIT
	 Reference Energy          =    -467.5992891153651385 [Eh]
	 Singles Energy            =      -0.0000000000000000 [Eh]
	 Same-Spin Energy          =      -0.4463550963518875 [Eh]
	 Opposite-Spin Energy      =      -1.3543082317741117 [Eh]
	 Correlation Energy        =      -1.8006633281259994 [Eh]
	 Total Energy              =    -469.3999524434911450 [Eh]

	 ================> DF-SCS-MP2 Energies <==================
	-----------------------------------------------------------
	 SCS Same-Spin Scale       =       0.3333333333333333 [-]
	 SCS Opposite-Spin Scale   =       1.2000000000000000 [-]
	 SCS Same-Spin Energy      =      -0.1487850321172958 [Eh]
	 SCS Opposite-Spin Energy  =      -1.6251698781289341 [Eh]
	 SCS Correlation Energy    =      -1.7739549102462300 [Eh]
	 SCS Total Energy          =    -469.3732440256113705 [Eh]
	-----------------------------------------------------------

  Dipole Moment: [D]
     X:    -2.0515      Y:     0.0000      Z:     0.0386     Total:     2.0519

*** Psi4 exiting successfully. Buy a developer a beer!
