                               Psi4 1.4a3.dev225

  ==> Input File <==

--------------------------------------------------------------------------
#psi4
#
memory 32 gb

molecule  {
0 1
  F        1.4077440     2.3569060     0.0024490
  F        1.4077500    -2.3569030     0.0024500
  C       -1.3651830    -0.0000010    -0.0169560
  C       -0.6157557    -1.1825201    -0.0086972
  C       -0.6574810     1.2079540    -0.0091560
  C       -2.8713810    -0.0000030     0.0124600
  C        0.7312170     1.1805550     0.0005770
  C        0.7312190    -1.1805530     0.0005760
  C        1.4628560     0.0000010     0.0071220
  H       -1.1698750    -2.1658170    -0.0181430
  H       -1.1698790     2.1658150    -0.0181420
  H       -3.2423250     0.0000120     1.0428870
  H       -3.2734640     0.8855870    -0.4868160
  H       -3.2734620    -0.8856090    -0.4867890
  H        2.5469510     0.0000020     0.0101120
units angstrom
no_reorient  #important for SAPT in psi4, default
symmetry c1  #important for SAPT in psi4, default
}

set PROPERTIES_ORIGIN ["COM"]
properties('MP2/aug-cc-pvtz', properties = ['dipole'])
--------------------------------------------------------------------------

    Molecular point group: c1
  Charge       = 0
  Multiplicity = 1
  Basis Set: AUG-CC-PVTZ
    Blend: AUG-CC-PVTZ
  Basis Set: (AUG-CC-PVTZ AUX)
    Blend: AUG-CC-PVTZ-JKFIT

    Orbital Energies [Eh]
    ---------------------

    Doubly Occupied:

       1A    -26.316474     2A    -26.316230     3A    -11.344627
       4A    -11.340235     5A    -11.274767     6A    -11.251055
       7A    -11.246794     8A    -11.245185     9A    -11.243562
      10A     -1.629723    11A     -1.629132    12A     -1.183926
      13A     -1.070381    14A     -1.036600    15A     -0.964679
      16A     -0.860045    17A     -0.847188    18A     -0.756209
      19A     -0.740803    20A     -0.702139    21A     -0.693997
      22A     -0.693654    23A     -0.689242    24A     -0.660581
      25A     -0.601840    26A     -0.597533    27A     -0.593582
      28A     -0.554014    29A     -0.536859    30A     -0.526105
      31A     -0.506117    32A     -0.354046    33A     -0.348401

  @DF-RHF Final Energy:  -467.60893237299001

   => Energetics <=

    Nuclear Repulsion Energy =            421.2845980203632053
    One-Electron Energy =               -1477.0756083101498461
    Two-Electron Energy =                 588.1820779167967430
    Total Energy =                       -467.6089323729900116
  Basis Set: (AUG-CC-PVTZ AUX)
    Blend: AUG-CC-PVTZ-RI
    Molecular point group: c1

    Geometry (in Angstrom), charge = 0, multiplicity = 1:

       Center              X                  Y                   Z               Mass
    ------------   -----------------  -----------------  -----------------  -----------------
         F            1.307631724467     2.354522114012     0.002701811183    18.998403162730
         F            1.307637724467    -2.359286885988     0.002702811183    18.998403162730
         C           -1.465295275533    -0.002384885988    -0.016703188817    12.000000000000
         C           -0.715867975533    -1.184903985988    -0.008444388817    12.000000000000
         C           -0.757593275533     1.205570114012    -0.008903188817    12.000000000000
         C           -2.971493275533    -0.002386885988     0.012712811183    12.000000000000
         C            0.631104724467     1.178171114012     0.000829811183    12.000000000000
         C            0.631106724467    -1.182936885988     0.000828811183    12.000000000000
         C            1.362743724467    -0.002382885988     0.007374811183    12.000000000000
         H           -1.269987275533    -2.168200885988    -0.017890188817     1.007825032230
         H           -1.269991275533     2.163431114012    -0.017889188817     1.007825032230
         H           -3.342437275533    -0.002371885988     1.043139811183     1.007825032230
         H           -3.373576275533     0.883203114012    -0.486563188817     1.007825032230
         H           -3.373574275533    -0.887992885988    -0.486536188817     1.007825032230
         H            2.446838724467    -0.002381885988     0.010364811183     1.007825032230

  Basis Set: AUG-CC-PVTZ
    Blend: AUG-CC-PVTZ
  Basis Set: (AUG-CC-PVTZ AUX)
    Blend: AUG-CC-PVTZ-JKFIT
	 Reference Energy          =    -467.6089323729900116 [Eh]
	 Singles Energy            =      -0.0000000000000000 [Eh]
	 Same-Spin Energy          =      -0.4452009181906994 [Eh]
	 Opposite-Spin Energy      =      -1.3527617328377872 [Eh]
	 Correlation Energy        =      -1.7979626510284867 [Eh]
	 Total Energy              =    -469.4068950240185245 [Eh]

	 ================> DF-SCS-MP2 Energies <==================
	-----------------------------------------------------------
	 SCS Same-Spin Scale       =       0.3333333333333333 [-]
	 SCS Opposite-Spin Scale   =       1.2000000000000000 [-]
	 SCS Same-Spin Energy      =      -0.1484003060635665 [Eh]
	 SCS Opposite-Spin Energy  =      -1.6233140794053447 [Eh]
	 SCS Correlation Energy    =      -1.7717143854689110 [Eh]
	 SCS Total Energy          =    -469.3806467584589086 [Eh]
	-----------------------------------------------------------

  Dipole Moment: [D]
     X:    -2.1056      Y:     0.0333      Z:     0.0337     Total:     2.1061

*** Psi4 exiting successfully. Buy a developer a beer!
