                               Psi4 1.4a3.dev225

  ==> Input File <==

--------------------------------------------------------------------------
#psi4
#
memory 32 gb

molecule  {
0 1
  F        1.4077440     2.3569060     0.0024490
  F        1.4077500    -2.3569030     0.0024500
  C       -1.3651830    -0.0000010    -0.0169560
  C       -0.6574790    -1.2079560    -0.0091570
  C       -0.6574810     1.2079540    -0.0091560
  C       -2.8713810    -0.0000030     0.0124600
  C        0.7312170     1.1805550     0.0005770
  C        0.7312190    -1.1805530     0.0005760
  C        1.4628560     0.0000010     0.0071220
  H       -1.1698750    -2.1658170    -0.0181430
  H       -1.1698790     2.1658150    -0.0181420
  H       -3.2084538     0.0000106     0.9487980
  H       -3.2734640     0.8855870    -0.4868160
  H       -3.2734620    -0.8856090    -0.4867890
  H        2.5469510     0.0000020     0.0101120
units angstrom
no_reorient  #important for SAPT in psi4, default
symmetry c1  #important for SAPT in psi4, default
}

set PROPERTIES_ORIGIN ["COM"]
properties('MP2/aug-cc-pvtz', properties = ['dipole'])
--------------------------------------------------------------------------

    Molecular point group: c1
  Charge       = 0
  Multiplicity = 1
  Basis Set: AUG-CC-PVTZ
    Blend: AUG-CC-PVTZ
  Basis Set: (AUG-CC-PVTZ AUX)
    Blend: AUG-CC-PVTZ-JKFIT

    Orbital Energies [Eh]
    ---------------------

    Doubly Occupied:

       1A    -26.316918     2A    -26.316918     3A    -11.345831
       4A    -11.345826     5A    -11.273875     6A    -11.251302
       7A    -11.246129     8A    -11.246091     9A    -11.229710
      10A     -1.630234    11A     -1.629686    12A     -1.179718
      13A     -1.072851    14A     -1.032248    15A     -0.970467
      16A     -0.862788    17A     -0.846372    18A     -0.755638
      19A     -0.740604    20A     -0.702047    21A     -0.698329
      22A     -0.694120    23A     -0.686927    24A     -0.662669
      25A     -0.612982    26A     -0.602726    27A     -0.596165
      28A     -0.555768    29A     -0.539584    30A     -0.524405
      31A     -0.504843    32A     -0.350610    33A     -0.349322

  @DF-RHF Final Energy:  -467.60582491993915

   => Energetics <=

    Nuclear Repulsion Energy =            420.9689780008233697
    One-Electron Energy =               -1476.4022011499705513
    Two-Electron Energy =                 587.8273982292079154
    Total Energy =                       -467.6058249199392094
  Basis Set: (AUG-CC-PVTZ AUX)
    Blend: AUG-CC-PVTZ-RI
    Molecular point group: c1

    Geometry (in Angstrom), charge = 0, multiplicity = 1:

       Center              X                  Y                   Z               Mass
    ------------   -----------------  -----------------  -----------------  -----------------
         F            1.311275348877     2.356905925760     0.003485471802    18.998403162730
         F            1.311281348877    -2.356903074240     0.003486471802    18.998403162730
         C           -1.461651651123    -0.000001074240    -0.015919528198    12.000000000000
         C           -0.753947651123    -1.207956074240    -0.008120528198    12.000000000000
         C           -0.753949651123     1.207953925760    -0.008119528198    12.000000000000
         C           -2.967849651123    -0.000003074240     0.013496471802    12.000000000000
         C            0.634748348877     1.180554925760     0.001613471802    12.000000000000
         C            0.634750348877    -1.180553074240     0.001612471802    12.000000000000
         C            1.366387348877     0.000000925760     0.008158471802    12.000000000000
         H           -1.266343651123    -2.165817074240    -0.017106528198     1.007825032230
         H           -1.266347651123     2.165814925760    -0.017105528198     1.007825032230
         H           -3.304922451123     0.000010525760     0.949834471802     1.007825032230
         H           -3.369932651123     0.885586925760    -0.485779528198     1.007825032230
         H           -3.369930651123    -0.885609074240    -0.485752528198     1.007825032230
         H            2.450482348877     0.000001925760     0.011148471802     1.007825032230

  Basis Set: AUG-CC-PVTZ
    Blend: AUG-CC-PVTZ
  Basis Set: (AUG-CC-PVTZ AUX)
    Blend: AUG-CC-PVTZ-JKFIT
	 Reference Energy          =    -467.6058249199391526 [Eh]
	 Singles Energy            =      -0.0000000000000000 [Eh]
	 Same-Spin Energy          =      -0.4450877109481238 [Eh]
	 Opposite-Spin Energy      =      -1.3523105789215510 [Eh]
	 Correlation Energy        =      -1.7973982898696748 [Eh]
	 Total Energy              =    -469.4032232098088002 [Eh]

	 ================> DF-SCS-MP2 Energies <==================
	-----------------------------------------------------------
	 SCS Same-Spin Scale       =       0.3333333333333333 [-]
	 SCS Opposite-Spin Scale   =       1.2000000000000000 [-]
	 SCS Same-Spin Energy      =      -0.1483625703160413 [Eh]
	 SCS Opposite-Spin Energy  =      -1.6227726947058612 [Eh]
	 SCS Correlation Energy    =      -1.7711352650219023 [Eh]
	 SCS Total Energy          =    -469.3769601849610353 [Eh]
	-----------------------------------------------------------

  Dipole Moment: [D]
     X:    -2.0726      Y:     0.0000      Z:     0.0559     Total:     2.0733

*** Psi4 exiting successfully. Buy a developer a beer!
