                               Psi4 1.4a3.dev225

  ==> Input File <==

--------------------------------------------------------------------------
#psi4
#
memory 32 gb

molecule  {
0 1
  F        1.4077440     2.3569060     0.0024490
  F        1.4077500    -2.3569030     0.0024500
  C       -1.3651830    -0.0000010    -0.0169560
  C       -0.6574790    -1.2079560    -0.0091570
  C       -0.6574810     1.2079540    -0.0091560
  C       -2.8713810    -0.0000030     0.0124600
  C        0.7312170     1.1805550     0.0005770
  C        0.7312190    -1.1805530     0.0005760
  C        1.4365172     0.0425006     0.0068864
  H       -1.1698750    -2.1658170    -0.0181430
  H       -1.1698790     2.1658150    -0.0181420
  H       -3.2423250     0.0000120     1.0428870
  H       -3.2734640     0.8855870    -0.4868160
  H       -3.2734620    -0.8856090    -0.4867890
  H        2.5469510     0.0000020     0.0101120
units angstrom
no_reorient  #important for SAPT in psi4, default
symmetry c1  #important for SAPT in psi4, default
}

set PROPERTIES_ORIGIN ["COM"]
properties('MP2/aug-cc-pvtz', properties = ['dipole'])
--------------------------------------------------------------------------

    Molecular point group: c1
  Charge       = 0
  Multiplicity = 1
  Basis Set: AUG-CC-PVTZ
    Blend: AUG-CC-PVTZ
  Basis Set: (AUG-CC-PVTZ AUX)
    Blend: AUG-CC-PVTZ-JKFIT

    Orbital Energies [Eh]
    ---------------------

    Doubly Occupied:

       1A    -26.320607     2A    -26.314819     3A    -11.348934
       4A    -11.339086     5A    -11.273578     6A    -11.250812
       7A    -11.246810     8A    -11.245897     9A    -11.241468
      10A     -1.632336    11A     -1.628610    12A     -1.182563
      13A     -1.072739    14A     -1.033184    15A     -0.962548
      16A     -0.865115    17A     -0.842959    18A     -0.755343
      19A     -0.742242    20A     -0.703180    21A     -0.695220
      22A     -0.694656    23A     -0.688681    24A     -0.662198
      25A     -0.606226    26A     -0.593295    27A     -0.590843
      28A     -0.557412    29A     -0.540077    30A     -0.521028
      31A     -0.505237    32A     -0.355769    33A     -0.345924

  @DF-RHF Final Energy:  -467.60847761038559

   => Energetics <=

    Nuclear Repulsion Energy =            420.9938165097113938
    One-Electron Energy =               -1476.4857960786296189
    Two-Electron Energy =                 587.8835019585326336
    Total Energy =                       -467.6084776103855347
  Basis Set: (AUG-CC-PVTZ AUX)
    Blend: AUG-CC-PVTZ-RI
    Molecular point group: c1

    Geometry (in Angstrom), charge = 0, multiplicity = 1:

       Center              X                  Y                   Z               Mass
    ------------   -----------------  -----------------  -----------------  -----------------
         F            1.314010365818     2.352922938812     0.002766982655    18.998403162730
         F            1.314016365818    -2.360886061188     0.002767982655    18.998403162730
         C           -1.458916634182    -0.003984061188    -0.016638017345    12.000000000000
         C           -0.751212634182    -1.211939061188    -0.008839017345    12.000000000000
         C           -0.751214634182     1.203970938812    -0.008838017345    12.000000000000
         C           -2.965114634182    -0.003986061188     0.012777982655    12.000000000000
         C            0.637483365818     1.176571938812     0.000894982655    12.000000000000
         C            0.637485365818    -1.184536061188     0.000893982655    12.000000000000
         C            1.342783565818     0.038517538812     0.007204382655    12.000000000000
         H           -1.263608634182    -2.169800061188    -0.017825017345     1.007825032230
         H           -1.263612634182     2.161831938812    -0.017824017345     1.007825032230
         H           -3.336058634182    -0.003971061188     1.043204982655     1.007825032230
         H           -3.367197634182     0.881603938812    -0.486498017345     1.007825032230
         H           -3.367195634182    -0.889592061188    -0.486471017345     1.007825032230
         H            2.453217365818    -0.003981061188     0.010429982655     1.007825032230

  Basis Set: AUG-CC-PVTZ
    Blend: AUG-CC-PVTZ
  Basis Set: (AUG-CC-PVTZ AUX)
    Blend: AUG-CC-PVTZ-JKFIT
	 Reference Energy          =    -467.6084776103855916 [Eh]
	 Singles Energy            =      -0.0000000000000000 [Eh]
	 Same-Spin Energy          =      -0.4451345508737197 [Eh]
	 Opposite-Spin Energy      =      -1.3528509567349851 [Eh]
	 Correlation Energy        =      -1.7979855076087048 [Eh]
	 Total Energy              =    -469.4064631179942921 [Eh]

	 ================> DF-SCS-MP2 Energies <==================
	-----------------------------------------------------------
	 SCS Same-Spin Scale       =       0.3333333333333333 [-]
	 SCS Opposite-Spin Scale   =       1.2000000000000000 [-]
	 SCS Same-Spin Energy      =      -0.1483781836245732 [Eh]
	 SCS Opposite-Spin Energy  =      -1.6234211480819820 [Eh]
	 SCS Correlation Energy    =      -1.7717993317065552 [Eh]
	 SCS Total Energy          =    -469.3802769420921663 [Eh]
	-----------------------------------------------------------

  Dipole Moment: [D]
     X:    -2.0327      Y:    -0.0761      Z:     0.0338     Total:     2.0344

*** Psi4 exiting successfully. Buy a developer a beer!
