                               Psi4 1.4a3.dev225

  ==> Input File <==

--------------------------------------------------------------------------
#psi4
#
memory 32 gb

molecule  {
0 1
  F        1.2810785     2.4211779     0.0015741
  F        1.4077500    -2.3569030     0.0024500
  C       -1.3651830    -0.0000010    -0.0169560
  C       -0.6574790    -1.2079560    -0.0091570
  C       -0.6574810     1.2079540    -0.0091560
  C       -2.8713810    -0.0000030     0.0124600
  C        0.7312170     1.1805550     0.0005770
  C        0.7312190    -1.1805530     0.0005760
  C        1.4628560     0.0000010     0.0071220
  H       -1.1698750    -2.1658170    -0.0181430
  H       -1.1698790     2.1658150    -0.0181420
  H       -3.2423250     0.0000120     1.0428870
  H       -3.2734640     0.8855870    -0.4868160
  H       -3.2734620    -0.8856090    -0.4867890
  H        2.5469510     0.0000020     0.0101120
units angstrom
no_reorient  #important for SAPT in psi4, default
symmetry c1  #important for SAPT in psi4, default
}

set PROPERTIES_ORIGIN ["COM"]
properties('MP2/aug-cc-pvtz', properties = ['dipole'])
--------------------------------------------------------------------------

    Molecular point group: c1
  Charge       = 0
  Multiplicity = 1
  Basis Set: AUG-CC-PVTZ
    Blend: AUG-CC-PVTZ
  Basis Set: (AUG-CC-PVTZ AUX)
    Blend: AUG-CC-PVTZ-JKFIT

    Orbital Energies [Eh]
    ---------------------

    Doubly Occupied:

       1A    -26.317972     2A    -26.316878     3A    -11.347174
       4A    -11.346016     5A    -11.272834     6A    -11.254933
       7A    -11.246279     8A    -11.243003     9A    -11.240905
      10A     -1.630990    11A     -1.630267    12A     -1.179527
      13A     -1.070735    14A     -1.032079    15A     -0.962899
      16A     -0.861778    17A     -0.845618    18A     -0.753627
      19A     -0.741635    20A     -0.702628    21A     -0.699743
      22A     -0.694850    23A     -0.686623    24A     -0.661478
      25A     -0.602640    26A     -0.598561    27A     -0.591888
      28A     -0.558972    29A     -0.538792    30A     -0.521197
      31A     -0.503026    32A     -0.351146    33A     -0.348075

  @DF-RHF Final Energy:  -467.60910744491252

   => Energetics <=

    Nuclear Repulsion Energy =            420.6193236882358519
    One-Electron Energy =               -1475.7473250162181557
    Two-Electron Energy =                 587.5188938830697225
    Total Energy =                       -467.6091074449125244
  Basis Set: (AUG-CC-PVTZ AUX)
    Blend: AUG-CC-PVTZ-RI
    Molecular point group: c1

    Geometry (in Angstrom), charge = 0, multiplicity = 1:

       Center              X                  Y                   Z               Mass
    ------------   -----------------  -----------------  -----------------  -----------------
         F            1.203670352453     2.411641516357     0.001999815380    18.998403162730
         F            1.330341852453    -2.366439383643     0.002875715380    18.998403162730
         C           -1.442591147547    -0.009537383643    -0.016530284620    12.000000000000
         C           -0.734887147547    -1.217492383643    -0.008731284620    12.000000000000
         C           -0.734889147547     1.198417616357    -0.008730284620    12.000000000000
         C           -2.948789147547    -0.009539383643     0.012885715380    12.000000000000
         C            0.653808852453     1.171018616357     0.001002715380    12.000000000000
         C            0.653810852453    -1.190089383643     0.001001715380    12.000000000000
         C            1.385447852453    -0.009535383643     0.007547715380    12.000000000000
         H           -1.247283147547    -2.175353383643    -0.017717284620     1.007825032230
         H           -1.247287147547     2.156278616357    -0.017716284620     1.007825032230
         H           -3.319733147547    -0.009524383643     1.043312715380     1.007825032230
         H           -3.350872147547     0.876050616357    -0.486390284620     1.007825032230
         H           -3.350870147547    -0.895145383643    -0.486363284620     1.007825032230
         H            2.469542852453    -0.009534383643     0.010537715380     1.007825032230

  Basis Set: AUG-CC-PVTZ
    Blend: AUG-CC-PVTZ
  Basis Set: (AUG-CC-PVTZ AUX)
    Blend: AUG-CC-PVTZ-JKFIT
	 Reference Energy          =    -467.6091074449125244 [Eh]
	 Singles Energy            =      -0.0000000000000000 [Eh]
	 Same-Spin Energy          =      -0.4451323974774465 [Eh]
	 Opposite-Spin Energy      =      -1.3529522334143409 [Eh]
	 Correlation Energy        =      -1.7980846308917875 [Eh]
	 Total Energy              =    -469.4071920758042893 [Eh]

	 ================> DF-SCS-MP2 Energies <==================
	-----------------------------------------------------------
	 SCS Same-Spin Scale       =       0.3333333333333333 [-]
	 SCS Opposite-Spin Scale   =       1.2000000000000000 [-]
	 SCS Same-Spin Energy      =      -0.1483774658258155 [Eh]
	 SCS Opposite-Spin Energy  =      -1.6235426800972090 [Eh]
	 SCS Correlation Energy    =      -1.7719201459230245 [Eh]
	 SCS Total Energy          =    -469.3810275908355720 [Eh]
	-----------------------------------------------------------

  Dipole Moment: [D]
     X:    -1.9117      Y:    -0.0481      Z:     0.0348     Total:     1.9126

*** Psi4 exiting successfully. Buy a developer a beer!
