                               Psi4 1.4a3.dev225

  ==> Input File <==

--------------------------------------------------------------------------
#psi4
#
memory 32 gb

molecule  {
0 1
  F        1.4077440     2.3569060     0.0024490
  F        1.4077500    -2.3569030     0.0024500
  C       -1.3651830    -0.0000010    -0.0169560
  C       -0.6574790    -1.2079560    -0.0091570
  C       -0.6574810     1.2079540    -0.0091560
  C       -2.8713810    -0.0000030     0.0124600
  C        0.7312170     1.1805550     0.0005770
  C        0.8311971    -1.1785801     0.0012767
  C        1.4628560     0.0000010     0.0071220
  H       -1.1698750    -2.1658170    -0.0181430
  H       -1.1698790     2.1658150    -0.0181420
  H       -3.2423250     0.0000120     1.0428870
  H       -3.2734640     0.8855870    -0.4868160
  H       -3.2734620    -0.8856090    -0.4867890
  H        2.5469510     0.0000020     0.0101120
units angstrom
no_reorient  #important for SAPT in psi4, default
symmetry c1  #important for SAPT in psi4, default
}

set PROPERTIES_ORIGIN ["COM"]
properties('MP2/aug-cc-pvtz', properties = ['dipole'])
--------------------------------------------------------------------------

    Molecular point group: c1
  Charge       = 0
  Multiplicity = 1
  Basis Set: AUG-CC-PVTZ
    Blend: AUG-CC-PVTZ
  Basis Set: (AUG-CC-PVTZ AUX)
    Blend: AUG-CC-PVTZ-JKFIT

    Orbital Energies [Eh]
    ---------------------

    Doubly Occupied:

       1A    -26.331498     2A    -26.317226     3A    -11.349484
       4A    -11.346157     5A    -11.269826     6A    -11.250476
       7A    -11.245989     8A    -11.244240     9A    -11.239135
      10A     -1.659524    11A     -1.629987    12A     -1.174009
      13A     -1.075644    14A     -1.020252    15A     -0.958078
      16A     -0.871846    17A     -0.843894    18A     -0.763235
      19A     -0.749858    20A     -0.718831    21A     -0.699156
      22A     -0.697439    23A     -0.688122    24A     -0.666802
      25A     -0.604174    26A     -0.594028    27A     -0.589613
      28A     -0.556037    29A     -0.537435    30A     -0.508517
      31A     -0.499071    32A     -0.357909    33A     -0.334477

  @DF-RHF Final Energy:  -467.60106053283914

   => Energetics <=

    Nuclear Repulsion Energy =            420.3044928053197964
    One-Electron Energy =               -1475.0271690879806101
    Two-Electron Energy =                 587.1216157498216717
    Total Energy =                       -467.6010605328391421
  Basis Set: (AUG-CC-PVTZ AUX)
    Blend: AUG-CC-PVTZ-RI
    Molecular point group: c1

    Geometry (in Angstrom), charge = 0, multiplicity = 1:

       Center              X                  Y                   Z               Mass
    ------------   -----------------  -----------------  -----------------  -----------------
         F            1.302172203293     2.356721018572     0.002679234526    18.998403162730
         F            1.302178203293    -2.357087981428     0.002680234526    18.998403162730
         C           -1.470754796707    -0.000185981428    -0.016725765474    12.000000000000
         C           -0.763050796707    -1.208140981428    -0.008926765474    12.000000000000
         C           -0.763052796707     1.207769018572    -0.008925765474    12.000000000000
         C           -2.976952796707    -0.000187981428     0.012690234526    12.000000000000
         C            0.625645203293     1.180370018572     0.000807234526    12.000000000000
         C            0.725625303293    -1.178765081428     0.001506934526    12.000000000000
         C            1.357284203293    -0.000183981428     0.007352234526    12.000000000000
         H           -1.275446796707    -2.166001981428    -0.017912765474     1.007825032230
         H           -1.275450796707     2.165630018572    -0.017911765474     1.007825032230
         H           -3.347896796707    -0.000172981428     1.043117234526     1.007825032230
         H           -3.379035796707     0.885402018572    -0.486585765474     1.007825032230
         H           -3.379033796707    -0.885793981428    -0.486558765474     1.007825032230
         H            2.441379203293    -0.000182981428     0.010342234526     1.007825032230

  Basis Set: AUG-CC-PVTZ
    Blend: AUG-CC-PVTZ
  Basis Set: (AUG-CC-PVTZ AUX)
    Blend: AUG-CC-PVTZ-JKFIT
	 Reference Energy          =    -467.6010605328391421 [Eh]
	 Singles Energy            =      -0.0000000000000000 [Eh]
	 Same-Spin Energy          =      -0.4446623688279354 [Eh]
	 Opposite-Spin Energy      =      -1.3525308234782873 [Eh]
	 Correlation Energy        =      -1.7971931923062228 [Eh]
	 Total Energy              =    -469.3982537251453664 [Eh]

	 ================> DF-SCS-MP2 Energies <==================
	-----------------------------------------------------------
	 SCS Same-Spin Scale       =       0.3333333333333333 [-]
	 SCS Opposite-Spin Scale   =       1.2000000000000000 [-]
	 SCS Same-Spin Energy      =      -0.1482207896093118 [Eh]
	 SCS Opposite-Spin Energy  =      -1.6230369881739448 [Eh]
	 SCS Correlation Energy    =      -1.7712577777832565 [Eh]
	 SCS Total Energy          =    -469.3723183106224042 [Eh]
	-----------------------------------------------------------

  Dipole Moment: [D]
     X:    -1.7359      Y:    -0.2263      Z:     0.0351     Total:     1.7509

*** Psi4 exiting successfully. Buy a developer a beer!
