                               Psi4 1.4a3.dev225

  ==> Input File <==

--------------------------------------------------------------------------
#psi4
#
memory 32 gb

molecule  {
0 1
  F        1.4077440     2.3569060     0.0024490
  F        1.4077500    -2.3569030     0.0024500
  C       -1.3651830    -0.0000010    -0.0169560
  C       -0.6574790    -1.2079560    -0.0091570
  C       -0.6574810     1.2079540    -0.0091560
  C       -2.8713810    -0.0000030     0.0124600
  C        0.7312170     1.1805550     0.0005770
  C        0.7312190    -1.1805530     0.0005760
  C        1.4628560     0.0000010     0.0071220
  H       -1.1698750    -2.1658170    -0.0181430
  H       -1.1698790     2.1658150    -0.0181420
  H       -3.3100673     0.0000147     1.2310650
  H       -3.2734640     0.8855870    -0.4868160
  H       -3.2734620    -0.8856090    -0.4867890
  H        2.5469510     0.0000020     0.0101120
units angstrom
no_reorient  #important for SAPT in psi4, default
symmetry c1  #important for SAPT in psi4, default
}

set PROPERTIES_ORIGIN ["COM"]
properties('MP2/aug-cc-pvtz', properties = ['dipole'])
--------------------------------------------------------------------------

    Molecular point group: c1
  Charge       = 0
  Multiplicity = 1
  Basis Set: AUG-CC-PVTZ
    Blend: AUG-CC-PVTZ
  Basis Set: (AUG-CC-PVTZ AUX)
    Blend: AUG-CC-PVTZ-JKFIT

    Orbital Energies [Eh]
    ---------------------

    Doubly Occupied:

       1A    -26.317681     2A    -26.317681     3A    -11.346741
       4A    -11.346736     5A    -11.276067     6A    -11.263869
       7A    -11.252690     8A    -11.247672     9A    -11.247635
      10A     -1.630985    11A     -1.630436    12A     -1.180543
      13A     -1.069050    14A     -1.033396    15A     -0.954927
      16A     -0.863854    17A     -0.841504    18A     -0.753462
      19A     -0.741669    20A     -0.702780    21A     -0.699283
      22A     -0.694887    23A     -0.688076    24A     -0.663143
      25A     -0.604693    26A     -0.598963    27A     -0.562105
      28A     -0.557646    29A     -0.542366    30A     -0.523885
      31A     -0.494734    32A     -0.350288    33A     -0.348897

  @DF-RHF Final Energy:  -467.59193958600071

   => Energetics <=

    Nuclear Repulsion Energy =            419.7262695644491828
    One-Electron Energy =               -1473.9397332847927373
    Two-Electron Energy =                 586.6215241343427351
    Total Energy =                       -467.5919395860007626
  Basis Set: (AUG-CC-PVTZ AUX)
    Blend: AUG-CC-PVTZ-RI
    Molecular point group: c1

    Geometry (in Angstrom), charge = 0, multiplicity = 1:

       Center              X                  Y                   Z               Mass
    ------------   -----------------  -----------------  -----------------  -----------------
         F            1.312075142883     2.356905893489     0.001263764504    18.998403162730
         F            1.312081142883    -2.356903106511     0.001264764504    18.998403162730
         C           -1.460851857117    -0.000001106511    -0.018141235496    12.000000000000
         C           -0.753147857117    -1.207956106511    -0.010342235496    12.000000000000
         C           -0.753149857117     1.207953893489    -0.010341235496    12.000000000000
         C           -2.967049857117    -0.000003106511     0.011274764504    12.000000000000
         C            0.635548142883     1.180554893489    -0.000608235496    12.000000000000
         C            0.635550142883    -1.180553106511    -0.000609235496    12.000000000000
         C            1.367187142883     0.000000893489     0.005936764504    12.000000000000
         H           -1.265543857117    -2.165817106511    -0.019328235496     1.007825032230
         H           -1.265547857117     2.165814893489    -0.019327235496     1.007825032230
         H           -3.405736157117     0.000014593489     1.229879764504     1.007825032230
         H           -3.369132857117     0.885586893489    -0.488001235496     1.007825032230
         H           -3.369130857117    -0.885609106511    -0.487974235496     1.007825032230
         H            2.451282142883     0.000001893489     0.008926764504     1.007825032230

  Basis Set: AUG-CC-PVTZ
    Blend: AUG-CC-PVTZ
  Basis Set: (AUG-CC-PVTZ AUX)
    Blend: AUG-CC-PVTZ-JKFIT
	 Reference Energy          =    -467.5919395860007057 [Eh]
	 Singles Energy            =      -0.0000000000000000 [Eh]
	 Same-Spin Energy          =      -0.4450885908624114 [Eh]
	 Opposite-Spin Energy      =      -1.3543301419896934 [Eh]
	 Correlation Energy        =      -1.7994187328521047 [Eh]
	 Total Energy              =    -469.3913583188528378 [Eh]

	 ================> DF-SCS-MP2 Energies <==================
	-----------------------------------------------------------
	 SCS Same-Spin Scale       =       0.3333333333333333 [-]
	 SCS Opposite-Spin Scale   =       1.2000000000000000 [-]
	 SCS Same-Spin Energy      =      -0.1483628636208038 [Eh]
	 SCS Opposite-Spin Energy  =      -1.6251961703876321 [Eh]
	 SCS Correlation Energy    =      -1.7735590340084360 [Eh]
	 SCS Total Energy          =    -469.3654986200091344 [Eh]
	-----------------------------------------------------------

  Dipole Moment: [D]
     X:    -1.9423      Y:     0.0000      Z:    -0.0501     Total:     1.9429

*** Psi4 exiting successfully. Buy a developer a beer!
