                               Psi4 1.4a3.dev225

  ==> Input File <==

--------------------------------------------------------------------------
#psi4
#
memory 32 gb

molecule  {
0 1
  F        1.4077440     2.3569060     0.0024490
  F        1.4077500    -2.3569030     0.0024500
  C       -1.3651830    -0.0000010    -0.0169560
  C       -0.6786672    -1.2201239    -0.0093905
  C       -0.6574810     1.2079540    -0.0091560
  C       -2.8713810    -0.0000030     0.0124600
  C        0.7312170     1.1805550     0.0005770
  C        0.7312190    -1.1805530     0.0005760
  C        1.4628560     0.0000010     0.0071220
  H       -1.1698750    -2.1658170    -0.0181430
  H       -1.1698790     2.1658150    -0.0181420
  H       -3.2423250     0.0000120     1.0428870
  H       -3.2734640     0.8855870    -0.4868160
  H       -3.2734620    -0.8856090    -0.4867890
  H        2.5469510     0.0000020     0.0101120
units angstrom
no_reorient  #important for SAPT in psi4, default
symmetry c1  #important for SAPT in psi4, default
}

set PROPERTIES_ORIGIN ["COM"]
properties('MP2/aug-cc-pvtz', properties = ['dipole'])
--------------------------------------------------------------------------

    Molecular point group: c1
  Charge       = 0
  Multiplicity = 1
  Basis Set: AUG-CC-PVTZ
    Blend: AUG-CC-PVTZ
  Basis Set: (AUG-CC-PVTZ AUX)
    Blend: AUG-CC-PVTZ-JKFIT

    Orbital Energies [Eh]
    ---------------------

    Doubly Occupied:

       1A    -26.317523     2A    -26.317378     3A    -11.348789
       4A    -11.346746     5A    -11.274411     6A    -11.251809
       7A    -11.247070     8A    -11.246263     9A    -11.240968
      10A     -1.630739    11A     -1.630175    12A     -1.177917
      13A     -1.070895    14A     -1.030503    15A     -0.962368
      16A     -0.864565    17A     -0.842668    18A     -0.753690
      19A     -0.740793    20A     -0.702277    21A     -0.701598
      22A     -0.694411    23A     -0.685827    24A     -0.663480
      25A     -0.604282    26A     -0.598707    27A     -0.592228
      28A     -0.558106    29A     -0.541578    30A     -0.521493
      31A     -0.501542    32A     -0.350895    33A     -0.347375

  @DF-RHF Final Energy:  -467.61074879501905

   => Energetics <=

    Nuclear Repulsion Energy =            420.1285002301993359
    One-Electron Energy =               -1474.7603611216366062
    Two-Electron Energy =                 587.0211120964182783
    Total Energy =                       -467.6107487950190489
  Basis Set: (AUG-CC-PVTZ AUX)
    Blend: AUG-CC-PVTZ-RI
    Molecular point group: c1

    Geometry (in Angstrom), charge = 0, multiplicity = 1:

       Center              X                  Y                   Z               Mass
    ------------   -----------------  -----------------  -----------------  -----------------
         F            1.313527662079     2.358046265539     0.002766785847    18.998403162730
         F            1.313533662079    -2.355762734461     0.002767785847    18.998403162730
         C           -1.459399337921     0.001139265539    -0.016638214153    12.000000000000
         C           -0.772883537921    -1.218983634461    -0.009072714153    12.000000000000
         C           -0.751697337921     1.209094265539    -0.008838214153    12.000000000000
         C           -2.965597337921     0.001137265539     0.012777785847    12.000000000000
         C            0.637000662079     1.181695265539     0.000894785847    12.000000000000
         C            0.637002662079    -1.179412734461     0.000893785847    12.000000000000
         C            1.368639662079     0.001141265539     0.007439785847    12.000000000000
         H           -1.264091337921    -2.164676734461    -0.017825214153     1.007825032230
         H           -1.264095337921     2.166955265539    -0.017824214153     1.007825032230
         H           -3.336541337921     0.001152265539     1.043204785847     1.007825032230
         H           -3.367680337921     0.886727265539    -0.486498214153     1.007825032230
         H           -3.367678337921    -0.884468734461    -0.486471214153     1.007825032230
         H            2.452734662079     0.001142265539     0.010429785847     1.007825032230

  Basis Set: AUG-CC-PVTZ
    Blend: AUG-CC-PVTZ
  Basis Set: (AUG-CC-PVTZ AUX)
    Blend: AUG-CC-PVTZ-JKFIT
	 Reference Energy          =    -467.6107487950190489 [Eh]
	 Singles Energy            =      -0.0000000000000000 [Eh]
	 Same-Spin Energy          =      -0.4450225550126835 [Eh]
	 Opposite-Spin Energy      =      -1.3529157300453913 [Eh]
	 Correlation Energy        =      -1.7979382850580747 [Eh]
	 Total Energy              =    -469.4086870800771294 [Eh]

	 ================> DF-SCS-MP2 Energies <==================
	-----------------------------------------------------------
	 SCS Same-Spin Scale       =       0.3333333333333333 [-]
	 SCS Opposite-Spin Scale   =       1.2000000000000000 [-]
	 SCS Same-Spin Energy      =      -0.1483408516708945 [Eh]
	 SCS Opposite-Spin Energy  =      -1.6234988760544695 [Eh]
	 SCS Correlation Energy    =      -1.7718397277253639 [Eh]
	 SCS Total Energy          =    -469.3825885227444132 [Eh]
	-----------------------------------------------------------

  Dipole Moment: [D]
     X:    -2.0156      Y:    -0.0137      Z:     0.0335     Total:     2.0159

*** Psi4 exiting successfully. Buy a developer a beer!
