                               Psi4 1.4a3.dev225

  ==> Input File <==

--------------------------------------------------------------------------
#psi4
#
memory 32 gb

molecule  {
0 1
  F        1.4077440     2.3569060     0.0024490
  F        1.4077500    -2.3569030     0.0024500
  C       -1.3651830    -0.0000010    -0.0169560
  C       -0.6574790    -1.2079560    -0.0091570
  C       -0.6574810     1.2079540    -0.0091560
  C       -2.8713810    -0.0000030     0.0124600
  C        0.7312170     1.1805550     0.0005770
  C        0.7312190    -1.1805530     0.0005760
  C        1.4628560     0.0000010     0.0071220
  H       -1.1698750    -2.1658170    -0.0181430
  H       -1.1698790     2.1658150    -0.0181420
  H       -3.2423250     0.0000120     1.0428870
  H       -3.2734640     0.8855870    -0.4868160
  H       -3.2734620    -0.8856090    -0.4867890
  H        2.4969512     0.0000020     0.0099741
units angstrom
no_reorient  #important for SAPT in psi4, default
symmetry c1  #important for SAPT in psi4, default
}

set PROPERTIES_ORIGIN ["COM"]
properties('MP2/aug-cc-pvtz', properties = ['dipole'])
--------------------------------------------------------------------------

    Molecular point group: c1
  Charge       = 0
  Multiplicity = 1
  Basis Set: AUG-CC-PVTZ
    Blend: AUG-CC-PVTZ
  Basis Set: (AUG-CC-PVTZ AUX)
    Blend: AUG-CC-PVTZ-JKFIT

    Orbital Energies [Eh]
    ---------------------

    Doubly Occupied:

       1A    -26.317198     2A    -26.317198     3A    -11.345784
       4A    -11.345779     5A    -11.274450     6A    -11.246222
       7A    -11.246189     8A    -11.246118     9A    -11.241798
      10A     -1.630521    11A     -1.629967    12A     -1.179874
      13A     -1.071778    14A     -1.032324    15A     -0.964753
      16A     -0.862949    17A     -0.845397    18A     -0.755312
      19A     -0.740854    20A     -0.705183    21A     -0.702263
      22A     -0.694392    23A     -0.687072    24A     -0.663593
      25A     -0.603339    26A     -0.603104    27A     -0.592757
      28A     -0.556053    29A     -0.540180    30A     -0.525274
      31A     -0.502847    32A     -0.350020    33A     -0.349388

  @DF-RHF Final Energy:  -467.61094512054314

   => Energetics <=

    Nuclear Repulsion Energy =            420.7812203136719518
    One-Electron Energy =               -1476.0444668067348175
    Two-Electron Energy =                 587.6523013725197870
    Total Energy =                       -467.6109451205431924
  Basis Set: (AUG-CC-PVTZ AUX)
    Blend: AUG-CC-PVTZ-RI
    Molecular point group: c1

    Geometry (in Angstrom), charge = 0, multiplicity = 1:

       Center              X                  Y                   Z               Mass
    ------------   -----------------  -----------------  -----------------  -----------------
         F            1.311935492687     2.356905914740     0.002745988105    18.998403162730
         F            1.311941492687    -2.356903085260     0.002746988105    18.998403162730
         C           -1.460991507313    -0.000001085260    -0.016659011895    12.000000000000
         C           -0.753287507313    -1.207956085260    -0.008860011895    12.000000000000
         C           -0.753289507313     1.207953914740    -0.008859011895    12.000000000000
         C           -2.967189507313    -0.000003085260     0.012756988105    12.000000000000
         C            0.635408492687     1.180554914740     0.000873988105    12.000000000000
         C            0.635410492687    -1.180553085260     0.000872988105    12.000000000000
         C            1.367047492687     0.000000914740     0.007418988105    12.000000000000
         H           -1.265683507313    -2.165817085260    -0.017846011895     1.007825032230
         H           -1.265687507313     2.165814914740    -0.017845011895     1.007825032230
         H           -3.338133507313     0.000011914740     1.043183988105     1.007825032230
         H           -3.369272507313     0.885586914740    -0.486519011895     1.007825032230
         H           -3.369270507313    -0.885609085260    -0.486492011895     1.007825032230
         H            2.401142692687     0.000001914740     0.010271088105     1.007825032230

  Basis Set: AUG-CC-PVTZ
    Blend: AUG-CC-PVTZ
  Basis Set: (AUG-CC-PVTZ AUX)
    Blend: AUG-CC-PVTZ-JKFIT
	 Reference Energy          =    -467.6109451205431355 [Eh]
	 Singles Energy            =      -0.0000000000000000 [Eh]
	 Same-Spin Energy          =      -0.4449630864362579 [Eh]
	 Opposite-Spin Energy      =      -1.3525246533394839 [Eh]
	 Correlation Energy        =      -1.7974877397757418 [Eh]
	 Total Energy              =    -469.4084328603188965 [Eh]

	 ================> DF-SCS-MP2 Energies <==================
	-----------------------------------------------------------
	 SCS Same-Spin Scale       =       0.3333333333333333 [-]
	 SCS Opposite-Spin Scale   =       1.2000000000000000 [-]
	 SCS Same-Spin Energy      =      -0.1483210288120859 [Eh]
	 SCS Opposite-Spin Energy  =      -1.6230295840073807 [Eh]
	 SCS Correlation Energy    =      -1.7713506128194667 [Eh]
	 SCS Total Energy          =    -469.3822957333625823 [Eh]
	-----------------------------------------------------------

  Dipole Moment: [D]
     X:    -2.0575      Y:     0.0000      Z:     0.0336     Total:     2.0578

*** Psi4 exiting successfully. Buy a developer a beer!
