                               Psi4 1.4a3.dev225

  ==> Input File <==

--------------------------------------------------------------------------
#psi4
#
memory 32 gb

molecule  {
0 1
  F        1.4077440     2.3569060     0.0024490
  F        1.4281765    -2.3449168     0.0026211
  C       -1.3651830    -0.0000010    -0.0169560
  C       -0.6574790    -1.2079560    -0.0091570
  C       -0.6574810     1.2079540    -0.0091560
  C       -2.8713810    -0.0000030     0.0124600
  C        0.7312170     1.1805550     0.0005770
  C        0.7312190    -1.1805530     0.0005760
  C        1.4628560     0.0000010     0.0071220
  H       -1.1698750    -2.1658170    -0.0181430
  H       -1.1698790     2.1658150    -0.0181420
  H       -3.2423250     0.0000120     1.0428870
  H       -3.2734640     0.8855870    -0.4868160
  H       -3.2734620    -0.8856090    -0.4867890
  H        2.5469510     0.0000020     0.0101120
units angstrom
no_reorient  #important for SAPT in psi4, default
symmetry c1  #important for SAPT in psi4, default
}

set PROPERTIES_ORIGIN ["COM"]
properties('MP2/aug-cc-pvtz', properties = ['dipole'])
--------------------------------------------------------------------------

    Molecular point group: c1
  Charge       = 0
  Multiplicity = 1
  Basis Set: AUG-CC-PVTZ
    Blend: AUG-CC-PVTZ
  Basis Set: (AUG-CC-PVTZ AUX)
    Blend: AUG-CC-PVTZ-JKFIT

    Orbital Energies [Eh]
    ---------------------

    Doubly Occupied:

       1A    -26.317054     2A    -26.316893     3A    -11.346007
       4A    -11.345778     5A    -11.274678     6A    -11.250965
       7A    -11.246960     8A    -11.246407     9A    -11.241954
      10A     -1.630324    11A     -1.629743    12A     -1.179763
      13A     -1.070536    14A     -1.032523    15A     -0.963213
      16A     -0.863210    17A     -0.843817    18A     -0.754556
      19A     -0.740677    20A     -0.702113    21A     -0.698317
      22A     -0.694172    23A     -0.687222    24A     -0.662628
      25A     -0.603156    26A     -0.598313    27A     -0.592787
      28A     -0.555628    29A     -0.540441    30A     -0.524654
      31A     -0.502920    32A     -0.349907    33A     -0.349639

  @DF-RHF Final Energy:  -467.61172486679737

   => Energetics <=

    Nuclear Repulsion Energy =            420.5104133602437173
    One-Electron Energy =               -1475.5303704899058630
    Two-Electron Energy =                 587.4082322628646580
    Total Energy =                       -467.6117248667974309
  Basis Set: (AUG-CC-PVTZ AUX)
    Blend: AUG-CC-PVTZ-RI
    Molecular point group: c1

    Geometry (in Angstrom), charge = 0, multiplicity = 1:

       Center              X                  Y                   Z               Mass
    ------------   -----------------  -----------------  -----------------  -----------------
         F            1.308511179435     2.355127470666     0.002719515859    18.998403162730
         F            1.328943679435    -2.346695329334     0.002891615859    18.998403162730
         C           -1.464415820565    -0.001779529334    -0.016685484141    12.000000000000
         C           -0.756711820565    -1.209734529334    -0.008886484141    12.000000000000
         C           -0.756713820565     1.206175470666    -0.008885484141    12.000000000000
         C           -2.970613820565    -0.001781529334     0.012730515859    12.000000000000
         C            0.631984179435     1.178776470666     0.000847515859    12.000000000000
         C            0.631986179435    -1.182331529334     0.000846515859    12.000000000000
         C            1.363623179435    -0.001777529334     0.007392515859    12.000000000000
         H           -1.269107820565    -2.167595529334    -0.017872484141     1.007825032230
         H           -1.269111820565     2.164036470666    -0.017871484141     1.007825032230
         H           -3.341557820565    -0.001766529334     1.043157515859     1.007825032230
         H           -3.372696820565     0.883808470666    -0.486545484141     1.007825032230
         H           -3.372694820565    -0.887387529334    -0.486518484141     1.007825032230
         H            2.447718179435    -0.001776529334     0.010382515859     1.007825032230

  Basis Set: AUG-CC-PVTZ
    Blend: AUG-CC-PVTZ
  Basis Set: (AUG-CC-PVTZ AUX)
    Blend: AUG-CC-PVTZ-JKFIT
	 Reference Energy          =    -467.6117248667973740 [Eh]
	 Singles Energy            =      -0.0000000000000000 [Eh]
	 Same-Spin Energy          =      -0.4450710780626044 [Eh]
	 Opposite-Spin Energy      =      -1.3527872373835459 [Eh]
	 Correlation Energy        =      -1.7978583154461503 [Eh]
	 Total Energy              =    -469.4095831822435230 [Eh]

	 ================> DF-SCS-MP2 Energies <==================
	-----------------------------------------------------------
	 SCS Same-Spin Scale       =       0.3333333333333333 [-]
	 SCS Opposite-Spin Scale   =       1.2000000000000000 [-]
	 SCS Same-Spin Energy      =      -0.1483570260208681 [Eh]
	 SCS Opposite-Spin Energy  =      -1.6233446848602551 [Eh]
	 SCS Correlation Energy    =      -1.7717017108811233 [Eh]
	 SCS Total Energy          =    -469.3834265776785060 [Eh]
	-----------------------------------------------------------

  Dipole Moment: [D]
     X:    -2.0663      Y:    -0.0106      Z:     0.0334     Total:     2.0666

*** Psi4 exiting successfully. Buy a developer a beer!
