                               Psi4 1.4a3.dev225

  ==> Input File <==

--------------------------------------------------------------------------
#psi4
#
memory 32 gb

molecule  {
0 1
  F        1.4077440     2.3569060     0.0024490
  F        1.4077500    -2.3569030     0.0024500
  C       -1.3651830    -0.0000010    -0.0169560
  C       -0.6574790    -1.2079560    -0.0091570
  C       -0.6574810     1.2079540    -0.0091560
  C       -2.8213905    -0.0000029     0.0114837
  C        0.7312170     1.1805550     0.0005770
  C        0.7312190    -1.1805530     0.0005760
  C        1.4628560     0.0000010     0.0071220
  H       -1.1698750    -2.1658170    -0.0181430
  H       -1.1698790     2.1658150    -0.0181420
  H       -3.2423250     0.0000120     1.0428870
  H       -3.2734640     0.8855870    -0.4868160
  H       -3.2734620    -0.8856090    -0.4867890
  H        2.5469510     0.0000020     0.0101120
units angstrom
no_reorient  #important for SAPT in psi4, default
symmetry c1  #important for SAPT in psi4, default
}

set PROPERTIES_ORIGIN ["COM"]
properties('MP2/aug-cc-pvtz', properties = ['dipole'])
--------------------------------------------------------------------------

    Molecular point group: c1
  Charge       = 0
  Multiplicity = 1
  Basis Set: AUG-CC-PVTZ
    Blend: AUG-CC-PVTZ
  Basis Set: (AUG-CC-PVTZ AUX)
    Blend: AUG-CC-PVTZ-JKFIT

    Orbital Energies [Eh]
    ---------------------

    Doubly Occupied:

       1A    -26.317227     2A    -26.317226     3A    -11.346192
       4A    -11.346187     5A    -11.272287     6A    -11.251700
       7A    -11.246510     8A    -11.246471     9A    -11.243484
      10A     -1.630534    11A     -1.629986    12A     -1.181766
      13A     -1.076197    14A     -1.032848    15A     -0.962820
      16A     -0.863702    17A     -0.842830    18A     -0.755189
      19A     -0.741613    20A     -0.702344    21A     -0.698638
      22A     -0.694415    23A     -0.687783    24A     -0.663987
      25A     -0.605576    26A     -0.602691    27A     -0.588265
      28A     -0.554944    29A     -0.532484    30A     -0.531171
      31A     -0.500412    32A     -0.349799    33A     -0.348737

  @DF-RHF Final Energy:  -467.60846079220318

   => Energetics <=

    Nuclear Repulsion Energy =            421.3745562691758550
    One-Electron Energy =               -1477.2340024354771231
    Two-Electron Energy =                 588.2509853740980361
    Total Energy =                       -467.6084607922032319
  Basis Set: (AUG-CC-PVTZ AUX)
    Blend: AUG-CC-PVTZ-RI
    Molecular point group: c1

    Geometry (in Angstrom), charge = 0, multiplicity = 1:

       Center              X                  Y                   Z               Mass
    ------------   -----------------  -----------------  -----------------  -----------------
         F            1.306856939326     2.356905905369     0.002836399549    18.998403162730
         F            1.306862939326    -2.356903094631     0.002837399549    18.998403162730
         C           -1.466070060674    -0.000001094631    -0.016568600451    12.000000000000
         C           -0.758366060674    -1.207956094631    -0.008769600451    12.000000000000
         C           -0.758368060674     1.207953905369    -0.008768600451    12.000000000000
         C           -2.922277560674    -0.000002994631     0.011871099549    12.000000000000
         C            0.630329939326     1.180554905369     0.000964399549    12.000000000000
         C            0.630331939326    -1.180553094631     0.000963399549    12.000000000000
         C            1.361968939326     0.000000905369     0.007509399549    12.000000000000
         H           -1.270762060674    -2.165817094631    -0.017755600451     1.007825032230
         H           -1.270766060674     2.165814905369    -0.017754600451     1.007825032230
         H           -3.343212060674     0.000011905369     1.043274399549     1.007825032230
         H           -3.374351060674     0.885586905369    -0.486428600451     1.007825032230
         H           -3.374349060674    -0.885609094631    -0.486401600451     1.007825032230
         H            2.446063939326     0.000001905369     0.010499399549     1.007825032230

  Basis Set: AUG-CC-PVTZ
    Blend: AUG-CC-PVTZ
  Basis Set: (AUG-CC-PVTZ AUX)
    Blend: AUG-CC-PVTZ-JKFIT
	 Reference Energy          =    -467.6084607922031751 [Eh]
	 Singles Energy            =      -0.0000000000000000 [Eh]
	 Same-Spin Energy          =      -0.4455986442106803 [Eh]
	 Opposite-Spin Energy      =      -1.3533550750823602 [Eh]
	 Correlation Energy        =      -1.7989537192930405 [Eh]
	 Total Energy              =    -469.4074145114961993 [Eh]

	 ================> DF-SCS-MP2 Energies <==================
	-----------------------------------------------------------
	 SCS Same-Spin Scale       =       0.3333333333333333 [-]
	 SCS Opposite-Spin Scale   =       1.2000000000000000 [-]
	 SCS Same-Spin Energy      =      -0.1485328814035601 [Eh]
	 SCS Opposite-Spin Energy  =      -1.6240260900988321 [Eh]
	 SCS Correlation Energy    =      -1.7725589715023922 [Eh]
	 SCS Total Energy          =    -469.3810197637055808 [Eh]
	-----------------------------------------------------------

  Dipole Moment: [D]
     X:    -2.0495      Y:     0.0000      Z:     0.0358     Total:     2.0498

*** Psi4 exiting successfully. Buy a developer a beer!
