                               Psi4 1.4a3.dev225

  ==> Input File <==

--------------------------------------------------------------------------
#psi4
#
memory 32 gb

molecule  {
0 1
  F        1.4077440     2.3569060     0.0024490
  F        1.4077500    -2.3569030     0.0024500
  C       -1.3651830    -0.0000010    -0.0169560
  C       -0.7876139    -1.2753184    -0.0105912
  C       -0.6574810     1.2079540    -0.0091560
  C       -2.8713810    -0.0000030     0.0124600
  C        0.7312170     1.1805550     0.0005770
  C        0.7312190    -1.1805530     0.0005760
  C        1.4628560     0.0000010     0.0071220
  H       -1.1698750    -2.1658170    -0.0181430
  H       -1.1698790     2.1658150    -0.0181420
  H       -3.2423250     0.0000120     1.0428870
  H       -3.2734640     0.8855870    -0.4868160
  H       -3.2734620    -0.8856090    -0.4867890
  H        2.5469510     0.0000020     0.0101120
units angstrom
no_reorient  #important for SAPT in psi4, default
symmetry c1  #important for SAPT in psi4, default
}

set PROPERTIES_ORIGIN ["COM"]
properties('MP2/aug-cc-pvtz', properties = ['dipole'])
--------------------------------------------------------------------------

    Molecular point group: c1
  Charge       = 0
  Multiplicity = 1
  Basis Set: AUG-CC-PVTZ
    Blend: AUG-CC-PVTZ
  Basis Set: (AUG-CC-PVTZ AUX)
    Blend: AUG-CC-PVTZ-JKFIT

    Orbital Energies [Eh]
    ---------------------

    Doubly Occupied:

       1A    -26.320110     2A    -26.318885     3A    -11.360825
       4A    -11.350786     5A    -11.275556     6A    -11.253088
       7A    -11.251061     8A    -11.246053     9A    -11.237071
      10A     -1.632983    11A     -1.631488    12A     -1.170949
      13A     -1.073713    14A     -1.022652    15A     -0.958072
      16A     -0.873061    17A     -0.837652    18A     -0.752672
      19A     -0.740071    20A     -0.721121    21A     -0.703000
      22A     -0.694998    23A     -0.679678    24A     -0.666154
      25A     -0.613837    26A     -0.598390    27A     -0.590288
      28A     -0.567422    29A     -0.543007    30A     -0.501534
      31A     -0.495859    32A     -0.355736    33A     -0.337946

  @DF-RHF Final Energy:  -467.58181567355882

   => Energetics <=

    Nuclear Repulsion Energy =            418.3716426390263337
    One-Electron Energy =               -1471.1554779319717454
    Two-Electron Energy =                 585.2020196193866468
    Total Energy =                       -467.5818156735588218
  Basis Set: (AUG-CC-PVTZ AUX)
    Blend: AUG-CC-PVTZ-RI
    Molecular point group: c1

    Geometry (in Angstrom), charge = 0, multiplicity = 1:

       Center              X                  Y                   Z               Mass
    ------------   -----------------  -----------------  -----------------  -----------------
         F            1.323737924848     2.363218981632     0.002879313005    18.998403162730
         F            1.323743924848    -2.350590018368     0.002880313005    18.998403162730
         C           -1.449189075152     0.006311981632    -0.016525686995    12.000000000000
         C           -0.871619975152    -1.269005418368    -0.010160886995    12.000000000000
         C           -0.741487075152     1.214266981632    -0.008725686995    12.000000000000
         C           -2.955387075152     0.006309981632     0.012890313005    12.000000000000
         C            0.647210924848     1.186867981632     0.001007313005    12.000000000000
         C            0.647212924848    -1.174240018368     0.001006313005    12.000000000000
         C            1.378849924848     0.006313981632     0.007552313005    12.000000000000
         H           -1.253881075152    -2.159504018368    -0.017712686995     1.007825032230
         H           -1.253885075152     2.172127981632    -0.017711686995     1.007825032230
         H           -3.326331075152     0.006324981632     1.043317313005     1.007825032230
         H           -3.357470075152     0.891899981632    -0.486385686995     1.007825032230
         H           -3.357468075152    -0.879296018368    -0.486358686995     1.007825032230
         H            2.462944924848     0.006314981632     0.010542313005     1.007825032230

  Basis Set: AUG-CC-PVTZ
    Blend: AUG-CC-PVTZ
  Basis Set: (AUG-CC-PVTZ AUX)
    Blend: AUG-CC-PVTZ-JKFIT
	 Reference Energy          =    -467.5818156735588218 [Eh]
	 Singles Energy            =      -0.0000000000000000 [Eh]
	 Same-Spin Energy          =      -0.4450552819318286 [Eh]
	 Opposite-Spin Energy      =      -1.3548180796453313 [Eh]
	 Correlation Energy        =      -1.7998733615771600 [Eh]
	 Total Energy              =    -469.3816890351359916 [Eh]

	 ================> DF-SCS-MP2 Energies <==================
	-----------------------------------------------------------
	 SCS Same-Spin Scale       =       0.3333333333333333 [-]
	 SCS Opposite-Spin Scale   =       1.2000000000000000 [-]
	 SCS Same-Spin Energy      =      -0.1483517606439429 [Eh]
	 SCS Opposite-Spin Energy  =      -1.6257816955743976 [Eh]
	 SCS Correlation Energy    =      -1.7741334562183404 [Eh]
	 SCS Total Energy          =    -469.3559491297771729 [Eh]
	-----------------------------------------------------------

  Dipole Moment: [D]
     X:    -1.8730      Y:    -0.0544      Z:     0.0331     Total:     1.8740

*** Psi4 exiting successfully. Buy a developer a beer!
