                               Psi4 1.4a3.dev225

  ==> Input File <==

--------------------------------------------------------------------------
#psi4
#
memory 32 gb

molecule  {
0 1
  F        1.4077440     2.3569060     0.0024490
  F        1.4077500    -2.3569030     0.0024500
  C       -1.3651830    -0.0000010    -0.0169560
  C       -0.6069295    -1.2942372    -0.0085999
  C       -0.6574810     1.2079540    -0.0091560
  C       -2.8713810    -0.0000030     0.0124600
  C        0.7312170     1.1805550     0.0005770
  C        0.7312190    -1.1805530     0.0005760
  C        1.4628560     0.0000010     0.0071220
  H       -1.1698750    -2.1658170    -0.0181430
  H       -1.1698790     2.1658150    -0.0181420
  H       -3.2423250     0.0000120     1.0428870
  H       -3.2734640     0.8855870    -0.4868160
  H       -3.2734620    -0.8856090    -0.4867890
  H        2.5469510     0.0000020     0.0101120
units angstrom
no_reorient  #important for SAPT in psi4, default
symmetry c1  #important for SAPT in psi4, default
}

set PROPERTIES_ORIGIN ["COM"]
properties('MP2/aug-cc-pvtz', properties = ['dipole'])
--------------------------------------------------------------------------

    Molecular point group: c1
  Charge       = 0
  Multiplicity = 1
  Basis Set: AUG-CC-PVTZ
    Blend: AUG-CC-PVTZ
  Basis Set: (AUG-CC-PVTZ AUX)
    Blend: AUG-CC-PVTZ-JKFIT

    Orbital Energies [Eh]
    ---------------------

    Doubly Occupied:

       1A    -26.318326     2A    -26.309187     3A    -11.348091
       4A    -11.339506     5A    -11.285869     6A    -11.250512
       7A    -11.247656     8A    -11.245281     9A    -11.243826
      10A     -1.631292    11A     -1.625295    12A     -1.174662
      13A     -1.065974    14A     -1.039001    15A     -0.964757
      16A     -0.862491    17A     -0.839956    18A     -0.752028
      19A     -0.738917    20A     -0.706166    21A     -0.701345
      22A     -0.691856    23A     -0.686304    24A     -0.661233
      25A     -0.601461    26A     -0.596439    27A     -0.592091
      28A     -0.567719    29A     -0.538329    30A     -0.519614
      31A     -0.500866    32A     -0.357688    33A     -0.340016

  @DF-RHF Final Energy:  -467.60065258487873

   => Energetics <=

    Nuclear Repulsion Energy =            419.8286393018425997
    One-Electron Energy =               -1474.1710726314208841
    Two-Electron Energy =                 586.7417807446996676
    Total Energy =                       -467.6006525848787305
  Basis Set: (AUG-CC-PVTZ AUX)
    Blend: AUG-CC-PVTZ-RI
    Molecular point group: c1

    Geometry (in Angstrom), charge = 0, multiplicity = 1:

       Center              X                  Y                   Z               Mass
    ------------   -----------------  -----------------  -----------------  -----------------
         F            1.306804550985     2.364992013025     0.002692692425    18.998403162730
         F            1.306810550985    -2.348816986975     0.002693692425    18.998403162730
         C           -1.466122449015     0.008085013025    -0.016712307575    12.000000000000
         C           -0.707868949015    -1.286151186975    -0.008356207575    12.000000000000
         C           -0.758420449015     1.216040013025    -0.008912307575    12.000000000000
         C           -2.972320449015     0.008083013025     0.012703692425    12.000000000000
         C            0.630277550985     1.188641013025     0.000820692425    12.000000000000
         C            0.630279550985    -1.172466986975     0.000819692425    12.000000000000
         C            1.361916550985     0.008087013025     0.007365692425    12.000000000000
         H           -1.270814449015    -2.157730986975    -0.017899307575     1.007825032230
         H           -1.270818449015     2.173901013025    -0.017898307575     1.007825032230
         H           -3.343264449015     0.008098013025     1.043130692425     1.007825032230
         H           -3.374403449015     0.893673013025    -0.486572307575     1.007825032230
         H           -3.374401449015    -0.877522986975    -0.486545307575     1.007825032230
         H            2.446011550985     0.008088013025     0.010355692425     1.007825032230

  Basis Set: AUG-CC-PVTZ
    Blend: AUG-CC-PVTZ
  Basis Set: (AUG-CC-PVTZ AUX)
    Blend: AUG-CC-PVTZ-JKFIT
	 Reference Energy          =    -467.6006525848787305 [Eh]
	 Singles Energy            =      -0.0000000000000000 [Eh]
	 Same-Spin Energy          =      -0.4446725049740730 [Eh]
	 Opposite-Spin Energy      =      -1.3528987994197150 [Eh]
	 Correlation Energy        =      -1.7975713043937880 [Eh]
	 Total Energy              =    -469.3982238892725150 [Eh]

	 ================> DF-SCS-MP2 Energies <==================
	-----------------------------------------------------------
	 SCS Same-Spin Scale       =       0.3333333333333333 [-]
	 SCS Opposite-Spin Scale   =       1.2000000000000000 [-]
	 SCS Same-Spin Energy      =      -0.1482241683246910 [Eh]
	 SCS Opposite-Spin Energy  =      -1.6234785593036580 [Eh]
	 SCS Correlation Energy    =      -1.7717027276283490 [Eh]
	 SCS Total Energy          =    -469.3723553125070680 [Eh]
	-----------------------------------------------------------

  Dipole Moment: [D]
     X:    -2.1421      Y:     0.1037      Z:     0.0357     Total:     2.1449

*** Psi4 exiting successfully. Buy a developer a beer!
