                               Psi4 1.4a3.dev225

  ==> Input File <==

--------------------------------------------------------------------------
#psi4
#
memory 32 gb

molecule  {
0 1
  F        1.3240398     2.4012325     0.0018674
  F        1.4077500    -2.3569030     0.0024500
  C       -1.3651830    -0.0000010    -0.0169560
  C       -0.6574790    -1.2079560    -0.0091570
  C       -0.6574810     1.2079540    -0.0091560
  C       -2.8713810    -0.0000030     0.0124600
  C        0.7312170     1.1805550     0.0005770
  C        0.7312190    -1.1805530     0.0005760
  C        1.4628560     0.0000010     0.0071220
  H       -1.1698750    -2.1658170    -0.0181430
  H       -1.1698790     2.1658150    -0.0181420
  H       -3.2423250     0.0000120     1.0428870
  H       -3.2734640     0.8855870    -0.4868160
  H       -3.2734620    -0.8856090    -0.4867890
  H        2.5469510     0.0000020     0.0101120
units angstrom
no_reorient  #important for SAPT in psi4, default
symmetry c1  #important for SAPT in psi4, default
}

set PROPERTIES_ORIGIN ["COM"]
properties('MP2/aug-cc-pvtz', properties = ['dipole'])
--------------------------------------------------------------------------

    Molecular point group: c1
  Charge       = 0
  Multiplicity = 1
  Basis Set: AUG-CC-PVTZ
    Blend: AUG-CC-PVTZ
  Basis Set: (AUG-CC-PVTZ AUX)
    Blend: AUG-CC-PVTZ-JKFIT

    Orbital Energies [Eh]
    ---------------------

    Doubly Occupied:

       1A    -26.317699     2A    -26.316993     3A    -11.346834
       4A    -11.346021     5A    -11.273421     6A    -11.253816
       7A    -11.246339     8A    -11.244147     9A    -11.241231
      10A     -1.630774    11A     -1.630100    12A     -1.179631
      13A     -1.070710    14A     -1.032229    15A     -0.963000
      16A     -0.862179    17A     -0.845095    18A     -0.753888
      19A     -0.741374    20A     -0.702467    21A     -0.699230
      22A     -0.694653    23A     -0.686845    24A     -0.662018
      25A     -0.602925    26A     -0.598520    27A     -0.592176
      28A     -0.558112    29A     -0.539314    30A     -0.522306
      31A     -0.503032    32A     -0.350793    33A     -0.348598

  @DF-RHF Final Energy:  -467.61060005575990

   => Energetics <=

    Nuclear Repulsion Energy =            420.5543050460531163
    One-Electron Energy =               -1475.6168696219619960
    Two-Electron Energy =                 587.4519645201489766
    Total Energy =                       -467.6106000557599600
  Basis Set: (AUG-CC-PVTZ AUX)
    Blend: AUG-CC-PVTZ-RI
    Molecular point group: c1

    Geometry (in Angstrom), charge = 0, multiplicity = 1:

       Center              X                  Y                   Z               Mass
    ------------   -----------------  -----------------  -----------------  -----------------
         F            1.240257299498     2.394655501186     0.002249597197    18.998403162730
         F            1.323967499498    -2.363479998814     0.002832197197    18.998403162730
         C           -1.448965500502    -0.006577998814    -0.016573802803    12.000000000000
         C           -0.741261500502    -1.214532998814    -0.008774802803    12.000000000000
         C           -0.741263500502     1.201377001186    -0.008773802803    12.000000000000
         C           -2.955163500502    -0.006579998814     0.012842197197    12.000000000000
         C            0.647434499498     1.173978001186     0.000959197197    12.000000000000
         C            0.647436499498    -1.187129998814     0.000958197197    12.000000000000
         C            1.379073499498    -0.006575998814     0.007504197197    12.000000000000
         H           -1.253657500502    -2.172393998814    -0.017760802803     1.007825032230
         H           -1.253661500502     2.159238001186    -0.017759802803     1.007825032230
         H           -3.326107500502    -0.006564998814     1.043269197197     1.007825032230
         H           -3.357246500502     0.879010001186    -0.486433802803     1.007825032230
         H           -3.357244500502    -0.892185998814    -0.486406802803     1.007825032230
         H            2.463168499498    -0.006574998814     0.010494197197     1.007825032230

  Basis Set: AUG-CC-PVTZ
    Blend: AUG-CC-PVTZ
  Basis Set: (AUG-CC-PVTZ AUX)
    Blend: AUG-CC-PVTZ-JKFIT
	 Reference Energy          =    -467.6106000557599032 [Eh]
	 Singles Energy            =      -0.0000000000000000 [Eh]
	 Same-Spin Energy          =      -0.4450901869844638 [Eh]
	 Opposite-Spin Energy      =      -1.3528523702900443 [Eh]
	 Correlation Energy        =      -1.7979425572745082 [Eh]
	 Total Energy              =    -469.4085426130343990 [Eh]

	 ================> DF-SCS-MP2 Energies <==================
	-----------------------------------------------------------
	 SCS Same-Spin Scale       =       0.3333333333333333 [-]
	 SCS Opposite-Spin Scale   =       1.2000000000000000 [-]
	 SCS Same-Spin Energy      =      -0.1483633956614879 [Eh]
	 SCS Opposite-Spin Energy  =      -1.6234228443480532 [Eh]
	 SCS Correlation Energy    =      -1.7717862400095412 [Eh]
	 SCS Total Energy          =    -469.3823862957694359 [Eh]
	-----------------------------------------------------------

  Dipole Moment: [D]
     X:    -1.9579      Y:    -0.0351      Z:     0.0344     Total:     1.9585

*** Psi4 exiting successfully. Buy a developer a beer!
