                               Psi4 1.4a3.dev225

  ==> Input File <==

--------------------------------------------------------------------------
#psi4
#
memory 32 gb

molecule  {
0 1
  F        1.4077440     2.3569060     0.0024490
  F        1.4077500    -2.3569030     0.0024500
  C       -1.3225996    -0.0239649    -0.0163106
  C       -0.6574790    -1.2079560    -0.0091570
  C       -0.6574810     1.2079540    -0.0091560
  C       -2.8713810    -0.0000030     0.0124600
  C        0.7312170     1.1805550     0.0005770
  C        0.7312190    -1.1805530     0.0005760
  C        1.4628560     0.0000010     0.0071220
  H       -1.1698750    -2.1658170    -0.0181430
  H       -1.1698790     2.1658150    -0.0181420
  H       -3.2423250     0.0000120     1.0428870
  H       -3.2734640     0.8855870    -0.4868160
  H       -3.2734620    -0.8856090    -0.4867890
  H        2.5469510     0.0000020     0.0101120
units angstrom
no_reorient  #important for SAPT in psi4, default
symmetry c1  #important for SAPT in psi4, default
}

set PROPERTIES_ORIGIN ["COM"]
properties('MP2/aug-cc-pvtz', properties = ['dipole'])
--------------------------------------------------------------------------

    Molecular point group: c1
  Charge       = 0
  Multiplicity = 1
  Basis Set: AUG-CC-PVTZ
    Blend: AUG-CC-PVTZ
  Basis Set: (AUG-CC-PVTZ AUX)
    Blend: AUG-CC-PVTZ-JKFIT

    Orbital Energies [Eh]
    ---------------------

    Doubly Occupied:

       1A    -26.317712     2A    -26.316700     3A    -11.347000
       4A    -11.345709     5A    -11.271055     6A    -11.251489
       7A    -11.246089     8A    -11.243094     9A    -11.242347
      10A     -1.630896    11A     -1.629832    12A     -1.184021
      13A     -1.067062    14A     -1.035241    15A     -0.959252
      16A     -0.865410    17A     -0.845164    18A     -0.754099
      19A     -0.742190    20A     -0.702478    21A     -0.700720
      22A     -0.694392    23A     -0.686627    24A     -0.662182
      25A     -0.603439    26A     -0.595412    27A     -0.588717
      28A     -0.558178    29A     -0.547198    30A     -0.511606
      31A     -0.506234    32A     -0.355759    33A     -0.348718

  @DF-RHF Final Energy:  -467.60987133425675

   => Energetics <=

    Nuclear Repulsion Energy =            421.0062322097996343
    One-Electron Energy =               -1476.5201628642250853
    Two-Electron Energy =                 587.9040593201686988
    Total Energy =                       -467.6098713342566953
  Basis Set: (AUG-CC-PVTZ AUX)
    Blend: AUG-CC-PVTZ-RI
    Molecular point group: c1

    Geometry (in Angstrom), charge = 0, multiplicity = 1:

       Center              X                  Y                   Z               Mass
    ------------   -----------------  -----------------  -----------------  -----------------
         F            1.307551117647     2.359151762627     0.002684417129    18.998403162730
         F            1.307557117647    -2.354657237373     0.002685417129    18.998403162730
         C           -1.422792482353    -0.021719137373    -0.016075182871    12.000000000000
         C           -0.757671882353    -1.205710237373    -0.008921582871    12.000000000000
         C           -0.757673882353     1.210199762627    -0.008920582871    12.000000000000
         C           -2.971573882353     0.002242762627     0.012695417129    12.000000000000
         C            0.631024117647     1.182800762627     0.000812417129    12.000000000000
         C            0.631026117647    -1.178307237373     0.000811417129    12.000000000000
         C            1.362663117647     0.002246762627     0.007357417129    12.000000000000
         H           -1.270067882353    -2.163571237373    -0.017907582871     1.007825032230
         H           -1.270071882353     2.168060762627    -0.017906582871     1.007825032230
         H           -3.342517882353     0.002257762627     1.043122417129     1.007825032230
         H           -3.373656882353     0.887832762627    -0.486580582871     1.007825032230
         H           -3.373654882353    -0.883363237373    -0.486553582871     1.007825032230
         H            2.446758117647     0.002247762627     0.010347417129     1.007825032230

  Basis Set: AUG-CC-PVTZ
    Blend: AUG-CC-PVTZ
  Basis Set: (AUG-CC-PVTZ AUX)
    Blend: AUG-CC-PVTZ-JKFIT
	 Reference Energy          =    -467.6098713342567521 [Eh]
	 Singles Energy            =      -0.0000000000000000 [Eh]
	 Same-Spin Energy          =      -0.4447749526683764 [Eh]
	 Opposite-Spin Energy      =      -1.3524106800861793 [Eh]
	 Correlation Energy        =      -1.7971856327545557 [Eh]
	 Total Energy              =    -469.4070569670113287 [Eh]

	 ================> DF-SCS-MP2 Energies <==================
	-----------------------------------------------------------
	 SCS Same-Spin Scale       =       0.3333333333333333 [-]
	 SCS Opposite-Spin Scale   =       1.2000000000000000 [-]
	 SCS Same-Spin Energy      =      -0.1482583175561255 [Eh]
	 SCS Opposite-Spin Energy  =      -1.6228928161034151 [Eh]
	 SCS Correlation Energy    =      -1.7711511336595405 [Eh]
	 SCS Total Energy          =    -469.3810224679162957 [Eh]
	-----------------------------------------------------------

  Dipole Moment: [D]
     X:    -1.9717      Y:    -0.0187      Z:     0.0291     Total:     1.9720

*** Psi4 exiting successfully. Buy a developer a beer!
