                               Psi4 1.4a3.dev225

  ==> Input File <==

--------------------------------------------------------------------------
#psi4
#
memory 32 gb

molecule  {
0 1
  C       -0.4426020    -0.8338200     0.2172010
  C       -2.7550300    -0.2335230    -0.2686280
  C       -1.3727340    -0.3393290    -0.9144000
  C       -1.1456910    -0.3766540     1.5340440
  C       -2.4139240     0.3715680     1.0951880
  C        0.9762580    -0.3476150     0.0696660
  C       -3.7696470     0.5602740    -1.0788290
  C        1.2742196     0.9996047     0.1751278
  C        2.0223850    -1.2394820    -0.1958260
  C        2.5868840     1.4777510     0.0263980
  C        3.3346800    -0.7855870    -0.3490730
  C        3.6209360     0.5756970    -0.2390260
  H       -0.4241810    -1.9311060     0.1924250
  H       -3.1414670    -1.2511910    -0.1070860
  H       -1.0573430     0.6588960    -1.2471640
  H       -1.3450850    -0.9967850    -1.7909970
  H       -0.4862050     0.2392810     2.1528250
  H       -1.4122900    -1.2543580     2.1330320
  H       -3.2323950     0.2935880     1.8197160
  H       -2.2008590     1.4410770     0.9595580
  H       -3.4037750     1.5784440    -1.2516650
  H       -3.9506210     0.0965540    -2.0538340
  H       -4.7289130     0.6299820    -0.5557020
  H        0.4812350     1.7322070     0.3831320
  H        1.8065840    -2.3037040    -0.2799060
  H        2.8010350     2.5405970     0.1152150
  H        4.1326410    -1.4960120    -0.5534930
  H        4.6413930     0.9324010    -0.3562540
units angstrom
no_reorient  #important for SAPT in psi4, default
symmetry c1  #important for SAPT in psi4, default
}

set PROPERTIES_ORIGIN ["COM"]
properties('MP2/aug-cc-pvtz', properties = ['dipole'])
--------------------------------------------------------------------------

    Molecular point group: c1
  Charge       = 0
  Multiplicity = 1
  Basis Set: AUG-CC-PVTZ
    Blend: AUG-CC-PVTZ
  Basis Set: (AUG-CC-PVTZ AUX)
    Blend: AUG-CC-PVTZ-JKFIT

    Orbital Energies [Eh]
    ---------------------

    Doubly Occupied:

       1A    -11.234595     2A    -11.234172     3A    -11.232702
       4A    -11.229098     5A    -11.228464     6A    -11.228198
       7A    -11.228096     8A    -11.221027     9A    -11.216503
      10A    -11.214705    11A    -11.214559    12A    -11.211474
      13A     -1.157169    14A     -1.124748    15A     -1.040353
      16A     -1.006920    17A     -0.988976    18A     -0.954056
      19A     -0.892481    20A     -0.826340    21A     -0.816872
      22A     -0.763497    23A     -0.757164    24A     -0.689440
      25A     -0.660203    26A     -0.634787    27A     -0.622244
      28A     -0.606603    29A     -0.586336    30A     -0.579388
      31A     -0.572833    32A     -0.556139    33A     -0.528180
      34A     -0.510881    35A     -0.509293    36A     -0.491543
      37A     -0.475065    38A     -0.463140    39A     -0.460673
      40A     -0.453754    41A     -0.450426    42A     -0.443511
      43A     -0.330901    44A     -0.320988

  @DF-RHF Final Energy:  -463.89393597232765

   => Energetics <=

    Nuclear Repulsion Energy =            676.2246439766626054
    One-Electron Energy =               -1968.3001701678749669
    Two-Electron Energy =                 828.1815902188845939
    Total Energy =                       -463.8939359723276539
  Basis Set: (AUG-CC-PVTZ AUX)
    Blend: AUG-CC-PVTZ-RI
    Molecular point group: c1

    Geometry (in Angstrom), charge = 0, multiplicity = 1:

       Center              X                  Y                   Z               Mass
    ------------   -----------------  -----------------  -----------------  -----------------
         C           -0.513661538830    -0.826723098160     0.214587601015    12.000000000000
         C           -2.826089538830    -0.226426098160    -0.271241398985    12.000000000000
         C           -1.443793538830    -0.332232098160    -0.917013398985    12.000000000000
         C           -1.216750538830    -0.369557098160     1.531430601015    12.000000000000
         C           -2.484983538830     0.378664901840     1.092574601015    12.000000000000
         C            0.905198461170    -0.340518098160     0.067052601015    12.000000000000
         C           -3.840706538830     0.567370901840    -1.081442398985    12.000000000000
         C            1.203160061170     1.006701601840     0.172514401015    12.000000000000
         C            1.951325461170    -1.232385098160    -0.198439398985    12.000000000000
         C            2.515824461170     1.484847901840     0.023784601015    12.000000000000
         C            3.263620461170    -0.778490098160    -0.351686398985    12.000000000000
         C            3.549876461170     0.582793901840    -0.241639398985    12.000000000000
         H           -0.495240538830    -1.924009098160     0.189811601015     1.007825032230
         H           -3.212526538830    -1.244094098160    -0.109699398985     1.007825032230
         H           -1.128402538830     0.665992901840    -1.249777398985     1.007825032230
         H           -1.416144538830    -0.989688098160    -1.793610398985     1.007825032230
         H           -0.557264538830     0.246377901840     2.150211601015     1.007825032230
         H           -1.483349538830    -1.247261098160     2.130418601015     1.007825032230
         H           -3.303454538830     0.300684901840     1.817102601015     1.007825032230
         H           -2.271918538830     1.448173901840     0.956944601015     1.007825032230
         H           -3.474834538830     1.585540901840    -1.254278398985     1.007825032230
         H           -4.021680538830     0.103650901840    -2.056447398985     1.007825032230
         H           -4.799972538830     0.637078901840    -0.558315398985     1.007825032230
         H            0.410175461170     1.739303901840     0.380518601015     1.007825032230
         H            1.735524461170    -2.296607098160    -0.282519398985     1.007825032230
         H            2.729975461170     2.547693901840     0.112601601015     1.007825032230
         H            4.061581461170    -1.488915098160    -0.556106398985     1.007825032230
         H            4.570333461170     0.939497901840    -0.358867398985     1.007825032230

  Basis Set: AUG-CC-PVTZ
    Blend: AUG-CC-PVTZ
  Basis Set: (AUG-CC-PVTZ AUX)
    Blend: AUG-CC-PVTZ-JKFIT
	 Reference Energy          =    -463.8939359723276539 [Eh]
	 Singles Energy            =      -0.0000000000000000 [Eh]
	 Same-Spin Energy          =      -0.5195647131839226 [Eh]
	 Opposite-Spin Energy      =      -1.7264602112882299 [Eh]
	 Correlation Energy        =      -2.2460249244721524 [Eh]
	 Total Energy              =    -466.1399608967998347 [Eh]

	 ================> DF-SCS-MP2 Energies <==================
	-----------------------------------------------------------
	 SCS Same-Spin Scale       =       0.3333333333333333 [-]
	 SCS Opposite-Spin Scale   =       1.2000000000000000 [-]
	 SCS Same-Spin Energy      =      -0.1731882377279742 [Eh]
	 SCS Opposite-Spin Energy  =      -2.0717522535458759 [Eh]
	 SCS Correlation Energy    =      -2.2449404912738502 [Eh]
	 SCS Total Energy          =    -466.1388764636014912 [Eh]
	-----------------------------------------------------------

  Dipole Moment: [D]
     X:    -0.5535      Y:    -0.1983      Z:     0.0358     Total:     0.5891

*** Psi4 exiting successfully. Buy a developer a beer!
