                               Psi4 1.4a3.dev225

  ==> Input File <==

--------------------------------------------------------------------------
#psi4
#
memory 32 gb

molecule  {
0 1
  C       -0.4426020    -0.8338200     0.2172010
  C       -2.7550300    -0.2335230    -0.2686280
  C       -1.3727340    -0.3393290    -0.9144000
  C       -1.1456910    -0.3766540     1.5340440
  C       -2.4139240     0.3715680     1.0951880
  C        0.9762580    -0.3476150     0.0696660
  C       -3.7696470     0.5602740    -1.0788290
  C        1.2785260     1.0190760     0.1766520
  C        2.0223850    -1.2394820    -0.1958260
  C        2.5868840     1.4777510     0.0263980
  C        3.3346800    -0.7855870    -0.3490730
  C        3.6209360     0.5756970    -0.2390260
  H       -0.4241810    -1.9311060     0.1924250
  H       -3.1414670    -1.2511910    -0.1070860
  H       -1.0573430     0.6588960    -1.2471640
  H       -1.3450850    -0.9967850    -1.7909970
  H       -0.4862050     0.2392810     2.1528250
  H       -1.4122900    -1.2543580     2.1330320
  H       -3.2323950     0.2935880     1.8197160
  H       -2.2008590     1.4410770     0.9595580
  H       -3.4037750     1.5784440    -1.2516650
  H       -3.9506210     0.0965540    -2.0538340
  H       -4.7289130     0.6299820    -0.5557020
  H        0.4812350     1.7322070     0.3831320
  H        1.8065840    -2.3037040    -0.2799060
  H        2.8207209     2.6382996     0.1233795
  H        4.1326410    -1.4960120    -0.5534930
  H        4.6413930     0.9324010    -0.3562540
units angstrom
no_reorient  #important for SAPT in psi4, default
symmetry c1  #important for SAPT in psi4, default
}

set PROPERTIES_ORIGIN ["COM"]
properties('MP2/aug-cc-pvtz', properties = ['dipole'])
--------------------------------------------------------------------------

    Molecular point group: c1
  Charge       = 0
  Multiplicity = 1
  Basis Set: AUG-CC-PVTZ
    Blend: AUG-CC-PVTZ
  Basis Set: (AUG-CC-PVTZ AUX)
    Blend: AUG-CC-PVTZ-JKFIT

    Orbital Energies [Eh]
    ---------------------

    Doubly Occupied:

       1A    -11.244895     2A    -11.237274     3A    -11.233663
       4A    -11.230062     5A    -11.229541     6A    -11.228809
       7A    -11.228611     8A    -11.221351     9A    -11.216938
      10A    -11.215061    11A    -11.214983    12A    -11.211710
      13A     -1.156353    14A     -1.124966    15A     -1.039529
      16A     -1.006646    17A     -0.988718    18A     -0.954045
      19A     -0.892925    20A     -0.825699    21A     -0.812433
      22A     -0.763674    23A     -0.756019    24A     -0.688071
      25A     -0.660609    26A     -0.630588    27A     -0.622358
      28A     -0.603606    29A     -0.585622    30A     -0.577700
      31A     -0.569914    32A     -0.556382    33A     -0.528761
      34A     -0.511432    35A     -0.510552    36A     -0.485647
      37A     -0.475181    38A     -0.463703    39A     -0.461688
      40A     -0.453614    41A     -0.450168    42A     -0.444091
      43A     -0.332995    44A     -0.319456

  @DF-RHF Final Energy:  -463.88707576553338

   => Energetics <=

    Nuclear Repulsion Energy =            675.4479579958972408
    One-Electron Energy =               -1966.7379837059065721
    Two-Electron Energy =                 827.4029499444759495
    Total Energy =                       -463.8870757655333819
  Basis Set: (AUG-CC-PVTZ AUX)
    Blend: AUG-CC-PVTZ-RI
    Molecular point group: c1

    Geometry (in Angstrom), charge = 0, multiplicity = 1:

       Center              X                  Y                   Z               Mass
    ------------   -----------------  -----------------  -----------------  -----------------
         C           -0.514108168983    -0.828797242174     0.214421988186    12.000000000000
         C           -2.826536168983    -0.228500242174    -0.271407011814    12.000000000000
         C           -1.444240168983    -0.334306242174    -0.917179011814    12.000000000000
         C           -1.217197168983    -0.371631242174     1.531264988186    12.000000000000
         C           -2.485430168983     0.376590757826     1.092408988186    12.000000000000
         C            0.904751831017    -0.342592242174     0.066886988186    12.000000000000
         C           -3.841153168983     0.565296757826    -1.081608011814    12.000000000000
         C            1.207019831017     1.024098757826     0.173872988186    12.000000000000
         C            1.950878831017    -1.234459242174    -0.198605011814    12.000000000000
         C            2.515377831017     1.482773757826     0.023618988186    12.000000000000
         C            3.263173831017    -0.780564242174    -0.351852011814    12.000000000000
         C            3.549429831017     0.580719757826    -0.241805011814    12.000000000000
         H           -0.495687168983    -1.926083242174     0.189645988186     1.007825032230
         H           -3.212973168983    -1.246168242174    -0.109865011814     1.007825032230
         H           -1.128849168983     0.663918757826    -1.249943011814     1.007825032230
         H           -1.416591168983    -0.991762242174    -1.793776011814     1.007825032230
         H           -0.557711168983     0.244303757826     2.150045988186     1.007825032230
         H           -1.483796168983    -1.249335242174     2.130252988186     1.007825032230
         H           -3.303901168983     0.298610757826     1.816936988186     1.007825032230
         H           -2.272365168983     1.446099757826     0.956778988186     1.007825032230
         H           -3.475281168983     1.583466757826    -1.254444011814     1.007825032230
         H           -4.022127168983     0.101576757826    -2.056613011814     1.007825032230
         H           -4.800419168983     0.635004757826    -0.558481011814     1.007825032230
         H            0.409728831017     1.737229757826     0.380352988186     1.007825032230
         H            1.735077831017    -2.298681242174    -0.282685011814     1.007825032230
         H            2.749214731017     2.643322357826     0.120600488186     1.007825032230
         H            4.061134831017    -1.490989242174    -0.556272011814     1.007825032230
         H            4.569886831017     0.937423757826    -0.359033011814     1.007825032230

  Basis Set: AUG-CC-PVTZ
    Blend: AUG-CC-PVTZ
  Basis Set: (AUG-CC-PVTZ AUX)
    Blend: AUG-CC-PVTZ-JKFIT
	 Reference Energy          =    -463.8870757655333819 [Eh]
	 Singles Energy            =      -0.0000000000000000 [Eh]
	 Same-Spin Energy          =      -0.5197168391666982 [Eh]
	 Opposite-Spin Energy      =      -1.7274114872615358 [Eh]
	 Correlation Energy        =      -2.2471283264282338 [Eh]
	 Total Energy              =    -466.1342040919616352 [Eh]

	 ================> DF-SCS-MP2 Energies <==================
	-----------------------------------------------------------
	 SCS Same-Spin Scale       =       0.3333333333333333 [-]
	 SCS Opposite-Spin Scale   =       1.2000000000000000 [-]
	 SCS Same-Spin Energy      =      -0.1732389463888994 [Eh]
	 SCS Opposite-Spin Energy  =      -2.0728937847138429 [Eh]
	 SCS Correlation Energy    =      -2.2461327311027421 [Eh]
	 SCS Total Energy          =    -466.1332084966361435 [Eh]
	-----------------------------------------------------------

  Dipole Moment: [D]
     X:    -0.5898      Y:    -0.2544      Z:     0.0336     Total:     0.6432

*** Psi4 exiting successfully. Buy a developer a beer!
