                               Psi4 1.4a3.dev225

  ==> Input File <==

--------------------------------------------------------------------------
#psi4
#
memory 32 gb

molecule  {
0 1
  C       -0.4426020    -0.8338200     0.2172010
  C       -2.7550300    -0.2335230    -0.2686280
  C       -1.3727340    -0.3393290    -0.9144000
  C       -1.1456910    -0.3766540     1.5340440
  C       -2.4139240     0.3715680     1.0951880
  C        0.9762580    -0.3476150     0.0696660
  C       -3.7029764     0.5081135    -1.0255906
  C        1.2785260     1.0190760     0.1766520
  C        2.0223850    -1.2394820    -0.1958260
  C        2.5868840     1.4777510     0.0263980
  C        3.3346800    -0.7855870    -0.3490730
  C        3.6209360     0.5756970    -0.2390260
  H       -0.4241810    -1.9311060     0.1924250
  H       -3.1414670    -1.2511910    -0.1070860
  H       -1.0573430     0.6588960    -1.2471640
  H       -1.3450850    -0.9967850    -1.7909970
  H       -0.4862050     0.2392810     2.1528250
  H       -1.4122900    -1.2543580     2.1330320
  H       -3.2323950     0.2935880     1.8197160
  H       -2.2008590     1.4410770     0.9595580
  H       -3.4037750     1.5784440    -1.2516650
  H       -3.9506210     0.0965540    -2.0538340
  H       -4.7289130     0.6299820    -0.5557020
  H        0.4812350     1.7322070     0.3831320
  H        1.8065840    -2.3037040    -0.2799060
  H        2.8010350     2.5405970     0.1152150
  H        4.1326410    -1.4960120    -0.5534930
  H        4.6413930     0.9324010    -0.3562540
units angstrom
no_reorient  #important for SAPT in psi4, default
symmetry c1  #important for SAPT in psi4, default
}

set PROPERTIES_ORIGIN ["COM"]
properties('MP2/aug-cc-pvtz', properties = ['dipole'])
--------------------------------------------------------------------------

    Molecular point group: c1
  Charge       = 0
  Multiplicity = 1
  Basis Set: AUG-CC-PVTZ
    Blend: AUG-CC-PVTZ
  Basis Set: (AUG-CC-PVTZ AUX)
    Blend: AUG-CC-PVTZ-JKFIT

    Orbital Energies [Eh]
    ---------------------

    Doubly Occupied:

       1A    -11.236694     2A    -11.233748     3A    -11.233011
       4A    -11.229101     5A    -11.228681     6A    -11.228601
       7A    -11.228310     8A    -11.217803     9A    -11.217005
      10A    -11.216371    11A    -11.215518    12A    -11.215282
      13A     -1.157362    14A     -1.129906    15A     -1.046344
      16A     -1.008681    17A     -0.994156    18A     -0.954890
      19A     -0.887569    20A     -0.826527    21A     -0.816534
      22A     -0.765623    23A     -0.758138    24A     -0.690681
      25A     -0.662109    26A     -0.637651    27A     -0.625576
      28A     -0.610437    29A     -0.587237    30A     -0.580042
      31A     -0.573158    32A     -0.549557    33A     -0.526474
      34A     -0.512068    35A     -0.503839    36A     -0.491722
      37A     -0.481946    38A     -0.471777    39A     -0.461715
      40A     -0.452044    41A     -0.446078    42A     -0.434620
      43A     -0.332516    44A     -0.319061

  @DF-RHF Final Energy:  -463.88274842622195

   => Energetics <=

    Nuclear Repulsion Energy =            677.7534744493347034
    One-Electron Energy =               -1971.2801258685342418
    Two-Electron Energy =                 829.6439029929774733
    Total Energy =                       -463.8827484262219514
  Basis Set: (AUG-CC-PVTZ AUX)
    Blend: AUG-CC-PVTZ-RI
    Molecular point group: c1

    Geometry (in Angstrom), charge = 0, multiplicity = 1:

       Center              X                  Y                   Z               Mass
    ------------   -----------------  -----------------  -----------------  -----------------
         C           -0.518980651607    -0.824273325116     0.210483617396    12.000000000000
         C           -2.831408651607    -0.223976325116    -0.275345382604    12.000000000000
         C           -1.449112651607    -0.329782325116    -0.921117382604    12.000000000000
         C           -1.222069651607    -0.367107325116     1.527326617396    12.000000000000
         C           -2.490302651607     0.381114674884     1.088470617396    12.000000000000
         C            0.899879348393    -0.338068325116     0.062948617396    12.000000000000
         C           -3.779355051607     0.517660174884    -1.032307982604    12.000000000000
         C            1.202147348393     1.028622674884     0.169934617396    12.000000000000
         C            1.946006348393    -1.229935325116    -0.202543382604    12.000000000000
         C            2.510505348393     1.487297674884     0.019680617396    12.000000000000
         C            3.258301348393    -0.776040325116    -0.355790382604    12.000000000000
         C            3.544557348393     0.585243674884    -0.245743382604    12.000000000000
         H           -0.500559651607    -1.921559325116     0.185707617396     1.007825032230
         H           -3.217845651607    -1.241644325116    -0.113803382604     1.007825032230
         H           -1.133721651607     0.668442674884    -1.253881382604     1.007825032230
         H           -1.421463651607    -0.987238325116    -1.797714382604     1.007825032230
         H           -0.562583651607     0.248827674884     2.146107617396     1.007825032230
         H           -1.488668651607    -1.244811325116     2.126314617396     1.007825032230
         H           -3.308773651607     0.303134674884     1.812998617396     1.007825032230
         H           -2.277237651607     1.450623674884     0.952840617396     1.007825032230
         H           -3.480153651607     1.587990674884    -1.258382382604     1.007825032230
         H           -4.026999651607     0.106100674884    -2.060551382604     1.007825032230
         H           -4.805291651607     0.639528674884    -0.562419382604     1.007825032230
         H            0.404856348393     1.741753674884     0.376414617396     1.007825032230
         H            1.730205348393    -2.294157325116    -0.286623382604     1.007825032230
         H            2.724656348393     2.550143674884     0.108497617396     1.007825032230
         H            4.056262348393    -1.486465325116    -0.560210382604     1.007825032230
         H            4.565014348393     0.941947674884    -0.362971382604     1.007825032230

  Basis Set: AUG-CC-PVTZ
    Blend: AUG-CC-PVTZ
  Basis Set: (AUG-CC-PVTZ AUX)
    Blend: AUG-CC-PVTZ-JKFIT
	 Reference Energy          =    -463.8827484262219514 [Eh]
	 Singles Energy            =      -0.0000000000000000 [Eh]
	 Same-Spin Energy          =      -0.5205553104873066 [Eh]
	 Opposite-Spin Energy      =      -1.7276737510567988 [Eh]
	 Correlation Energy        =      -2.2482290615441052 [Eh]
	 Total Energy              =    -466.1309774877660743 [Eh]

	 ================> DF-SCS-MP2 Energies <==================
	-----------------------------------------------------------
	 SCS Same-Spin Scale       =       0.3333333333333333 [-]
	 SCS Opposite-Spin Scale   =       1.2000000000000000 [-]
	 SCS Same-Spin Energy      =      -0.1735184368291022 [Eh]
	 SCS Opposite-Spin Energy  =      -2.0732085012681583 [Eh]
	 SCS Correlation Energy    =      -2.2467269380972605 [Eh]
	 SCS Total Energy          =    -466.1294753643192053 [Eh]
	-----------------------------------------------------------

  Dipole Moment: [D]
     X:    -0.5444      Y:    -0.2150      Z:     0.0500     Total:     0.5875

*** Psi4 exiting successfully. Buy a developer a beer!
