                               Psi4 1.4a3.dev225

  ==> Input File <==

--------------------------------------------------------------------------
#psi4
#
memory 32 gb

molecule  {
0 1
  C       -0.4426020    -0.8338200     0.2172010
  C       -2.7550300    -0.2335230    -0.2686280
  C       -1.3727340    -0.3393290    -0.9144000
  C       -1.1456910    -0.3766540     1.5340440
  C       -2.4139240     0.3715680     1.0951880
  C        0.9762580    -0.3476150     0.0696660
  C       -3.7696470     0.5602740    -1.0788290
  C        1.2785260     1.0190760     0.1766520
  C        2.0223850    -1.2394820    -0.1958260
  C        2.5868840     1.4777510     0.0263980
  C        3.3346800    -0.7855870    -0.3490730
  C        3.6209360     0.5756970    -0.2390260
  H       -0.4241810    -1.9311060     0.1924250
  H       -3.1414670    -1.2511910    -0.1070860
  H       -1.0573430     0.6588960    -1.2471640
  H       -1.3450850    -0.9967850    -1.7909970
  H       -0.4862050     0.2392810     2.1528250
  H       -1.4122900    -1.2543580     2.1330320
  H       -3.2308180     0.2555146     1.8163899
  H       -2.2008590     1.4410770     0.9595580
  H       -3.4037750     1.5784440    -1.2516650
  H       -3.9506210     0.0965540    -2.0538340
  H       -4.7289130     0.6299820    -0.5557020
  H        0.4812350     1.7322070     0.3831320
  H        1.8065840    -2.3037040    -0.2799060
  H        2.8010350     2.5405970     0.1152150
  H        4.1326410    -1.4960120    -0.5534930
  H        4.6413930     0.9324010    -0.3562540
units angstrom
no_reorient  #important for SAPT in psi4, default
symmetry c1  #important for SAPT in psi4, default
}

set PROPERTIES_ORIGIN ["COM"]
properties('MP2/aug-cc-pvtz', properties = ['dipole'])
--------------------------------------------------------------------------

    Molecular point group: c1
  Charge       = 0
  Multiplicity = 1
  Basis Set: AUG-CC-PVTZ
    Blend: AUG-CC-PVTZ
  Basis Set: (AUG-CC-PVTZ AUX)
    Blend: AUG-CC-PVTZ-JKFIT

    Orbital Energies [Eh]
    ---------------------

    Doubly Occupied:

       1A    -11.236452     2A    -11.233577     3A    -11.232824
       4A    -11.228894     5A    -11.228412     6A    -11.228193
       7A    -11.228059     8A    -11.220953     9A    -11.216470
      10A    -11.214907    11A    -11.214594    12A    -11.211599
      13A     -1.155972    14A     -1.124857    15A     -1.039467
      16A     -1.008417    17A     -0.988496    18A     -0.953788
      19A     -0.892619    20A     -0.826322    21A     -0.816060
      22A     -0.762967    23A     -0.757049    24A     -0.689867
      25A     -0.660794    26A     -0.635070    27A     -0.622228
      28A     -0.606256    29A     -0.586302    30A     -0.580199
      31A     -0.573458    32A     -0.556664    33A     -0.528431
      34A     -0.511301    35A     -0.510065    36A     -0.490044
      37A     -0.474292    38A     -0.463515    39A     -0.461167
      40A     -0.453737    41A     -0.450335    42A     -0.443726
      43A     -0.332328    44A     -0.318735

  @DF-RHF Final Energy:  -463.89426218423546

   => Energetics <=

    Nuclear Repulsion Energy =            675.9667738557063785
    One-Electron Energy =               -1967.7831453970732127
    Two-Electron Energy =                 827.9221093571313759
    Total Energy =                       -463.8942621842354583
  Basis Set: (AUG-CC-PVTZ AUX)
    Blend: AUG-CC-PVTZ-RI
    Molecular point group: c1

    Geometry (in Angstrom), charge = 0, multiplicity = 1:

       Center              X                  Y                   Z               Mass
    ------------   -----------------  -----------------  -----------------  -----------------
         C           -0.513994191904    -0.827942670556     0.214494309809    12.000000000000
         C           -2.826422191904    -0.227645670556    -0.271334690191    12.000000000000
         C           -1.444126191904    -0.333451670556    -0.917106690191    12.000000000000
         C           -1.217083191904    -0.370776670556     1.531337309809    12.000000000000
         C           -2.485316191904     0.377445329444     1.092481309809    12.000000000000
         C            0.904865808096    -0.341737670556     0.066959309809    12.000000000000
         C           -3.841039191904     0.566151329444    -1.081535690191    12.000000000000
         C            1.207133808096     1.024953329444     0.173945309809    12.000000000000
         C            1.950992808096    -1.233604670556    -0.198532690191    12.000000000000
         C            2.515491808096     1.483628329444     0.023691309809    12.000000000000
         C            3.263287808096    -0.779709670556    -0.351779690191    12.000000000000
         C            3.549543808096     0.581574329444    -0.241732690191    12.000000000000
         H           -0.495573191904    -1.925228670556     0.189718309809     1.007825032230
         H           -3.212859191904    -1.245313670556    -0.109792690191     1.007825032230
         H           -1.128735191904     0.664773329444    -1.249870690191     1.007825032230
         H           -1.416477191904    -0.990907670556    -1.793703690191     1.007825032230
         H           -0.557597191904     0.245158329444     2.150118309809     1.007825032230
         H           -1.483682191904    -1.248480670556     2.130325309809     1.007825032230
         H           -3.302210191904     0.261391929444     1.813683209809     1.007825032230
         H           -2.272251191904     1.446954329444     0.956851309809     1.007825032230
         H           -3.475167191904     1.584321329444    -1.254371690191     1.007825032230
         H           -4.022013191904     0.102431329444    -2.056540690191     1.007825032230
         H           -4.800305191904     0.635859329444    -0.558408690191     1.007825032230
         H            0.409842808096     1.738084329444     0.380425309809     1.007825032230
         H            1.735191808096    -2.297826670556    -0.282612690191     1.007825032230
         H            2.729642808096     2.546474329444     0.112508309809     1.007825032230
         H            4.061248808096    -1.490134670556    -0.556199690191     1.007825032230
         H            4.570000808096     0.938278329444    -0.358960690191     1.007825032230

  Basis Set: AUG-CC-PVTZ
    Blend: AUG-CC-PVTZ
  Basis Set: (AUG-CC-PVTZ AUX)
    Blend: AUG-CC-PVTZ-JKFIT
	 Reference Energy          =    -463.8942621842354583 [Eh]
	 Singles Energy            =      -0.0000000000000000 [Eh]
	 Same-Spin Energy          =      -0.5195260789494734 [Eh]
	 Opposite-Spin Energy      =      -1.7265020423180051 [Eh]
	 Correlation Energy        =      -2.2460281212674786 [Eh]
	 Total Energy              =    -466.1402903055029583 [Eh]

	 ================> DF-SCS-MP2 Energies <==================
	-----------------------------------------------------------
	 SCS Same-Spin Scale       =       0.3333333333333333 [-]
	 SCS Opposite-Spin Scale   =       1.2000000000000000 [-]
	 SCS Same-Spin Energy      =      -0.1731753596498245 [Eh]
	 SCS Opposite-Spin Energy  =      -2.0718024507816062 [Eh]
	 SCS Correlation Energy    =      -2.2449778104314309 [Eh]
	 SCS Total Energy          =    -466.1392399946668661 [Eh]
	-----------------------------------------------------------

  Dipole Moment: [D]
     X:    -0.5712      Y:    -0.2124      Z:     0.0363     Total:     0.6105

*** Psi4 exiting successfully. Buy a developer a beer!
