                               Psi4 1.4a3.dev225

  ==> Input File <==

--------------------------------------------------------------------------
#psi4
#
memory 32 gb

molecule  {
0 1
  C       -0.4426020    -0.8338200     0.2172010
  C       -2.7550300    -0.2335230    -0.2686280
  C       -1.3727340    -0.3393290    -0.9144000
  C       -1.1456910    -0.3766540     1.5340440
  C       -2.4139240     0.3715680     1.0951880
  C        0.9762580    -0.3476150     0.0696660
  C       -3.7696470     0.5602740    -1.0788290
  C        1.2785260     1.0190760     0.1766520
  C        2.0223850    -1.2394820    -0.1958260
  C        2.6056479     1.4843291     0.0242431
  C        3.3346800    -0.7855870    -0.3490730
  C        3.6209360     0.5756970    -0.2390260
  H       -0.4241810    -1.9311060     0.1924250
  H       -3.1414670    -1.2511910    -0.1070860
  H       -1.0573430     0.6588960    -1.2471640
  H       -1.3450850    -0.9967850    -1.7909970
  H       -0.4862050     0.2392810     2.1528250
  H       -1.4122900    -1.2543580     2.1330320
  H       -3.2323950     0.2935880     1.8197160
  H       -2.2008590     1.4410770     0.9595580
  H       -3.4037750     1.5784440    -1.2516650
  H       -3.9506210     0.0965540    -2.0538340
  H       -4.7289130     0.6299820    -0.5557020
  H        0.4812350     1.7322070     0.3831320
  H        1.8065840    -2.3037040    -0.2799060
  H        2.8010350     2.5405970     0.1152150
  H        4.1326410    -1.4960120    -0.5534930
  H        4.6413930     0.9324010    -0.3562540
units angstrom
no_reorient  #important for SAPT in psi4, default
symmetry c1  #important for SAPT in psi4, default
}

set PROPERTIES_ORIGIN ["COM"]
properties('MP2/aug-cc-pvtz', properties = ['dipole'])
--------------------------------------------------------------------------

    Molecular point group: c1
  Charge       = 0
  Multiplicity = 1
  Basis Set: AUG-CC-PVTZ
    Blend: AUG-CC-PVTZ
  Basis Set: (AUG-CC-PVTZ AUX)
    Blend: AUG-CC-PVTZ-JKFIT

    Orbital Energies [Eh]
    ---------------------

    Doubly Occupied:

       1A    -11.236354     2A    -11.233837     3A    -11.232948
       4A    -11.230336     5A    -11.228583     6A    -11.228332
       7A    -11.228144     8A    -11.221104     9A    -11.216592
      10A    -11.214820    11A    -11.214653    12A    -11.211543
      13A     -1.155299    14A     -1.124575    15A     -1.040208
      16A     -1.006553    17A     -0.988504    18A     -0.953848
      19A     -0.892509    20A     -0.827579    21A     -0.815740
      22A     -0.763548    23A     -0.756981    24A     -0.689578
      25A     -0.660226    26A     -0.635975    27A     -0.621559
      28A     -0.607904    29A     -0.586332    30A     -0.579722
      31A     -0.573196    32A     -0.555983    33A     -0.527914
      34A     -0.509852    35A     -0.509359    36A     -0.492269
      37A     -0.475005    38A     -0.463255    39A     -0.461159
      40A     -0.453550    41A     -0.450380    42A     -0.443678
      43A     -0.330380    44A     -0.319882

  @DF-RHF Final Energy:  -463.89376643731941

   => Energetics <=

    Nuclear Repulsion Energy =            675.6686849782337276
    One-Electron Energy =               -1967.1854080451705613
    Two-Electron Energy =                 827.6229566296173061
    Total Energy =                       -463.8937664373194139
  Basis Set: (AUG-CC-PVTZ AUX)
    Blend: AUG-CC-PVTZ-RI
    Molecular point group: c1

    Geometry (in Angstrom), charge = 0, multiplicity = 1:

       Center              X                  Y                   Z               Mass
    ------------   -----------------  -----------------  -----------------  -----------------
         C           -0.515390458445    -0.828675275575     0.214634866530    12.000000000000
         C           -2.827818458445    -0.228378275575    -0.271194133470    12.000000000000
         C           -1.445522458445    -0.334184275575    -0.916966133470    12.000000000000
         C           -1.218479458445    -0.371509275575     1.531477866530    12.000000000000
         C           -2.486712458445     0.376712724425     1.092621866530    12.000000000000
         C            0.903469541555    -0.342470275575     0.067099866530    12.000000000000
         C           -3.842435458445     0.565418724425    -1.081395133470    12.000000000000
         C            1.205737541555     1.024220724425     0.174085866530    12.000000000000
         C            1.949596541555    -1.234337275575    -0.198392133470    12.000000000000
         C            2.532859441555     1.489473824425     0.021676966530    12.000000000000
         C            3.261891541555    -0.780442275575    -0.351639133470    12.000000000000
         C            3.548147541555     0.580841724425    -0.241592133470    12.000000000000
         H           -0.496969458445    -1.925961275575     0.189858866530     1.007825032230
         H           -3.214255458445    -1.246046275575    -0.109652133470     1.007825032230
         H           -1.130131458445     0.664040724425    -1.249730133470     1.007825032230
         H           -1.417873458445    -0.991640275575    -1.793563133470     1.007825032230
         H           -0.558993458445     0.244425724425     2.150258866530     1.007825032230
         H           -1.485078458445    -1.249213275575     2.130465866530     1.007825032230
         H           -3.305183458445     0.298732724425     1.817149866530     1.007825032230
         H           -2.273647458445     1.446221724425     0.956991866530     1.007825032230
         H           -3.476563458445     1.583588724425    -1.254231133470     1.007825032230
         H           -4.023409458445     0.101698724425    -2.056400133470     1.007825032230
         H           -4.801701458445     0.635126724425    -0.558268133470     1.007825032230
         H            0.408446541555     1.737351724425     0.380565866530     1.007825032230
         H            1.733795541555    -2.298559275575    -0.282472133470     1.007825032230
         H            2.728246541555     2.545741724425     0.112648866530     1.007825032230
         H            4.059852541555    -1.490867275575    -0.556059133470     1.007825032230
         H            4.568604541555     0.937545724425    -0.358820133470     1.007825032230

  Basis Set: AUG-CC-PVTZ
    Blend: AUG-CC-PVTZ
  Basis Set: (AUG-CC-PVTZ AUX)
    Blend: AUG-CC-PVTZ-JKFIT
	 Reference Energy          =    -463.8937664373194139 [Eh]
	 Singles Energy            =      -0.0000000000000000 [Eh]
	 Same-Spin Energy          =      -0.5195333787861858 [Eh]
	 Opposite-Spin Energy      =      -1.7265389654317431 [Eh]
	 Correlation Energy        =      -2.2460723442179287 [Eh]
	 Total Energy              =    -466.1398387815373212 [Eh]

	 ================> DF-SCS-MP2 Energies <==================
	-----------------------------------------------------------
	 SCS Same-Spin Scale       =       0.3333333333333333 [-]
	 SCS Opposite-Spin Scale   =       1.2000000000000000 [-]
	 SCS Same-Spin Energy      =      -0.1731777929287286 [Eh]
	 SCS Opposite-Spin Energy  =      -2.0718467585180917 [Eh]
	 SCS Correlation Energy    =      -2.2450245514468201 [Eh]
	 SCS Total Energy          =    -466.1387909887662317 [Eh]
	-----------------------------------------------------------

  Dipole Moment: [D]
     X:    -0.5703      Y:    -0.1984      Z:     0.0379     Total:     0.6051

*** Psi4 exiting successfully. Buy a developer a beer!
