                               Psi4 1.4a3.dev225

  ==> Input File <==

--------------------------------------------------------------------------
#psi4
#
memory 32 gb

molecule  {
0 1
  C       -0.4426020    -0.8338200     0.2172010
  C       -2.7550300    -0.2335230    -0.2686280
  C       -1.3727340    -0.3393290    -0.9144000
  C       -1.1456910    -0.3766540     1.5340440
  C       -2.4139240     0.3715680     1.0951880
  C        0.9762580    -0.3476150     0.0696660
  C       -3.7696470     0.5602740    -1.0788290
  C        1.2785260     1.0190760     0.1766520
  C        2.0223850    -1.2394820    -0.1958260
  C        2.5868840     1.4777510     0.0263980
  C        3.3346800    -0.7855870    -0.3490730
  C        3.6209360     0.5756970    -0.2390260
  H       -0.4241810    -1.9311060     0.1924250
  H       -3.1414670    -1.2511910    -0.1070860
  H       -1.0573430     0.6588960    -1.2471640
  H       -1.3450850    -0.9967850    -1.7909970
  H       -0.4862050     0.2392810     2.1528250
  H       -1.4122900    -1.2543580     2.1330320
  H       -3.2323950     0.2935880     1.8197160
  H       -2.2008590     1.4410770     0.9595580
  H       -3.4037750     1.5784440    -1.2516650
  H       -3.9506210     0.0965540    -2.0538340
  H       -4.7289130     0.6299820    -0.5557020
  H        0.4812350     1.7322070     0.3831320
  H        1.8065840    -2.3037040    -0.2799060
  H        2.8010350     2.5405970     0.1152150
  H        4.2059988    -1.5613225    -0.5722857
  H        4.6413930     0.9324010    -0.3562540
units angstrom
no_reorient  #important for SAPT in psi4, default
symmetry c1  #important for SAPT in psi4, default
}

set PROPERTIES_ORIGIN ["COM"]
properties('MP2/aug-cc-pvtz', properties = ['dipole'])
--------------------------------------------------------------------------

    Molecular point group: c1
  Charge       = 0
  Multiplicity = 1
  Basis Set: AUG-CC-PVTZ
    Blend: AUG-CC-PVTZ
  Basis Set: (AUG-CC-PVTZ AUX)
    Blend: AUG-CC-PVTZ-JKFIT

    Orbital Energies [Eh]
    ---------------------

    Doubly Occupied:

       1A    -11.244138     2A    -11.237274     3A    -11.234375
       4A    -11.230060     5A    -11.229275     6A    -11.228902
       7A    -11.228796     8A    -11.221395     9A    -11.216988
      10A    -11.215122    11A    -11.215021    12A    -11.211763
      13A     -1.156369    14A     -1.124980    15A     -1.039541
      16A     -1.006887    17A     -0.988484    18A     -0.954086
      19A     -0.892964    20A     -0.822640    21A     -0.816740
      22A     -0.763832    23A     -0.753823    24A     -0.688908
      25A     -0.660650    26A     -0.631773    27A     -0.622241
      28A     -0.603123    29A     -0.585425    30A     -0.575556
      31A     -0.572162    32A     -0.556320    33A     -0.528817
      34A     -0.510692    35A     -0.509744    36A     -0.487271
      37A     -0.475445    38A     -0.463730    39A     -0.460821
      40A     -0.453996    41A     -0.450429    42A     -0.443874
      43A     -0.332999    44A     -0.319443

  @DF-RHF Final Energy:  -463.88706841323017

   => Energetics <=

    Nuclear Repulsion Energy =            675.4456715152857669
    One-Electron Energy =               -1966.7317304591413176
    Two-Electron Energy =                 827.3989905306253831
    Total Energy =                       -463.8870684132301676
  Basis Set: (AUG-CC-PVTZ AUX)
    Blend: AUG-CC-PVTZ-RI
    Molecular point group: c1

    Geometry (in Angstrom), charge = 0, multiplicity = 1:

       Center              X                  Y                   Z               Mass
    ------------   -----------------  -----------------  -----------------  -----------------
         C           -0.514445978923    -0.827771240756     0.214591656301    12.000000000000
         C           -2.826873978923    -0.227474240756    -0.271237343699    12.000000000000
         C           -1.444577978923    -0.333280240756    -0.917009343699    12.000000000000
         C           -1.217534978923    -0.370605240756     1.531434656301    12.000000000000
         C           -2.485767978923     0.377616759244     1.092578656301    12.000000000000
         C            0.904414021077    -0.341566240756     0.067056656301    12.000000000000
         C           -3.841490978923     0.566322759244    -1.081438343699    12.000000000000
         C            1.206682021077     1.025124759244     0.174042656301    12.000000000000
         C            1.950541021077    -1.233433240756    -0.198435343699    12.000000000000
         C            2.515040021077     1.483799759244     0.023788656301    12.000000000000
         C            3.262836021077    -0.779538240756    -0.351682343699    12.000000000000
         C            3.549092021077     0.581745759244    -0.241635343699    12.000000000000
         H           -0.496024978923    -1.925057240756     0.189815656301     1.007825032230
         H           -3.213310978923    -1.245142240756    -0.109695343699     1.007825032230
         H           -1.129186978923     0.664944759244    -1.249773343699     1.007825032230
         H           -1.416928978923    -0.990736240756    -1.793606343699     1.007825032230
         H           -0.558048978923     0.245329759244     2.150215656301     1.007825032230
         H           -1.484133978923    -1.248309240756     2.130422656301     1.007825032230
         H           -3.304238978923     0.299636759244     1.817106656301     1.007825032230
         H           -2.272702978923     1.447125759244     0.956948656301     1.007825032230
         H           -3.475618978923     1.584492759244    -1.254274343699     1.007825032230
         H           -4.022464978923     0.102602759244    -2.056443343699     1.007825032230
         H           -4.800756978923     0.636030759244    -0.558311343699     1.007825032230
         H            0.409391021077     1.738255759244     0.380522656301     1.007825032230
         H            1.734740021077    -2.297655240756    -0.282515343699     1.007825032230
         H            2.729191021077     2.546645759244     0.112605656301     1.007825032230
         H            4.134154821077    -1.555273740756    -0.574895043699     1.007825032230
         H            4.569549021077     0.938449759244    -0.358863343699     1.007825032230

  Basis Set: AUG-CC-PVTZ
    Blend: AUG-CC-PVTZ
  Basis Set: (AUG-CC-PVTZ AUX)
    Blend: AUG-CC-PVTZ-JKFIT
	 Reference Energy          =    -463.8870684132301676 [Eh]
	 Singles Energy            =      -0.0000000000000000 [Eh]
	 Same-Spin Energy          =      -0.5197186482178692 [Eh]
	 Opposite-Spin Energy      =      -1.7274098374048434 [Eh]
	 Correlation Energy        =      -2.2471284856227127 [Eh]
	 Total Energy              =    -466.1341968988529061 [Eh]

	 ================> DF-SCS-MP2 Energies <==================
	-----------------------------------------------------------
	 SCS Same-Spin Scale       =       0.3333333333333333 [-]
	 SCS Opposite-Spin Scale   =       1.2000000000000000 [-]
	 SCS Same-Spin Energy      =      -0.1732395494059564 [Eh]
	 SCS Opposite-Spin Energy  =      -2.0728918048858120 [Eh]
	 SCS Correlation Energy    =      -2.2461313542917685 [Eh]
	 SCS Total Energy          =    -466.1331997675219441 [Eh]
	-----------------------------------------------------------

  Dipole Moment: [D]
     X:    -0.6187      Y:    -0.1693      Z:     0.0478     Total:     0.6433

*** Psi4 exiting successfully. Buy a developer a beer!
