                               Psi4 1.4a3.dev225

  ==> Input File <==

--------------------------------------------------------------------------
#psi4
#
memory 32 gb

molecule  {
0 1
  C       -0.5655990    -0.7622818     0.1368343
  C       -2.7550300    -0.2335230    -0.2686280
  C       -1.3727340    -0.3393290    -0.9144000
  C       -1.1456910    -0.3766540     1.5340440
  C       -2.4139240     0.3715680     1.0951880
  C        0.9762580    -0.3476150     0.0696660
  C       -3.7696470     0.5602740    -1.0788290
  C        1.2785260     1.0190760     0.1766520
  C        2.0223850    -1.2394820    -0.1958260
  C        2.5868840     1.4777510     0.0263980
  C        3.3346800    -0.7855870    -0.3490730
  C        3.6209360     0.5756970    -0.2390260
  H       -0.4241810    -1.9311060     0.1924250
  H       -3.1414670    -1.2511910    -0.1070860
  H       -1.0573430     0.6588960    -1.2471640
  H       -1.3450850    -0.9967850    -1.7909970
  H       -0.4862050     0.2392810     2.1528250
  H       -1.4122900    -1.2543580     2.1330320
  H       -3.2323950     0.2935880     1.8197160
  H       -2.2008590     1.4410770     0.9595580
  H       -3.4037750     1.5784440    -1.2516650
  H       -3.9506210     0.0965540    -2.0538340
  H       -4.7289130     0.6299820    -0.5557020
  H        0.4812350     1.7322070     0.3831320
  H        1.8065840    -2.3037040    -0.2799060
  H        2.8010350     2.5405970     0.1152150
  H        4.1326410    -1.4960120    -0.5534930
  H        4.6413930     0.9324010    -0.3562540
units angstrom
no_reorient  #important for SAPT in psi4, default
symmetry c1  #important for SAPT in psi4, default
}

set PROPERTIES_ORIGIN ["COM"]
properties('MP2/aug-cc-pvtz', properties = ['dipole'])
--------------------------------------------------------------------------

    Molecular point group: c1
  Charge       = 0
  Multiplicity = 1
  Basis Set: AUG-CC-PVTZ
    Blend: AUG-CC-PVTZ
  Basis Set: (AUG-CC-PVTZ AUX)
    Blend: AUG-CC-PVTZ-JKFIT

    Orbital Energies [Eh]
    ---------------------

    Doubly Occupied:

       1A    -11.238822     2A    -11.234165     3A    -11.232844
       4A    -11.232525     5A    -11.228993     6A    -11.228700
       7A    -11.227027     8A    -11.222482     9A    -11.217252
      10A    -11.214422    11A    -11.211750    12A    -11.207427
      13A     -1.161397    14A     -1.134481    15A     -1.032617
      16A     -1.007578    17A     -0.989017    18A     -0.973741
      19A     -0.887040    20A     -0.821806    21A     -0.812003
      22A     -0.769385    23A     -0.751082    24A     -0.690553
      25A     -0.667577    26A     -0.634369    27A     -0.621215
      28A     -0.607809    29A     -0.586265    30A     -0.581893
      31A     -0.573918    32A     -0.557068    33A     -0.526331
      34A     -0.522944    35A     -0.506210    36A     -0.494207
      37A     -0.487684    38A     -0.467877    39A     -0.462715
      40A     -0.452838    41A     -0.433501    42A     -0.421322
      43A     -0.331769    44A     -0.321452

  @DF-RHF Final Energy:  -463.86445901613803

   => Energetics <=

    Nuclear Repulsion Energy =            676.9574418163655309
    One-Electron Energy =               -1969.6716573379874262
    Two-Electron Energy =                 828.8497565054840379
    Total Energy =                       -463.8644590161379710
  Basis Set: (AUG-CC-PVTZ AUX)
    Blend: AUG-CC-PVTZ-RI
    Molecular point group: c1

    Geometry (in Angstrom), charge = 0, multiplicity = 1:

       Center              X                  Y                   Z               Mass
    ------------   -----------------  -----------------  -----------------  -----------------
         C           -0.627763704067    -0.762005273695     0.140129465045    12.000000000000
         C           -2.817194704067    -0.233246473695    -0.265332834955    12.000000000000
         C           -1.434898704067    -0.339052473695    -0.911104834955    12.000000000000
         C           -1.207855704067    -0.376377473695     1.537339165045    12.000000000000
         C           -2.476088704067     0.371844526305     1.098483165045    12.000000000000
         C            0.914093295933    -0.347338473695     0.072961165045    12.000000000000
         C           -3.831811704067     0.560550526305    -1.075533834955    12.000000000000
         C            1.216361295933     1.019352526305     0.179947165045    12.000000000000
         C            1.960220295933    -1.239205473695    -0.192530834955    12.000000000000
         C            2.524719295933     1.478027526305     0.029693165045    12.000000000000
         C            3.272515295933    -0.785310473695    -0.345777834955    12.000000000000
         C            3.558771295933     0.575973526305    -0.235730834955    12.000000000000
         H           -0.486345704067    -1.930829473695     0.195720165045     1.007825032230
         H           -3.203631704067    -1.250914473695    -0.103790834955     1.007825032230
         H           -1.119507704067     0.659172526305    -1.243868834955     1.007825032230
         H           -1.407249704067    -0.996508473695    -1.787701834955     1.007825032230
         H           -0.548369704067     0.239557526305     2.156120165045     1.007825032230
         H           -1.474454704067    -1.254081473695     2.136327165045     1.007825032230
         H           -3.294559704067     0.293864526305     1.823011165045     1.007825032230
         H           -2.263023704067     1.441353526305     0.962853165045     1.007825032230
         H           -3.465939704067     1.578720526305    -1.248369834955     1.007825032230
         H           -4.012785704067     0.096830526305    -2.050538834955     1.007825032230
         H           -4.791077704067     0.630258526305    -0.552406834955     1.007825032230
         H            0.419070295933     1.732483526305     0.386427165045     1.007825032230
         H            1.744419295933    -2.303427473695    -0.276610834955     1.007825032230
         H            2.738870295933     2.540873526305     0.118510165045     1.007825032230
         H            4.070476295933    -1.495735473695    -0.550197834955     1.007825032230
         H            4.579228295933     0.932677526305    -0.352958834955     1.007825032230

  Basis Set: AUG-CC-PVTZ
    Blend: AUG-CC-PVTZ
  Basis Set: (AUG-CC-PVTZ AUX)
    Blend: AUG-CC-PVTZ-JKFIT
	 Reference Energy          =    -463.8644590161380279 [Eh]
	 Singles Energy            =      -0.0000000000000000 [Eh]
	 Same-Spin Energy          =      -0.5210303578782107 [Eh]
	 Opposite-Spin Energy      =      -1.7287307319256193 [Eh]
	 Correlation Energy        =      -2.2497610898038300 [Eh]
	 Total Energy              =    -466.1142201059418539 [Eh]

	 ================> DF-SCS-MP2 Energies <==================
	-----------------------------------------------------------
	 SCS Same-Spin Scale       =       0.3333333333333333 [-]
	 SCS Opposite-Spin Scale   =       1.2000000000000000 [-]
	 SCS Same-Spin Energy      =      -0.1736767859594036 [Eh]
	 SCS Opposite-Spin Energy  =      -2.0744768783107430 [Eh]
	 SCS Correlation Energy    =      -2.2481536642701467 [Eh]
	 SCS Total Energy          =    -466.1126126804081764 [Eh]
	-----------------------------------------------------------

  Dipole Moment: [D]
     X:    -0.5882      Y:    -0.1402      Z:    -0.0008     Total:     0.6047

*** Psi4 exiting successfully. Buy a developer a beer!
