                               Psi4 1.4a3.dev225

  ==> Input File <==

--------------------------------------------------------------------------
#psi4
#
memory 32 gb

molecule  {
0 1
  C       -0.4426020    -0.8338200     0.2172010
  C       -2.7550300    -0.2335230    -0.2686280
  C       -1.3727340    -0.3393290    -0.9144000
  C       -1.1456910    -0.3766540     1.5340440
  C       -2.4139240     0.3715680     1.0951880
  C        0.9762580    -0.3476150     0.0696660
  C       -3.7696470     0.5602740    -1.0788290
  C        1.2785260     1.0190760     0.1766520
  C        2.0223850    -1.2394820    -0.1958260
  C        2.5868840     1.4777510     0.0263980
  C        3.3346800    -0.7855870    -0.3490730
  C        3.6209360     0.5756970    -0.2390260
  H       -0.4241810    -1.9311060     0.1924250
  H       -3.1414670    -1.2511910    -0.1070860
  H       -1.0573430     0.6588960    -1.2471640
  H       -1.3450850    -0.9967850    -1.7909970
  H       -0.4862050     0.2392810     2.1528250
  H       -1.4122900    -1.2543580     2.1330320
  H       -3.2323950     0.2935880     1.8197160
  H       -2.2008590     1.4410770     0.9595580
  H       -3.4037750     1.5784440    -1.2516650
  H       -3.9506210     0.0965540    -2.0538340
  H       -4.7289130     0.6299820    -0.5557020
  H        0.4812350     1.7322070     0.3831320
  H        1.8065840    -2.3037040    -0.2799060
  H        2.7911920     2.4917457     0.1111327
  H        4.1326410    -1.4960120    -0.5534930
  H        4.6413930     0.9324010    -0.3562540
units angstrom
no_reorient  #important for SAPT in psi4, default
symmetry c1  #important for SAPT in psi4, default
}

set PROPERTIES_ORIGIN ["COM"]
properties('MP2/aug-cc-pvtz', properties = ['dipole'])
--------------------------------------------------------------------------

    Molecular point group: c1
  Charge       = 0
  Multiplicity = 1
  Basis Set: AUG-CC-PVTZ
    Blend: AUG-CC-PVTZ
  Basis Set: (AUG-CC-PVTZ AUX)
    Blend: AUG-CC-PVTZ-JKFIT

    Orbital Energies [Eh]
    ---------------------

    Doubly Occupied:

       1A    -11.236165     2A    -11.232518     3A    -11.228897
       4A    -11.228260     5A    -11.228181     6A    -11.227946
       7A    -11.226889     8A    -11.221094     9A    -11.216593
      10A    -11.214816    11A    -11.214635    12A    -11.211536
      13A     -1.155930    14A     -1.124826    15A     -1.039621
      16A     -1.009768    17A     -0.988354    18A     -0.953688
      19A     -0.892545    20A     -0.827606    21A     -0.818204
      22A     -0.763607    23A     -0.757945    24A     -0.691200
      25A     -0.660396    26A     -0.638485    27A     -0.621677
      28A     -0.608095    29A     -0.586635    30A     -0.581139
      31A     -0.574035    32A     -0.556014    33A     -0.528465
      34A     -0.510711    35A     -0.509835    36A     -0.491789
      37A     -0.475249    38A     -0.463254    39A     -0.461102
      40A     -0.453775    41A     -0.450296    42A     -0.443759
      43A     -0.332110    44A     -0.318526

  @DF-RHF Final Energy:  -463.89363144897959

   => Energetics <=

    Nuclear Repulsion Energy =            676.2072254979506170
    One-Electron Energy =               -1968.2493777939471329
    Two-Electron Energy =                 828.1485208470168118
    Total Energy =                       -463.8936314489795905
  Basis Set: (AUG-CC-PVTZ AUX)
    Blend: AUG-CC-PVTZ-RI
    Molecular point group: c1

    Geometry (in Angstrom), charge = 0, multiplicity = 1:

       Center              X                  Y                   Z               Mass
    ------------   -----------------  -----------------  -----------------  -----------------
         C           -0.513922314636    -0.827874834654     0.214499069317    12.000000000000
         C           -2.826350314636    -0.227577834654    -0.271329930683    12.000000000000
         C           -1.444054314636    -0.333383834654    -0.917101930683    12.000000000000
         C           -1.217011314636    -0.370708834654     1.531342069317    12.000000000000
         C           -2.485244314636     0.377513165346     1.092486069317    12.000000000000
         C            0.904937685364    -0.341669834654     0.066964069317    12.000000000000
         C           -3.840967314636     0.566219165346    -1.081530930683    12.000000000000
         C            1.207205685364     1.025021165346     0.173950069317    12.000000000000
         C            1.951064685364    -1.233536834654    -0.198527930683    12.000000000000
         C            2.515563685364     1.483696165346     0.023696069317    12.000000000000
         C            3.263359685364    -0.779641834654    -0.351774930683    12.000000000000
         C            3.549615685364     0.581642165346    -0.241727930683    12.000000000000
         H           -0.495501314636    -1.925160834654     0.189723069317     1.007825032230
         H           -3.212787314636    -1.245245834654    -0.109787930683     1.007825032230
         H           -1.128663314636     0.664841165346    -1.249865930683     1.007825032230
         H           -1.416405314636    -0.990839834654    -1.793698930683     1.007825032230
         H           -0.557525314636     0.245226165346     2.150123069317     1.007825032230
         H           -1.483610314636    -1.248412834654     2.130330069317     1.007825032230
         H           -3.303715314636     0.299533165346     1.817014069317     1.007825032230
         H           -2.272179314636     1.447022165346     0.956856069317     1.007825032230
         H           -3.475095314636     1.584389165346    -1.254366930683     1.007825032230
         H           -4.021941314636     0.102499165346    -2.056535930683     1.007825032230
         H           -4.800233314636     0.635927165346    -0.558403930683     1.007825032230
         H            0.409914685364     1.738152165346     0.380430069317     1.007825032230
         H            1.735263685364    -2.297758834654    -0.282607930683     1.007825032230
         H            2.719871685364     2.497690865346     0.108430769317     1.007825032230
         H            4.061320685364    -1.490066834654    -0.556194930683     1.007825032230
         H            4.570072685364     0.938346165346    -0.358955930683     1.007825032230

  Basis Set: AUG-CC-PVTZ
    Blend: AUG-CC-PVTZ
  Basis Set: (AUG-CC-PVTZ AUX)
    Blend: AUG-CC-PVTZ-JKFIT
	 Reference Energy          =    -463.8936314489795905 [Eh]
	 Singles Energy            =      -0.0000000000000000 [Eh]
	 Same-Spin Energy          =      -0.5194300420362405 [Eh]
	 Opposite-Spin Energy      =      -1.7261084197309768 [Eh]
	 Correlation Energy        =      -2.2455384617672172 [Eh]
	 Total Energy              =    -466.1391699107468298 [Eh]

	 ================> DF-SCS-MP2 Energies <==================
	-----------------------------------------------------------
	 SCS Same-Spin Scale       =       0.3333333333333333 [-]
	 SCS Opposite-Spin Scale   =       1.2000000000000000 [-]
	 SCS Same-Spin Energy      =      -0.1731433473454135 [Eh]
	 SCS Opposite-Spin Energy  =      -2.0713301036771723 [Eh]
	 SCS Correlation Energy    =      -2.2444734510225857 [Eh]
	 SCS Total Energy          =    -466.1381049000021903 [Eh]
	-----------------------------------------------------------

  Dipole Moment: [D]
     X:    -0.5613      Y:    -0.1834      Z:     0.0386     Total:     0.5918

*** Psi4 exiting successfully. Buy a developer a beer!
