                               Psi4 1.4a3.dev225

  ==> Input File <==

--------------------------------------------------------------------------
#psi4
#
memory 32 gb

molecule  {
0 1
  C       -0.4426020    -0.8338200     0.2172010
  C       -2.7550300    -0.2335230    -0.2686280
  C       -1.3774709    -0.3649582    -0.9213843
  C       -1.1456910    -0.3766540     1.5340440
  C       -2.4139240     0.3715680     1.0951880
  C        0.9762580    -0.3476150     0.0696660
  C       -3.7696470     0.5602740    -1.0788290
  C        1.2785260     1.0190760     0.1766520
  C        2.0223850    -1.2394820    -0.1958260
  C        2.5868840     1.4777510     0.0263980
  C        3.3346800    -0.7855870    -0.3490730
  C        3.6209360     0.5756970    -0.2390260
  H       -0.4241810    -1.9311060     0.1924250
  H       -3.1414670    -1.2511910    -0.1070860
  H       -1.0573430     0.6588960    -1.2471640
  H       -1.3450850    -0.9967850    -1.7909970
  H       -0.4862050     0.2392810     2.1528250
  H       -1.4122900    -1.2543580     2.1330320
  H       -3.2323950     0.2935880     1.8197160
  H       -2.2008590     1.4410770     0.9595580
  H       -3.4037750     1.5784440    -1.2516650
  H       -3.9506210     0.0965540    -2.0538340
  H       -4.7289130     0.6299820    -0.5557020
  H        0.4812350     1.7322070     0.3831320
  H        1.8065840    -2.3037040    -0.2799060
  H        2.8010350     2.5405970     0.1152150
  H        4.1326410    -1.4960120    -0.5534930
  H        4.6413930     0.9324010    -0.3562540
units angstrom
no_reorient  #important for SAPT in psi4, default
symmetry c1  #important for SAPT in psi4, default
}

set PROPERTIES_ORIGIN ["COM"]
properties('MP2/aug-cc-pvtz', properties = ['dipole'])
--------------------------------------------------------------------------

    Molecular point group: c1
  Charge       = 0
  Multiplicity = 1
  Basis Set: AUG-CC-PVTZ
    Blend: AUG-CC-PVTZ
  Basis Set: (AUG-CC-PVTZ AUX)
    Blend: AUG-CC-PVTZ-JKFIT

    Orbital Energies [Eh]
    ---------------------

    Doubly Occupied:

       1A    -11.236503     2A    -11.233496     3A    -11.232792
       4A    -11.228934     5A    -11.228420     6A    -11.228367
       7A    -11.228135     8A    -11.221325     9A    -11.216944
      10A    -11.215110    11A    -11.215009    12A    -11.211602
      13A     -1.155779    14A     -1.124474    15A     -1.039347
      16A     -1.008388    17A     -0.988457    18A     -0.954410
      19A     -0.892524    20A     -0.826214    21A     -0.816342
      22A     -0.762940    23A     -0.757230    24A     -0.689842
      25A     -0.662341    26A     -0.635242    27A     -0.621327
      28A     -0.606563    29A     -0.585611    30A     -0.579312
      31A     -0.572443    32A     -0.556756    33A     -0.527725
      34A     -0.510676    35A     -0.510351    36A     -0.489897
      37A     -0.479261    38A     -0.463528    39A     -0.461089
      40A     -0.450684    41A     -0.448435    42A     -0.444894
      43A     -0.332255    44A     -0.318913

  @DF-RHF Final Energy:  -463.89360571196136

   => Energetics <=

    Nuclear Repulsion Energy =            675.7677967691734011
    One-Electron Energy =               -1967.3830375998720683
    Two-Electron Energy =                 827.7216351187373675
    Total Energy =                       -463.8936057119612997
  Basis Set: (AUG-CC-PVTZ AUX)
    Blend: AUG-CC-PVTZ-RI
    Molecular point group: c1

    Geometry (in Angstrom), charge = 0, multiplicity = 1:

       Center              X                  Y                   Z               Mass
    ------------   -----------------  -----------------  -----------------  -----------------
         C           -0.513629276576    -0.826261616771     0.214996788325    12.000000000000
         C           -2.826057276576    -0.225964616771    -0.270832211675    12.000000000000
         C           -1.448498176576    -0.357399816771    -0.923588511675    12.000000000000
         C           -1.216718276576    -0.369095616771     1.531839788325    12.000000000000
         C           -2.484951276576     0.379126383229     1.092983788325    12.000000000000
         C            0.905230723424    -0.340056616771     0.067461788325    12.000000000000
         C           -3.840674276576     0.567832383229    -1.081033211675    12.000000000000
         C            1.207498723424     1.026634383229     0.174447788325    12.000000000000
         C            1.951357723424    -1.231923616771    -0.198030211675    12.000000000000
         C            2.515856723424     1.485309383229     0.024193788325    12.000000000000
         C            3.263652723424    -0.778028616771    -0.351277211675    12.000000000000
         C            3.549908723424     0.583255383229    -0.241230211675    12.000000000000
         H           -0.495208276576    -1.923547616771     0.190220788325     1.007825032230
         H           -3.212494276576    -1.243632616771    -0.109290211675     1.007825032230
         H           -1.128370276576     0.666454383229    -1.249368211675     1.007825032230
         H           -1.416112276576    -0.989226616771    -1.793201211675     1.007825032230
         H           -0.557232276576     0.246839383229     2.150620788325     1.007825032230
         H           -1.483317276576    -1.246799616771     2.130827788325     1.007825032230
         H           -3.303422276576     0.301146383229     1.817511788325     1.007825032230
         H           -2.271886276576     1.448635383229     0.957353788325     1.007825032230
         H           -3.474802276576     1.586002383229    -1.253869211675     1.007825032230
         H           -4.021648276576     0.104112383229    -2.056038211675     1.007825032230
         H           -4.799940276576     0.637540383229    -0.557906211675     1.007825032230
         H            0.410207723424     1.739765383229     0.380927788325     1.007825032230
         H            1.735556723424    -2.296145616771    -0.282110211675     1.007825032230
         H            2.730007723424     2.548155383229     0.113010788325     1.007825032230
         H            4.061613723424    -1.488453616771    -0.555697211675     1.007825032230
         H            4.570365723424     0.939959383229    -0.358458211675     1.007825032230

  Basis Set: AUG-CC-PVTZ
    Blend: AUG-CC-PVTZ
  Basis Set: (AUG-CC-PVTZ AUX)
    Blend: AUG-CC-PVTZ-JKFIT
	 Reference Energy          =    -463.8936057119613565 [Eh]
	 Singles Energy            =      -0.0000000000000000 [Eh]
	 Same-Spin Energy          =      -0.5195058736183186 [Eh]
	 Opposite-Spin Energy      =      -1.7264689373305218 [Eh]
	 Correlation Energy        =      -2.2459748109488404 [Eh]
	 Total Energy              =    -466.1395805229101938 [Eh]

	 ================> DF-SCS-MP2 Energies <==================
	-----------------------------------------------------------
	 SCS Same-Spin Scale       =       0.3333333333333333 [-]
	 SCS Opposite-Spin Scale   =       1.2000000000000000 [-]
	 SCS Same-Spin Energy      =      -0.1731686245394395 [Eh]
	 SCS Opposite-Spin Energy  =      -2.0717627247966259 [Eh]
	 SCS Correlation Energy    =      -2.2449313493360656 [Eh]
	 SCS Total Energy          =    -466.1385370612974270 [Eh]
	-----------------------------------------------------------

  Dipole Moment: [D]
     X:    -0.5704      Y:    -0.2168      Z:     0.0365     Total:     0.6113

*** Psi4 exiting successfully. Buy a developer a beer!
