                               Psi4 1.4a3.dev225

  ==> Input File <==

--------------------------------------------------------------------------
#psi4
#
memory 32 gb

molecule  {
0 1
  C       -0.4426020    -0.8338200     0.2172010
  C       -2.7550300    -0.2335230    -0.2686280
  C       -1.3727340    -0.3393290    -0.9144000
  C       -1.1456910    -0.3766540     1.5340440
  C       -2.4139240     0.3715680     1.0951880
  C        0.9950871    -0.3411628     0.0677081
  C       -3.7696470     0.5602740    -1.0788290
  C        1.2785260     1.0190760     0.1766520
  C        2.0223850    -1.2394820    -0.1958260
  C        2.5868840     1.4777510     0.0263980
  C        3.3346800    -0.7855870    -0.3490730
  C        3.6209360     0.5756970    -0.2390260
  H       -0.4241810    -1.9311060     0.1924250
  H       -3.1414670    -1.2511910    -0.1070860
  H       -1.0573430     0.6588960    -1.2471640
  H       -1.3450850    -0.9967850    -1.7909970
  H       -0.4862050     0.2392810     2.1528250
  H       -1.4122900    -1.2543580     2.1330320
  H       -3.2323950     0.2935880     1.8197160
  H       -2.2008590     1.4410770     0.9595580
  H       -3.4037750     1.5784440    -1.2516650
  H       -3.9506210     0.0965540    -2.0538340
  H       -4.7289130     0.6299820    -0.5557020
  H        0.4812350     1.7322070     0.3831320
  H        1.8065840    -2.3037040    -0.2799060
  H        2.8010350     2.5405970     0.1152150
  H        4.1326410    -1.4960120    -0.5534930
  H        4.6413930     0.9324010    -0.3562540
units angstrom
no_reorient  #important for SAPT in psi4, default
symmetry c1  #important for SAPT in psi4, default
}

set PROPERTIES_ORIGIN ["COM"]
properties('MP2/aug-cc-pvtz', properties = ['dipole'])
--------------------------------------------------------------------------

    Molecular point group: c1
  Charge       = 0
  Multiplicity = 1
  Basis Set: AUG-CC-PVTZ
    Blend: AUG-CC-PVTZ
  Basis Set: (AUG-CC-PVTZ AUX)
    Blend: AUG-CC-PVTZ-JKFIT

    Orbital Energies [Eh]
    ---------------------

    Doubly Occupied:

       1A    -11.235047     2A    -11.233675     3A    -11.232932
       4A    -11.228910     5A    -11.228835     6A    -11.227486
       7A    -11.227124     8A    -11.220875     9A    -11.216239
      10A    -11.214589    11A    -11.214244    12A    -11.211371
      13A     -1.156661    14A     -1.124900    15A     -1.037930
      16A     -1.009588    17A     -0.988674    18A     -0.953651
      19A     -0.891712    20A     -0.826887    21A     -0.815702
      22A     -0.763222    23A     -0.757021    24A     -0.690415
      25A     -0.659764    26A     -0.633884    27A     -0.622157
      28A     -0.606506    29A     -0.587055    30A     -0.580631
      31A     -0.573112    32A     -0.555581    33A     -0.528432
      34A     -0.510502    35A     -0.510305    36A     -0.491772
      37A     -0.474313    38A     -0.463073    39A     -0.460769
      40A     -0.452185    41A     -0.450304    42A     -0.442279
      43A     -0.332748    44A     -0.320729

  @DF-RHF Final Energy:  -463.89451022283083

   => Energetics <=

    Nuclear Repulsion Energy =            675.9433231327127487
    One-Electron Energy =               -1967.7480827015313025
    Two-Electron Energy =                 827.9102493459877223
    Total Energy =                       -463.8945102228308315
  Basis Set: (AUG-CC-PVTZ AUX)
    Blend: AUG-CC-PVTZ-RI
    Molecular point group: c1

    Geometry (in Angstrom), charge = 0, multiplicity = 1:

       Center              X                  Y                   Z               Mass
    ------------   -----------------  -----------------  -----------------  -----------------
         C           -0.515395344622    -0.828665840458     0.214620103082    12.000000000000
         C           -2.827823344622    -0.228368840458    -0.271208896918    12.000000000000
         C           -1.445527344622    -0.334174840458    -0.916980896918    12.000000000000
         C           -1.218484344622    -0.371499840458     1.531463103082    12.000000000000
         C           -2.486717344622     0.376722159542     1.092607103082    12.000000000000
         C            0.922293755378    -0.336008640458     0.065127203082    12.000000000000
         C           -3.842440344622     0.565428159542    -1.081409896918    12.000000000000
         C            1.205732655378     1.024230159542     0.174071103082    12.000000000000
         C            1.949591655378    -1.234327840458    -0.198406896918    12.000000000000
         C            2.514090655378     1.482905159542     0.023817103082    12.000000000000
         C            3.261886655378    -0.780432840458    -0.351653896918    12.000000000000
         C            3.548142655378     0.580851159542    -0.241606896918    12.000000000000
         H           -0.496974344622    -1.925951840458     0.189844103082     1.007825032230
         H           -3.214260344622    -1.246036840458    -0.109666896918     1.007825032230
         H           -1.130136344622     0.664050159542    -1.249744896918     1.007825032230
         H           -1.417878344622    -0.991630840458    -1.793577896918     1.007825032230
         H           -0.558998344622     0.244435159542     2.150244103082     1.007825032230
         H           -1.485083344622    -1.249203840458     2.130451103082     1.007825032230
         H           -3.305188344622     0.298742159542     1.817135103082     1.007825032230
         H           -2.273652344622     1.446231159542     0.956977103082     1.007825032230
         H           -3.476568344622     1.583598159542    -1.254245896918     1.007825032230
         H           -4.023414344622     0.101708159542    -2.056414896918     1.007825032230
         H           -4.801706344622     0.635136159542    -0.558282896918     1.007825032230
         H            0.408441655378     1.737361159542     0.380551103082     1.007825032230
         H            1.733790655378    -2.298549840458    -0.282486896918     1.007825032230
         H            2.728241655378     2.545751159542     0.112634103082     1.007825032230
         H            4.059847655378    -1.490857840458    -0.556073896918     1.007825032230
         H            4.568599655378     0.937555159542    -0.358834896918     1.007825032230

  Basis Set: AUG-CC-PVTZ
    Blend: AUG-CC-PVTZ
  Basis Set: (AUG-CC-PVTZ AUX)
    Blend: AUG-CC-PVTZ-JKFIT
	 Reference Energy          =    -463.8945102228308315 [Eh]
	 Singles Energy            =      -0.0000000000000000 [Eh]
	 Same-Spin Energy          =      -0.5193060240769963 [Eh]
	 Opposite-Spin Energy      =      -1.7261075705615427 [Eh]
	 Correlation Energy        =      -2.2454135946385390 [Eh]
	 Total Energy              =    -466.1399238174693664 [Eh]

	 ================> DF-SCS-MP2 Energies <==================
	-----------------------------------------------------------
	 SCS Same-Spin Scale       =       0.3333333333333333 [-]
	 SCS Opposite-Spin Scale   =       1.2000000000000000 [-]
	 SCS Same-Spin Energy      =      -0.1731020080256654 [Eh]
	 SCS Opposite-Spin Energy  =      -2.0713290846738510 [Eh]
	 SCS Correlation Energy    =      -2.2444310926995166 [Eh]
	 SCS Total Energy          =    -466.1389413155303600 [Eh]
	-----------------------------------------------------------

  Dipole Moment: [D]
     X:    -0.5310      Y:    -0.2002      Z:     0.0345     Total:     0.5685

*** Psi4 exiting successfully. Buy a developer a beer!
