                               Psi4 1.4a3.dev225

  ==> Input File <==

--------------------------------------------------------------------------
#psi4
#
memory 32 gb

molecule  {
0 1
  C       -0.4426020    -0.8338200     0.2172010
  C       -2.7550300    -0.2335230    -0.2686280
  C       -1.3727340    -0.3393290    -0.9144000
  C       -1.1456910    -0.3766540     1.5340440
  C       -2.4139240     0.3715680     1.0951880
  C        0.9762580    -0.3476150     0.0696660
  C       -3.7696470     0.5602740    -1.0788290
  C        1.2785260     1.0190760     0.1766520
  C        2.0223850    -1.2394820    -0.1958260
  C        2.5868840     1.4777510     0.0263980
  C        3.2826203    -0.6508807    -0.3261293
  C        3.6209360     0.5756970    -0.2390260
  H       -0.4241810    -1.9311060     0.1924250
  H       -3.1414670    -1.2511910    -0.1070860
  H       -1.0573430     0.6588960    -1.2471640
  H       -1.3450850    -0.9967850    -1.7909970
  H       -0.4862050     0.2392810     2.1528250
  H       -1.4122900    -1.2543580     2.1330320
  H       -3.2323950     0.2935880     1.8197160
  H       -2.2008590     1.4410770     0.9595580
  H       -3.4037750     1.5784440    -1.2516650
  H       -3.9506210     0.0965540    -2.0538340
  H       -4.7289130     0.6299820    -0.5557020
  H        0.4812350     1.7322070     0.3831320
  H        1.8065840    -2.3037040    -0.2799060
  H        2.8010350     2.5405970     0.1152150
  H        4.1326410    -1.4960120    -0.5534930
  H        4.6413930     0.9324010    -0.3562540
units angstrom
no_reorient  #important for SAPT in psi4, default
symmetry c1  #important for SAPT in psi4, default
}

set PROPERTIES_ORIGIN ["COM"]
properties('MP2/aug-cc-pvtz', properties = ['dipole'])
--------------------------------------------------------------------------

    Molecular point group: c1
  Charge       = 0
  Multiplicity = 1
  Basis Set: AUG-CC-PVTZ
    Blend: AUG-CC-PVTZ
  Basis Set: (AUG-CC-PVTZ AUX)
    Blend: AUG-CC-PVTZ-JKFIT

    Orbital Energies [Eh]
    ---------------------

    Doubly Occupied:

       1A    -11.236830     2A    -11.234849     3A    -11.229844
       4A    -11.228187     5A    -11.227387     6A    -11.226830
       7A    -11.221486     8A    -11.217085     9A    -11.215191
      10A    -11.215152    11A    -11.214406    12A    -11.211811
      13A     -1.166405    14A     -1.130505    15A     -1.049061
      16A     -1.004971    17A     -0.992630    18A     -0.957004
      19A     -0.894299    20A     -0.828056    21A     -0.817188
      22A     -0.764024    23A     -0.749519    24A     -0.696458
      25A     -0.662439    26A     -0.633035    27A     -0.627141
      28A     -0.601101    29A     -0.588254    30A     -0.580547
      31A     -0.564069    32A     -0.558674    33A     -0.532159
      34A     -0.517802    35A     -0.510546    36A     -0.486078
      37A     -0.474495    38A     -0.467583    39A     -0.457693
      40A     -0.453075    41A     -0.448710    42A     -0.436260
      43A     -0.336245    44A     -0.325144

  @DF-RHF Final Energy:  -463.86682086948213

   => Energetics <=

    Nuclear Repulsion Energy =            678.4159469852251050
    One-Electron Energy =               -1972.5850743764669915
    Two-Electron Energy =                 830.3023065217598742
    Total Energy =                       -463.8668208694821260
  Basis Set: (AUG-CC-PVTZ AUX)
    Blend: AUG-CC-PVTZ-RI
    Molecular point group: c1

    Geometry (in Angstrom), charge = 0, multiplicity = 1:

       Center              X                  Y                   Z               Mass
    ------------   -----------------  -----------------  -----------------  -----------------
         C           -0.510082841672    -0.838277376900     0.212753943358    12.000000000000
         C           -2.822510841672    -0.237980376900    -0.273075056642    12.000000000000
         C           -1.440214841672    -0.343786376900    -0.918847056642    12.000000000000
         C           -1.213171841672    -0.381111376900     1.529596943358    12.000000000000
         C           -2.481404841672     0.367110623100     1.090740943358    12.000000000000
         C            0.908777158328    -0.352072376900     0.065218943358    12.000000000000
         C           -3.837127841672     0.555816623100    -1.083276056642    12.000000000000
         C            1.211045158328     1.014618623100     0.172204943358    12.000000000000
         C            1.954904158328    -1.243939376900    -0.200273056642    12.000000000000
         C            2.519403158328     1.473293623100     0.021950943358    12.000000000000
         C            3.215139458328    -0.655338076900    -0.330576356642    12.000000000000
         C            3.553455158328     0.571239623100    -0.243473056642    12.000000000000
         H           -0.491661841672    -1.935563376900     0.187977943358     1.007825032230
         H           -3.208947841672    -1.255648376900    -0.111533056642     1.007825032230
         H           -1.124823841672     0.654438623100    -1.251611056642     1.007825032230
         H           -1.412565841672    -1.001242376900    -1.795444056642     1.007825032230
         H           -0.553685841672     0.234823623100     2.148377943358     1.007825032230
         H           -1.479770841672    -1.258815376900     2.128584943358     1.007825032230
         H           -3.299875841672     0.289130623100     1.815268943358     1.007825032230
         H           -2.268339841672     1.436619623100     0.955110943358     1.007825032230
         H           -3.471255841672     1.573986623100    -1.256112056642     1.007825032230
         H           -4.018101841672     0.092096623100    -2.058281056642     1.007825032230
         H           -4.796393841672     0.625524623100    -0.560149056642     1.007825032230
         H            0.413754158328     1.727749623100     0.378684943358     1.007825032230
         H            1.739103158328    -2.308161376900    -0.284353056642     1.007825032230
         H            2.733554158328     2.536139623100     0.110767943358     1.007825032230
         H            4.065160158328    -1.500469376900    -0.557940056642     1.007825032230
         H            4.573912158328     0.927943623100    -0.360701056642     1.007825032230

  Basis Set: AUG-CC-PVTZ
    Blend: AUG-CC-PVTZ
  Basis Set: (AUG-CC-PVTZ AUX)
    Blend: AUG-CC-PVTZ-JKFIT
	 Reference Energy          =    -463.8668208694821260 [Eh]
	 Singles Energy            =      -0.0000000000000000 [Eh]
	 Same-Spin Energy          =      -0.5196957409447637 [Eh]
	 Opposite-Spin Energy      =      -1.7268729470207025 [Eh]
	 Correlation Energy        =      -2.2465686879654663 [Eh]
	 Total Energy              =    -466.1133895574475901 [Eh]

	 ================> DF-SCS-MP2 Energies <==================
	-----------------------------------------------------------
	 SCS Same-Spin Scale       =       0.3333333333333333 [-]
	 SCS Opposite-Spin Scale   =       1.2000000000000000 [-]
	 SCS Same-Spin Energy      =      -0.1732319136482545 [Eh]
	 SCS Opposite-Spin Energy  =      -2.0722475364248427 [Eh]
	 SCS Correlation Energy    =      -2.2454794500730975 [Eh]
	 SCS Total Energy          =    -466.1123003195552315 [Eh]
	-----------------------------------------------------------

  Dipole Moment: [D]
     X:    -0.6622      Y:    -0.1299      Z:     0.0602     Total:     0.6775

*** Psi4 exiting successfully. Buy a developer a beer!
