                               Psi4 1.4a3.dev225

  ==> Input File <==

--------------------------------------------------------------------------
#psi4
#
memory 32 gb

molecule  {
0 1
  C       -0.4426020    -0.8338200     0.2172010
  C       -2.7550300    -0.2335230    -0.2686280
  C       -1.3677138    -0.3138504    -0.9070710
  C       -1.1456910    -0.3766540     1.5340440
  C       -2.4139240     0.3715680     1.0951880
  C        0.9762580    -0.3476150     0.0696660
  C       -3.7696470     0.5602740    -1.0788290
  C        1.2785260     1.0190760     0.1766520
  C        2.0223850    -1.2394820    -0.1958260
  C        2.5868840     1.4777510     0.0263980
  C        3.3346800    -0.7855870    -0.3490730
  C        3.6209360     0.5756970    -0.2390260
  H       -0.4241810    -1.9311060     0.1924250
  H       -3.1414670    -1.2511910    -0.1070860
  H       -1.0573430     0.6588960    -1.2471640
  H       -1.3450850    -0.9967850    -1.7909970
  H       -0.4862050     0.2392810     2.1528250
  H       -1.4122900    -1.2543580     2.1330320
  H       -3.2323950     0.2935880     1.8197160
  H       -2.2008590     1.4410770     0.9595580
  H       -3.4037750     1.5784440    -1.2516650
  H       -3.9506210     0.0965540    -2.0538340
  H       -4.7289130     0.6299820    -0.5557020
  H        0.4812350     1.7322070     0.3831320
  H        1.8065840    -2.3037040    -0.2799060
  H        2.8010350     2.5405970     0.1152150
  H        4.1326410    -1.4960120    -0.5534930
  H        4.6413930     0.9324010    -0.3562540
units angstrom
no_reorient  #important for SAPT in psi4, default
symmetry c1  #important for SAPT in psi4, default
}

set PROPERTIES_ORIGIN ["COM"]
properties('MP2/aug-cc-pvtz', properties = ['dipole'])
--------------------------------------------------------------------------

    Molecular point group: c1
  Charge       = 0
  Multiplicity = 1
  Basis Set: AUG-CC-PVTZ
    Blend: AUG-CC-PVTZ
  Basis Set: (AUG-CC-PVTZ AUX)
    Blend: AUG-CC-PVTZ-JKFIT

    Orbital Energies [Eh]
    ---------------------

    Doubly Occupied:

       1A    -11.236493     2A    -11.233671     3A    -11.232897
       4A    -11.228916     5A    -11.228478     6A    -11.228427
       7A    -11.228089     8A    -11.221147     9A    -11.216479
      10A    -11.214707    11A    -11.214652    12A    -11.211585
      13A     -1.156233    14A     -1.125163    15A     -1.039629
      16A     -1.008485    17A     -0.988473    18A     -0.953260
      19A     -0.892844    20A     -0.826556    21A     -0.816062
      22A     -0.764669    23A     -0.757197    24A     -0.689934
      25A     -0.658527    26A     -0.635213    27A     -0.622430
      28A     -0.606501    29A     -0.586779    30A     -0.580764
      31A     -0.574373    32A     -0.555477    33A     -0.529537
      34A     -0.511178    35A     -0.509758    36A     -0.490270
      37A     -0.471478    38A     -0.464605    39A     -0.460941
      40A     -0.456153    41A     -0.451315    42A     -0.442337
      43A     -0.332429    44A     -0.318670

  @DF-RHF Final Energy:  -463.89355942954620

   => Energetics <=

    Nuclear Repulsion Energy =            676.1095914971035654
    One-Electron Energy =               -1968.0607440833789497
    Two-Electron Energy =                 828.0575931567291263
    Total Energy =                       -463.8935594295462579
  Basis Set: (AUG-CC-PVTZ AUX)
    Blend: AUG-CC-PVTZ-RI
    Molecular point group: c1

    Geometry (in Angstrom), charge = 0, multiplicity = 1:

       Center              X                  Y                   Z               Mass
    ------------   -----------------  -----------------  -----------------  -----------------
         C           -0.514360486901    -0.830091704715     0.213924130183    12.000000000000
         C           -2.826788486901    -0.229794704715    -0.271904869817    12.000000000000
         C           -1.439472286901    -0.310122104715    -0.910347869817    12.000000000000
         C           -1.217449486901    -0.372925704715     1.530767130183    12.000000000000
         C           -2.485682486901     0.375296295285     1.091911130183    12.000000000000
         C            0.904499513099    -0.343886704715     0.066389130183    12.000000000000
         C           -3.841405486901     0.564002295285    -1.082105869817    12.000000000000
         C            1.206767513099     1.022804295285     0.173375130183    12.000000000000
         C            1.950626513099    -1.235753704715    -0.199102869817    12.000000000000
         C            2.515125513099     1.481479295285     0.023121130183    12.000000000000
         C            3.262921513099    -0.781858704715    -0.352349869817    12.000000000000
         C            3.549177513099     0.579425295285    -0.242302869817    12.000000000000
         H           -0.495939486901    -1.927377704715     0.189148130183     1.007825032230
         H           -3.213225486901    -1.247462704715    -0.110362869817     1.007825032230
         H           -1.129101486901     0.662624295285    -1.250440869817     1.007825032230
         H           -1.416843486901    -0.993056704715    -1.794273869817     1.007825032230
         H           -0.557963486901     0.243009295285     2.149548130183     1.007825032230
         H           -1.484048486901    -1.250629704715     2.129755130183     1.007825032230
         H           -3.304153486901     0.297316295285     1.816439130183     1.007825032230
         H           -2.272617486901     1.444805295285     0.956281130183     1.007825032230
         H           -3.475533486901     1.582172295285    -1.254941869817     1.007825032230
         H           -4.022379486901     0.100282295285    -2.057110869817     1.007825032230
         H           -4.800671486901     0.633710295285    -0.558978869817     1.007825032230
         H            0.409476513099     1.735935295285     0.379855130183     1.007825032230
         H            1.734825513099    -2.299975704715    -0.283182869817     1.007825032230
         H            2.729276513099     2.544325295285     0.111938130183     1.007825032230
         H            4.060882513099    -1.492283704715    -0.556769869817     1.007825032230
         H            4.569634513099     0.936129295285    -0.359530869817     1.007825032230

  Basis Set: AUG-CC-PVTZ
    Blend: AUG-CC-PVTZ
  Basis Set: (AUG-CC-PVTZ AUX)
    Blend: AUG-CC-PVTZ-JKFIT
	 Reference Energy          =    -463.8935594295462010 [Eh]
	 Singles Energy            =      -0.0000000000000000 [Eh]
	 Same-Spin Energy          =      -0.5195392190001211 [Eh]
	 Opposite-Spin Energy      =      -1.7264866290886409 [Eh]
	 Correlation Energy        =      -2.2460258480887623 [Eh]
	 Total Energy              =    -466.1395852776349784 [Eh]

	 ================> DF-SCS-MP2 Energies <==================
	-----------------------------------------------------------
	 SCS Same-Spin Scale       =       0.3333333333333333 [-]
	 SCS Opposite-Spin Scale   =       1.2000000000000000 [-]
	 SCS Same-Spin Energy      =      -0.1731797396667070 [Eh]
	 SCS Opposite-Spin Energy  =      -2.0717839549063690 [Eh]
	 SCS Correlation Energy    =      -2.2449636945730762 [Eh]
	 SCS Total Energy          =    -466.1385231241192741 [Eh]
	-----------------------------------------------------------

  Dipole Moment: [D]
     X:    -0.5688      Y:    -0.1892      Z:     0.0412     Total:     0.6009

*** Psi4 exiting successfully. Buy a developer a beer!
