                               Psi4 1.4a3.dev225

  ==> Input File <==

--------------------------------------------------------------------------
#psi4
#
memory 32 gb

molecule  {
0 1
  C       -0.4426020    -0.8338200     0.2172010
  C       -2.7550300    -0.2335230    -0.2686280
  C       -1.3727340    -0.3393290    -0.9144000
  C       -1.1456910    -0.3766540     1.5340440
  C       -2.4139240     0.3715680     1.0951880
  C        0.9762580    -0.3476150     0.0696660
  C       -3.7696470     0.5602740    -1.0788290
  C        1.2785260     1.0190760     0.1766520
  C        2.0223850    -1.2394820    -0.1958260
  C        2.5868840     1.4777510     0.0263980
  C        3.3346800    -0.7855870    -0.3490730
  C        3.6209360     0.5756970    -0.2390260
  H       -0.4241810    -1.9311060     0.1924250
  H       -3.1414670    -1.2511910    -0.1070860
  H       -1.0573430     0.6588960    -1.2471640
  H       -1.3450850    -0.9967850    -1.7909970
  H       -0.4862050     0.2392810     2.1528250
  H       -1.4122900    -1.2543580     2.1330320
  H       -3.2323950     0.2935880     1.8197160
  H       -2.2008590     1.4410770     0.9595580
  H       -3.4037750     1.5784440    -1.2516650
  H       -3.9506210     0.0965540    -2.0538340
  H       -4.7289130     0.6299820    -0.5557020
  H        0.4812350     1.7322070     0.3831320
  H        1.8065840    -2.3037040    -0.2799060
  H        2.8010350     2.5405970     0.1152150
  H        4.1179694    -1.4829499    -0.5497345
  H        4.6413930     0.9324010    -0.3562540
units angstrom
no_reorient  #important for SAPT in psi4, default
symmetry c1  #important for SAPT in psi4, default
}

set PROPERTIES_ORIGIN ["COM"]
properties('MP2/aug-cc-pvtz', properties = ['dipole'])
--------------------------------------------------------------------------

    Molecular point group: c1
  Charge       = 0
  Multiplicity = 1
  Basis Set: AUG-CC-PVTZ
    Blend: AUG-CC-PVTZ
  Basis Set: (AUG-CC-PVTZ AUX)
    Blend: AUG-CC-PVTZ-JKFIT

    Orbital Energies [Eh]
    ---------------------

    Doubly Occupied:

       1A    -11.236355     2A    -11.233440     3A    -11.230637
       4A    -11.228666     5A    -11.228348     6A    -11.228281
       7A    -11.227845     8A    -11.221128     9A    -11.216640
      10A    -11.214845    11A    -11.214685    12A    -11.211555
      13A     -1.155954    14A     -1.124807    15A     -1.039517
      16A     -1.008878    17A     -0.988463    18A     -0.953729
      19A     -0.892601    20A     -0.827372    21A     -0.816101
      22A     -0.763548    23A     -0.758018    24A     -0.690150
      25A     -0.660395    26A     -0.636180    27A     -0.621812
      28A     -0.607311    29A     -0.586419    30A     -0.580687
      31A     -0.573464    32A     -0.556081    33A     -0.528505
      34A     -0.511141    35A     -0.509929    36A     -0.490438
      37A     -0.475231    38A     -0.463326    39A     -0.461324
      40A     -0.453690    41A     -0.450257    42A     -0.443845
      43A     -0.332239    44A     -0.318686

  @DF-RHF Final Energy:  -463.89454098408726

   => Energetics <=

    Nuclear Repulsion Energy =            676.0452661735179163
    One-Electron Energy =               -1967.9345636105947506
    Two-Electron Energy =                 827.9947564529896908
    Total Energy =                       -463.8945409840872571
  Basis Set: (AUG-CC-PVTZ AUX)
    Blend: AUG-CC-PVTZ-RI
    Molecular point group: c1

    Geometry (in Angstrom), charge = 0, multiplicity = 1:

       Center              X                  Y                   Z               Mass
    ------------   -----------------  -----------------  -----------------  -----------------
         C           -0.513891923518    -0.828264516442     0.214449719468    12.000000000000
         C           -2.826319923518    -0.227967516442    -0.271379280532    12.000000000000
         C           -1.444023923518    -0.333773516442    -0.917151280532    12.000000000000
         C           -1.216980923518    -0.371098516442     1.531292719468    12.000000000000
         C           -2.485213923518     0.377123483558     1.092436719468    12.000000000000
         C            0.904968076482    -0.342059516442     0.066914719468    12.000000000000
         C           -3.840936923518     0.565829483558    -1.081580280532    12.000000000000
         C            1.207236076482     1.024631483558     0.173900719468    12.000000000000
         C            1.951095076482    -1.233926516442    -0.198577280532    12.000000000000
         C            2.515594076482     1.483306483558     0.023646719468    12.000000000000
         C            3.263390076482    -0.780031516442    -0.351824280532    12.000000000000
         C            3.549646076482     0.581252483558    -0.241777280532    12.000000000000
         H           -0.495470923518    -1.925550516442     0.189673719468     1.007825032230
         H           -3.212756923518    -1.245635516442    -0.109837280532     1.007825032230
         H           -1.128632923518     0.664451483558    -1.249915280532     1.007825032230
         H           -1.416374923518    -0.991229516442    -1.793748280532     1.007825032230
         H           -0.557494923518     0.244836483558     2.150073719468     1.007825032230
         H           -1.483579923518    -1.248802516442     2.130280719468     1.007825032230
         H           -3.303684923518     0.299143483558     1.816964719468     1.007825032230
         H           -2.272148923518     1.446632483558     0.956806719468     1.007825032230
         H           -3.475064923518     1.583999483558    -1.254416280532     1.007825032230
         H           -4.021910923518     0.102109483558    -2.056585280532     1.007825032230
         H           -4.800202923518     0.635537483558    -0.558453280532     1.007825032230
         H            0.409945076482     1.737762483558     0.380380719468     1.007825032230
         H            1.735294076482    -2.298148516442    -0.282657280532     1.007825032230
         H            2.729745076482     2.546152483558     0.112463719468     1.007825032230
         H            4.046679476482    -1.477394416442    -0.552485780532     1.007825032230
         H            4.570103076482     0.937956483558    -0.359005280532     1.007825032230

  Basis Set: AUG-CC-PVTZ
    Blend: AUG-CC-PVTZ
  Basis Set: (AUG-CC-PVTZ AUX)
    Blend: AUG-CC-PVTZ-JKFIT
	 Reference Energy          =    -463.8945409840872571 [Eh]
	 Singles Energy            =      -0.0000000000000000 [Eh]
	 Same-Spin Energy          =      -0.5194741346595690 [Eh]
	 Opposite-Spin Energy      =      -1.7262899796126328 [Eh]
	 Correlation Energy        =      -2.2457641142722018 [Eh]
	 Total Energy              =    -466.1403050983594767 [Eh]

	 ================> DF-SCS-MP2 Energies <==================
	-----------------------------------------------------------
	 SCS Same-Spin Scale       =       0.3333333333333333 [-]
	 SCS Opposite-Spin Scale   =       1.2000000000000000 [-]
	 SCS Same-Spin Energy      =      -0.1731580448865230 [Eh]
	 SCS Opposite-Spin Energy  =      -2.0715479755351591 [Eh]
	 SCS Correlation Energy    =      -2.2447060204216820 [Eh]
	 SCS Total Energy          =    -466.1392470045089453 [Eh]
	-----------------------------------------------------------

  Dipole Moment: [D]
     X:    -0.5612      Y:    -0.2079      Z:     0.0356     Total:     0.5995

*** Psi4 exiting successfully. Buy a developer a beer!
