                               Psi4 1.4a3.dev225

  ==> Input File <==

--------------------------------------------------------------------------
#psi4
#
memory 32 gb

molecule  {
0 1
  C       -0.4426020    -0.8338200     0.2172010
  C       -2.7550300    -0.2335230    -0.2686280
  C       -1.3727340    -0.3393290    -0.9144000
  C       -1.1456910    -0.3766540     1.5340440
  C       -2.4139240     0.3715680     1.0951880
  C        0.9762580    -0.3476150     0.0696660
  C       -3.7696470     0.5602740    -1.0788290
  C        1.2785260     1.0190760     0.1766520
  C        2.0223850    -1.2394820    -0.1958260
  C        2.5868840     1.4777510     0.0263980
  C        3.3346800    -0.7855870    -0.3490730
  C        3.6209360     0.5756970    -0.2390260
  H       -0.4241810    -1.9311060     0.1924250
  H       -3.1414670    -1.2511910    -0.1070860
  H       -1.0573430     0.6588960    -1.2471640
  H       -1.3450850    -0.9967850    -1.7909970
  H       -0.4862050     0.2392810     2.1528250
  H       -1.4122900    -1.2543580     2.1330320
  H       -3.2246815     0.1798383     1.8071069
  H       -2.2008590     1.4410770     0.9595580
  H       -3.4037750     1.5784440    -1.2516650
  H       -3.9506210     0.0965540    -2.0538340
  H       -4.7289130     0.6299820    -0.5557020
  H        0.4812350     1.7322070     0.3831320
  H        1.8065840    -2.3037040    -0.2799060
  H        2.8010350     2.5405970     0.1152150
  H        4.1326410    -1.4960120    -0.5534930
  H        4.6413930     0.9324010    -0.3562540
units angstrom
no_reorient  #important for SAPT in psi4, default
symmetry c1  #important for SAPT in psi4, default
}

set PROPERTIES_ORIGIN ["COM"]
properties('MP2/aug-cc-pvtz', properties = ['dipole'])
--------------------------------------------------------------------------

    Molecular point group: c1
  Charge       = 0
  Multiplicity = 1
  Basis Set: AUG-CC-PVTZ
    Blend: AUG-CC-PVTZ
  Basis Set: (AUG-CC-PVTZ AUX)
    Blend: AUG-CC-PVTZ-JKFIT

    Orbital Energies [Eh]
    ---------------------

    Doubly Occupied:

       1A    -11.236376     2A    -11.233567     3A    -11.232785
       4A    -11.228834     5A    -11.228400     6A    -11.227986
       7A    -11.227813     8A    -11.220559     9A    -11.216074
      10A    -11.214942    11A    -11.214303    12A    -11.211640
      13A     -1.155939    14A     -1.124985    15A     -1.039456
      16A     -1.008381    17A     -0.988615    18A     -0.953855
      19A     -0.892574    20A     -0.826251    21A     -0.815821
      22A     -0.761905    23A     -0.756657    24A     -0.689842
      25A     -0.661627    26A     -0.634849    27A     -0.622997
      28A     -0.605815    29A     -0.586715    30A     -0.580671
      31A     -0.573431    32A     -0.557682    33A     -0.528280
      34A     -0.511964    35A     -0.510040    36A     -0.490108
      37A     -0.472526    38A     -0.464051    39A     -0.460670
      40A     -0.453725    41A     -0.449869    42A     -0.443338
      43A     -0.332301    44A     -0.318609

  @DF-RHF Final Energy:  -463.89306381385734

   => Energetics <=

    Nuclear Repulsion Energy =            676.0286069880081641
    One-Electron Energy =               -1967.9096855521008820
    Two-Electron Energy =                 827.9880147502352656
    Total Energy =                       -463.8930638138573386
  Basis Set: (AUG-CC-PVTZ AUX)
    Blend: AUG-CC-PVTZ-RI
    Molecular point group: c1

    Geometry (in Angstrom), charge = 0, multiplicity = 1:

       Center              X                  Y                   Z               Mass
    ------------   -----------------  -----------------  -----------------  -----------------
         C           -0.514032814920    -0.827466365332     0.214552736838    12.000000000000
         C           -2.826460814920    -0.227169365332    -0.271276263162    12.000000000000
         C           -1.444164814920    -0.332975365332    -0.917048263162    12.000000000000
         C           -1.217121814920    -0.370300365332     1.531395736838    12.000000000000
         C           -2.485354814920     0.377921634668     1.092539736838    12.000000000000
         C            0.904827185080    -0.341261365332     0.067017736838    12.000000000000
         C           -3.841077814920     0.566627634668    -1.081477263162    12.000000000000
         C            1.207095185080     1.025429634668     0.174003736838    12.000000000000
         C            1.950954185080    -1.233128365332    -0.198474263162    12.000000000000
         C            2.515453185080     1.484104634668     0.023749736838    12.000000000000
         C            3.263249185080    -0.779233365332    -0.351721263162    12.000000000000
         C            3.549505185080     0.582050634668    -0.241674263162    12.000000000000
         H           -0.495611814920    -1.924752365332     0.189776736838     1.007825032230
         H           -3.212897814920    -1.244837365332    -0.109734263162     1.007825032230
         H           -1.128773814920     0.665249634668    -1.249812263162     1.007825032230
         H           -1.416515814920    -0.990431365332    -1.793645263162     1.007825032230
         H           -0.557635814920     0.245634634668     2.150176736838     1.007825032230
         H           -1.483720814920    -1.248004365332     2.130383736838     1.007825032230
         H           -3.296112314920     0.186191934668     1.804458636838     1.007825032230
         H           -2.272289814920     1.447430634668     0.956909736838     1.007825032230
         H           -3.475205814920     1.584797634668    -1.254313263162     1.007825032230
         H           -4.022051814920     0.102907634668    -2.056482263162     1.007825032230
         H           -4.800343814920     0.636335634668    -0.558350263162     1.007825032230
         H            0.409804185080     1.738560634668     0.380483736838     1.007825032230
         H            1.735153185080    -2.297350365332    -0.282554263162     1.007825032230
         H            2.729604185080     2.546950634668     0.112566736838     1.007825032230
         H            4.061210185080    -1.489658365332    -0.556141263162     1.007825032230
         H            4.569962185080     0.938754634668    -0.358902263162     1.007825032230

  Basis Set: AUG-CC-PVTZ
    Blend: AUG-CC-PVTZ
  Basis Set: (AUG-CC-PVTZ AUX)
    Blend: AUG-CC-PVTZ-JKFIT
	 Reference Energy          =    -463.8930638138573386 [Eh]
	 Singles Energy            =      -0.0000000000000000 [Eh]
	 Same-Spin Energy          =      -0.5196055514021443 [Eh]
	 Opposite-Spin Energy      =      -1.7267009381089762 [Eh]
	 Correlation Energy        =      -2.2463064895111202 [Eh]
	 Total Energy              =    -466.1393703033684801 [Eh]

	 ================> DF-SCS-MP2 Energies <==================
	-----------------------------------------------------------
	 SCS Same-Spin Scale       =       0.3333333333333333 [-]
	 SCS Opposite-Spin Scale   =       1.2000000000000000 [-]
	 SCS Same-Spin Energy      =      -0.1732018504673814 [Eh]
	 SCS Opposite-Spin Energy  =      -2.0720411257307711 [Eh]
	 SCS Correlation Energy    =      -2.2452429761981527 [Eh]
	 SCS Total Energy          =    -466.1383067900554806 [Eh]
	-----------------------------------------------------------

  Dipole Moment: [D]
     X:    -0.5737      Y:    -0.2301      Z:     0.0328     Total:     0.6190

*** Psi4 exiting successfully. Buy a developer a beer!
