                               Psi4 1.4a3.dev225

  ==> Input File <==

--------------------------------------------------------------------------
#psi4
#
memory 32 gb

molecule  {
0 1
  C       -0.4426020    -0.8338200     0.2172010
  C       -2.7550300    -0.2335230    -0.2686280
  C       -1.3727340    -0.3393290    -0.9144000
  C       -1.1456910    -0.3766540     1.5340440
  C       -2.4139240     0.3715680     1.0951880
  C        0.9762580    -0.3476150     0.0696660
  C       -3.7696470     0.5602740    -1.0788290
  C        1.2785260     1.0190760     0.1766520
  C        2.0223850    -1.2394820    -0.1958260
  C        2.5868840     1.4777510     0.0263980
  C        3.3346800    -0.7855870    -0.3490730
  C        3.5195746     0.4702735    -0.2353121
  H       -0.4241810    -1.9311060     0.1924250
  H       -3.1414670    -1.2511910    -0.1070860
  H       -1.0573430     0.6588960    -1.2471640
  H       -1.3450850    -0.9967850    -1.7909970
  H       -0.4862050     0.2392810     2.1528250
  H       -1.4122900    -1.2543580     2.1330320
  H       -3.2323950     0.2935880     1.8197160
  H       -2.2008590     1.4410770     0.9595580
  H       -3.4037750     1.5784440    -1.2516650
  H       -3.9506210     0.0965540    -2.0538340
  H       -4.7289130     0.6299820    -0.5557020
  H        0.4812350     1.7322070     0.3831320
  H        1.8065840    -2.3037040    -0.2799060
  H        2.8010350     2.5405970     0.1152150
  H        4.1326410    -1.4960120    -0.5534930
  H        4.6413930     0.9324010    -0.3562540
units angstrom
no_reorient  #important for SAPT in psi4, default
symmetry c1  #important for SAPT in psi4, default
}

set PROPERTIES_ORIGIN ["COM"]
properties('MP2/aug-cc-pvtz', properties = ['dipole'])
--------------------------------------------------------------------------

    Molecular point group: c1
  Charge       = 0
  Multiplicity = 1
  Basis Set: AUG-CC-PVTZ
    Blend: AUG-CC-PVTZ
  Basis Set: (AUG-CC-PVTZ AUX)
    Blend: AUG-CC-PVTZ-JKFIT

    Orbital Energies [Eh]
    ---------------------

    Doubly Occupied:

       1A    -11.234197     2A    -11.234018     3A    -11.230031
       4A    -11.228623     5A    -11.227904     6A    -11.226940
       7A    -11.220962     8A    -11.217125     9A    -11.216392
      10A    -11.214718    11A    -11.214318    12A    -11.211477
      13A     -1.166445    14A     -1.129811    15A     -1.045400
      16A     -1.015796    17A     -0.988698    18A     -0.952932
      19A     -0.891467    20A     -0.832625    21A     -0.813746
      22A     -0.763532    23A     -0.757633    24A     -0.685263
      25A     -0.660700    26A     -0.631525    27A     -0.626167
      28A     -0.607427    29A     -0.596950    30A     -0.582597
      31A     -0.570813    32A     -0.552838    33A     -0.523667
      34A     -0.517892    35A     -0.502767    36A     -0.488026
      37A     -0.472672    38A     -0.467455    39A     -0.457829
      40A     -0.451458    41A     -0.449803    42A     -0.439513
      43A     -0.340053    44A     -0.321357

  @DF-RHF Final Energy:  -463.86632530215871

   => Energetics <=

    Nuclear Repulsion Energy =            678.6274155159921975
    One-Electron Energy =               -1973.0243583764904542
    Two-Electron Energy =                 830.5306175583394861
    Total Energy =                       -463.8663253021587707
  Basis Set: (AUG-CC-PVTZ AUX)
    Blend: AUG-CC-PVTZ-RI
    Molecular point group: c1

    Geometry (in Angstrom), charge = 0, multiplicity = 1:

       Center              X                  Y                   Z               Mass
    ------------   -----------------  -----------------  -----------------  -----------------
         C           -0.506388105315    -0.820281723557     0.214195050687    12.000000000000
         C           -2.818816105315    -0.219984723557    -0.271633949313    12.000000000000
         C           -1.436520105315    -0.325790723557    -0.917405949313    12.000000000000
         C           -1.209477105315    -0.363115723557     1.531038050687    12.000000000000
         C           -2.477710105315     0.385106276443     1.092182050687    12.000000000000
         C            0.912471894685    -0.334076723557     0.066660050687    12.000000000000
         C           -3.833433105315     0.573812276443    -1.081834949313    12.000000000000
         C            1.214739894685     1.032614276443     0.173646050687    12.000000000000
         C            1.958598894685    -1.225943723557    -0.198831949313    12.000000000000
         C            2.523097894685     1.491289276443     0.023392050687    12.000000000000
         C            3.270893894685    -0.772048723557    -0.352078949313    12.000000000000
         C            3.455788494685     0.483811776443    -0.238318049313    12.000000000000
         H           -0.487967105315    -1.917567723557     0.189419050687     1.007825032230
         H           -3.205253105315    -1.237652723557    -0.110091949313     1.007825032230
         H           -1.121129105315     0.672434276443    -1.250169949313     1.007825032230
         H           -1.408871105315    -0.983246723557    -1.794002949313     1.007825032230
         H           -0.549991105315     0.252819276443     2.149819050687     1.007825032230
         H           -1.476076105315    -1.240819723557     2.130026050687     1.007825032230
         H           -3.296181105315     0.307126276443     1.816710050687     1.007825032230
         H           -2.264645105315     1.454615276443     0.956552050687     1.007825032230
         H           -3.467561105315     1.591982276443    -1.254670949313     1.007825032230
         H           -4.014407105315     0.110092276443    -2.056839949313     1.007825032230
         H           -4.792699105315     0.643520276443    -0.558707949313     1.007825032230
         H            0.417448894685     1.745745276443     0.380126050687     1.007825032230
         H            1.742797894685    -2.290165723557    -0.282911949313     1.007825032230
         H            2.737248894685     2.554135276443     0.112209050687     1.007825032230
         H            4.068854894685    -1.482473723557    -0.556498949313     1.007825032230
         H            4.577606894685     0.945939276443    -0.359259949313     1.007825032230

  Basis Set: AUG-CC-PVTZ
    Blend: AUG-CC-PVTZ
  Basis Set: (AUG-CC-PVTZ AUX)
    Blend: AUG-CC-PVTZ-JKFIT
	 Reference Energy          =    -463.8663253021587138 [Eh]
	 Singles Energy            =      -0.0000000000000000 [Eh]
	 Same-Spin Energy          =      -0.5198232074864190 [Eh]
	 Opposite-Spin Energy      =      -1.7272062632706178 [Eh]
	 Correlation Energy        =      -2.2470294707570369 [Eh]
	 Total Energy              =    -466.1133547729157272 [Eh]

	 ================> DF-SCS-MP2 Energies <==================
	-----------------------------------------------------------
	 SCS Same-Spin Scale       =       0.3333333333333333 [-]
	 SCS Opposite-Spin Scale   =       1.2000000000000000 [-]
	 SCS Same-Spin Energy      =      -0.1732744024954730 [Eh]
	 SCS Opposite-Spin Energy  =      -2.0726475159247411 [Eh]
	 SCS Correlation Energy    =      -2.2459219184202142 [Eh]
	 SCS Total Energy          =    -466.1122472205789222 [Eh]
	-----------------------------------------------------------

  Dipole Moment: [D]
     X:    -0.6495      Y:    -0.2175      Z:     0.0508     Total:     0.6868

*** Psi4 exiting successfully. Buy a developer a beer!
