                               Psi4 1.4a3.dev225

  ==> Input File <==

--------------------------------------------------------------------------
#psi4
#
memory 32 gb

molecule  {
0 1
  C       -0.4426020    -0.8338200     0.2172010
  C       -2.7550300    -0.2335230    -0.2686280
  C       -1.3727340    -0.3393290    -0.9144000
  C       -1.1456910    -0.3766540     1.5340440
  C       -2.4139240     0.3715680     1.0951880
  C        0.9762580    -0.3476150     0.0696660
  C       -3.7696470     0.5602740    -1.0788290
  C        1.2785260     1.0190760     0.1766520
  C        2.0223850    -1.2394820    -0.1958260
  C        2.5868840     1.4777510     0.0263980
  C        3.3346800    -0.7855870    -0.3490730
  C        3.6209360     0.5756970    -0.2390260
  H       -0.4241810    -1.9311060     0.1924250
  H       -3.1414670    -1.2511910    -0.1070860
  H       -1.0573430     0.6588960    -1.2471640
  H       -1.3450850    -0.9967850    -1.7909970
  H       -0.4862050     0.2392810     2.1528250
  H       -1.4122900    -1.2543580     2.1330320
  H       -3.2323950     0.2935880     1.8197160
  H       -2.2008590     1.4410770     0.9595580
  H       -3.4037750     1.5784440    -1.2516650
  H       -3.9506210     0.0965540    -2.0538340
  H       -4.7289130     0.6299820    -0.5557020
  H        0.5178270     1.6994775     0.3736555
  H        1.8065840    -2.3037040    -0.2799060
  H        2.8010350     2.5405970     0.1152150
  H        4.1326410    -1.4960120    -0.5534930
  H        4.6413930     0.9324010    -0.3562540
units angstrom
no_reorient  #important for SAPT in psi4, default
symmetry c1  #important for SAPT in psi4, default
}

set PROPERTIES_ORIGIN ["COM"]
properties('MP2/aug-cc-pvtz', properties = ['dipole'])
--------------------------------------------------------------------------

    Molecular point group: c1
  Charge       = 0
  Multiplicity = 1
  Basis Set: AUG-CC-PVTZ
    Blend: AUG-CC-PVTZ
  Basis Set: (AUG-CC-PVTZ AUX)
    Blend: AUG-CC-PVTZ-JKFIT

    Orbital Energies [Eh]
    ---------------------

    Doubly Occupied:

       1A    -11.235944     2A    -11.233066     3A    -11.232609
       4A    -11.228527     5A    -11.228344     6A    -11.227711
       7A    -11.222431     8A    -11.221259     9A    -11.216830
      10A    -11.214985    11A    -11.214883    12A    -11.211660
      13A     -1.156110    14A     -1.124814    15A     -1.039460
      16A     -1.009664    17A     -0.988654    18A     -0.953982
      19A     -0.892847    20A     -0.829125    21A     -0.815982
      22A     -0.763683    23A     -0.757999    24A     -0.692273
      25A     -0.660796    26A     -0.637818    27A     -0.621745
      28A     -0.607391    29A     -0.586494    30A     -0.581488
      31A     -0.573746    32A     -0.556359    33A     -0.528946
      34A     -0.511838    35A     -0.509797    36A     -0.490814
      37A     -0.475327    38A     -0.463460    39A     -0.461528
      40A     -0.453774    41A     -0.450395    42A     -0.443936
      43A     -0.332048    44A     -0.318484

  @DF-RHF Final Energy:  -463.89375673371433

   => Energetics <=

    Nuclear Repulsion Energy =            676.1720302585240461
    One-Electron Energy =               -1968.1735231242041664
    Two-Electron Energy =                 828.1077361319657939
    Total Energy =                       -463.8937567337143264
  Basis Set: (AUG-CC-PVTZ AUX)
    Blend: AUG-CC-PVTZ-RI
    Molecular point group: c1

    Geometry (in Angstrom), charge = 0, multiplicity = 1:

       Center              X                  Y                   Z               Mass
    ------------   -----------------  -----------------  -----------------  -----------------
         C           -0.514214575662    -0.827976304963     0.214533020312    12.000000000000
         C           -2.826642575662    -0.227679304963    -0.271295979688    12.000000000000
         C           -1.444346575662    -0.333485304963    -0.917067979688    12.000000000000
         C           -1.217303575662    -0.370810304963     1.531376020312    12.000000000000
         C           -2.485536575662     0.377411695037     1.092520020312    12.000000000000
         C            0.904645424338    -0.341771304963     0.066998020312    12.000000000000
         C           -3.841259575662     0.566117695037    -1.081496979688    12.000000000000
         C            1.206913424338     1.024919695037     0.173984020312    12.000000000000
         C            1.950772424338    -1.233638304963    -0.198493979688    12.000000000000
         C            2.515271424338     1.483594695037     0.023730020312    12.000000000000
         C            3.263067424338    -0.779743304963    -0.351740979688    12.000000000000
         C            3.549323424338     0.581540695037    -0.241693979688    12.000000000000
         H           -0.495793575662    -1.925262304963     0.189757020312     1.007825032230
         H           -3.213079575662    -1.245347304963    -0.109753979688     1.007825032230
         H           -1.128955575662     0.664739695037    -1.249831979688     1.007825032230
         H           -1.416697575662    -0.990941304963    -1.793664979688     1.007825032230
         H           -0.557817575662     0.245124695037     2.150157020312     1.007825032230
         H           -1.483902575662    -1.248514304963     2.130364020312     1.007825032230
         H           -3.304007575662     0.299431695037     1.817048020312     1.007825032230
         H           -2.272471575662     1.446920695037     0.956890020312     1.007825032230
         H           -3.475387575662     1.584287695037    -1.254332979688     1.007825032230
         H           -4.022233575662     0.102397695037    -2.056501979688     1.007825032230
         H           -4.800525575662     0.635825695037    -0.558369979688     1.007825032230
         H            0.446214424338     1.705321195037     0.370987520312     1.007825032230
         H            1.734971424338    -2.297860304963    -0.282573979688     1.007825032230
         H            2.729422424338     2.546440695037     0.112547020312     1.007825032230
         H            4.061028424338    -1.490168304963    -0.556160979688     1.007825032230
         H            4.569780424338     0.938244695037    -0.358921979688     1.007825032230

  Basis Set: AUG-CC-PVTZ
    Blend: AUG-CC-PVTZ
  Basis Set: (AUG-CC-PVTZ AUX)
    Blend: AUG-CC-PVTZ-JKFIT
	 Reference Energy          =    -463.8937567337143264 [Eh]
	 Singles Energy            =      -0.0000000000000000 [Eh]
	 Same-Spin Energy          =      -0.5193595249089104 [Eh]
	 Opposite-Spin Energy      =      -1.7260879417617638 [Eh]
	 Correlation Energy        =      -2.2454474666706741 [Eh]
	 Total Energy              =    -466.1392042003849951 [Eh]

	 ================> DF-SCS-MP2 Energies <==================
	-----------------------------------------------------------
	 SCS Same-Spin Scale       =       0.3333333333333333 [-]
	 SCS Opposite-Spin Scale   =       1.2000000000000000 [-]
	 SCS Same-Spin Energy      =      -0.1731198416363035 [Eh]
	 SCS Opposite-Spin Energy  =      -2.0713055301141163 [Eh]
	 SCS Correlation Energy    =      -2.2444253717504199 [Eh]
	 SCS Total Energy          =    -466.1381821054647503 [Eh]
	-----------------------------------------------------------

  Dipole Moment: [D]
     X:    -0.5873      Y:    -0.1922      Z:     0.0407     Total:     0.6193

*** Psi4 exiting successfully. Buy a developer a beer!
