                               Psi4 1.4a3.dev225

  ==> Input File <==

--------------------------------------------------------------------------
#psi4
#
memory 32 gb

molecule  {
0 1
  C       -0.4426020    -0.8338200     0.2172010
  C       -2.7550300    -0.2335230    -0.2686280
  C       -1.3727340    -0.3393290    -0.9144000
  C       -1.1456910    -0.3766540     1.5340440
  C       -2.4139240     0.3715680     1.0951880
  C        0.9762580    -0.3476150     0.0696660
  C       -3.7696470     0.5602740    -1.0788290
  C        1.2785260     1.0190760     0.1766520
  C        2.0223850    -1.2394820    -0.1958260
  C        2.5868840     1.4777510     0.0263980
  C        3.3346800    -0.7855870    -0.3490730
  C        3.6209360     0.5756970    -0.2390260
  H       -0.4241810    -1.9311060     0.1924250
  H       -3.1414670    -1.2511910    -0.1070860
  H       -1.0573430     0.6588960    -1.2471640
  H       -1.3450850    -0.9967850    -1.7909970
  H       -0.4862050     0.2392810     2.1528250
  H       -1.4122900    -1.2543580     2.1330320
  H       -3.2323950     0.2935880     1.8197160
  H       -2.2008590     1.4410770     0.9595580
  H       -3.4037750     1.5784440    -1.2516650
  H       -3.9506210     0.0965540    -2.0538340
  H       -4.7289130     0.6299820    -0.5557020
  H        0.4812350     1.7322070     0.3831320
  H        1.8065840    -2.3037040    -0.2799060
  H        2.8010350     2.5405970     0.1152150
  H        4.1326410    -1.4960120    -0.5534930
  H        4.5475442     0.8995959    -0.3454728
units angstrom
no_reorient  #important for SAPT in psi4, default
symmetry c1  #important for SAPT in psi4, default
}

set PROPERTIES_ORIGIN ["COM"]
properties('MP2/aug-cc-pvtz', properties = ['dipole'])
--------------------------------------------------------------------------

    Molecular point group: c1
  Charge       = 0
  Multiplicity = 1
  Basis Set: AUG-CC-PVTZ
    Blend: AUG-CC-PVTZ
  Basis Set: (AUG-CC-PVTZ AUX)
    Blend: AUG-CC-PVTZ-JKFIT

    Orbital Energies [Eh]
    ---------------------

    Doubly Occupied:

       1A    -11.236185     2A    -11.232694     3A    -11.231971
       4A    -11.228141     5A    -11.227780     6A    -11.227487
       7A    -11.221019     8A    -11.216897     9A    -11.216508
      10A    -11.214727    11A    -11.214553    12A    -11.211468
      13A     -1.155897    14A     -1.124961    15A     -1.041121
      16A     -1.007793    17A     -0.989519    18A     -0.954942
      19A     -0.893605    20A     -0.827697    21A     -0.819341
      22A     -0.763425    23A     -0.757740    24A     -0.699444
      25A     -0.660768    26A     -0.639095    27A     -0.621717
      28A     -0.607073    29A     -0.585985    30A     -0.579578
      31A     -0.574241    32A     -0.557808    33A     -0.531491
      34A     -0.513567    35A     -0.509592    36A     -0.489588
      37A     -0.475366    38A     -0.463189    39A     -0.461251
      40A     -0.453687    41A     -0.450064    42A     -0.443812
      43A     -0.331763    44A     -0.318442

  @DF-RHF Final Energy:  -463.88855257936655

   => Energetics <=

    Nuclear Repulsion Energy =            676.4936403653372281
    One-Electron Energy =               -1968.7983976795796934
    Two-Electron Energy =                 828.4162047348760325
    Total Energy =                       -463.8885525793665465
  Basis Set: (AUG-CC-PVTZ AUX)
    Blend: AUG-CC-PVTZ-RI
    Molecular point group: c1

    Geometry (in Angstrom), charge = 0, multiplicity = 1:

       Center              X                  Y                   Z               Mass
    ------------   -----------------  -----------------  -----------------  -----------------
         C           -0.513393583694    -0.827975829138     0.214405518725    12.000000000000
         C           -2.825821583694    -0.227678829138    -0.271423481275    12.000000000000
         C           -1.443525583694    -0.333484829138    -0.917195481275    12.000000000000
         C           -1.216482583694    -0.370809829138     1.531248518725    12.000000000000
         C           -2.484715583694     0.377412170862     1.092392518725    12.000000000000
         C            0.905466416306    -0.341770829138     0.066870518725    12.000000000000
         C           -3.840438583694     0.566118170862    -1.081624481275    12.000000000000
         C            1.207734416306     1.024920170862     0.173856518725    12.000000000000
         C            1.951593416306    -1.233637829138    -0.198621481275    12.000000000000
         C            2.516092416306     1.483595170862     0.023602518725    12.000000000000
         C            3.263888416306    -0.779742829138    -0.351868481275    12.000000000000
         C            3.550144416306     0.581541170862    -0.241821481275    12.000000000000
         H           -0.494972583694    -1.925261829138     0.189629518725     1.007825032230
         H           -3.212258583694    -1.245346829138    -0.109881481275     1.007825032230
         H           -1.128134583694     0.664740170862    -1.249959481275     1.007825032230
         H           -1.415876583694    -0.990940829138    -1.793792481275     1.007825032230
         H           -0.556996583694     0.245125170862     2.150029518725     1.007825032230
         H           -1.483081583694    -1.248513829138     2.130236518725     1.007825032230
         H           -3.303186583694     0.299432170862     1.816920518725     1.007825032230
         H           -2.271650583694     1.446921170862     0.956762518725     1.007825032230
         H           -3.474566583694     1.584288170862    -1.254460481275     1.007825032230
         H           -4.021412583694     0.102398170862    -2.056629481275     1.007825032230
         H           -4.799704583694     0.635826170862    -0.558497481275     1.007825032230
         H            0.410443416306     1.738051170862     0.380336518725     1.007825032230
         H            1.735792416306    -2.297859829138    -0.282701481275     1.007825032230
         H            2.730243416306     2.546441170862     0.112419518725     1.007825032230
         H            4.061849416306    -1.490167829138    -0.556288481275     1.007825032230
         H            4.476752616306     0.905440070862    -0.348268281275     1.007825032230

  Basis Set: AUG-CC-PVTZ
    Blend: AUG-CC-PVTZ
  Basis Set: (AUG-CC-PVTZ AUX)
    Blend: AUG-CC-PVTZ-JKFIT
	 Reference Energy          =    -463.8885525793665465 [Eh]
	 Singles Energy            =      -0.0000000000000000 [Eh]
	 Same-Spin Energy          =      -0.5193833336221642 [Eh]
	 Opposite-Spin Energy      =      -1.7259155847762824 [Eh]
	 Correlation Energy        =      -2.2452989183984466 [Eh]
	 Total Energy              =    -466.1338514977649652 [Eh]

	 ================> DF-SCS-MP2 Energies <==================
	-----------------------------------------------------------
	 SCS Same-Spin Scale       =       0.3333333333333333 [-]
	 SCS Opposite-Spin Scale   =       1.2000000000000000 [-]
	 SCS Same-Spin Energy      =      -0.1731277778740547 [Eh]
	 SCS Opposite-Spin Energy  =      -2.0710987017315388 [Eh]
	 SCS Correlation Energy    =      -2.2442264796055933 [Eh]
	 SCS Total Energy          =    -466.1327790589721189 [Eh]
	-----------------------------------------------------------

  Dipole Moment: [D]
     X:    -0.5336      Y:    -0.1914      Z:     0.0335     Total:     0.5679

*** Psi4 exiting successfully. Buy a developer a beer!
