                               Psi4 1.4a3.dev225

  ==> Input File <==

--------------------------------------------------------------------------
#psi4
#
memory 32 gb

molecule  {
0 1
  C       -0.4426020    -0.8338200     0.2172010
  C       -2.7550300    -0.2335230    -0.2686280
  C       -1.3727340    -0.3393290    -0.9144000
  C       -1.1456910    -0.3766540     1.5340440
  C       -2.4139240     0.3715680     1.0951880
  C        0.9762580    -0.3476150     0.0696660
  C       -3.7696470     0.5602740    -1.0788290
  C        1.2892921     1.0677542     0.1804626
  C        2.0223850    -1.2394820    -0.1958260
  C        2.5868840     1.4777510     0.0263980
  C        3.3346800    -0.7855870    -0.3490730
  C        3.6209360     0.5756970    -0.2390260
  H       -0.4241810    -1.9311060     0.1924250
  H       -3.1414670    -1.2511910    -0.1070860
  H       -1.0573430     0.6588960    -1.2471640
  H       -1.3450850    -0.9967850    -1.7909970
  H       -0.4862050     0.2392810     2.1528250
  H       -1.4122900    -1.2543580     2.1330320
  H       -3.2323950     0.2935880     1.8197160
  H       -2.2008590     1.4410770     0.9595580
  H       -3.4037750     1.5784440    -1.2516650
  H       -3.9506210     0.0965540    -2.0538340
  H       -4.7289130     0.6299820    -0.5557020
  H        0.4812350     1.7322070     0.3831320
  H        1.8065840    -2.3037040    -0.2799060
  H        2.8010350     2.5405970     0.1152150
  H        4.1326410    -1.4960120    -0.5534930
  H        4.6413930     0.9324010    -0.3562540
units angstrom
no_reorient  #important for SAPT in psi4, default
symmetry c1  #important for SAPT in psi4, default
}

set PROPERTIES_ORIGIN ["COM"]
properties('MP2/aug-cc-pvtz', properties = ['dipole'])
--------------------------------------------------------------------------

    Molecular point group: c1
  Charge       = 0
  Multiplicity = 1
  Basis Set: AUG-CC-PVTZ
    Blend: AUG-CC-PVTZ
  Basis Set: (AUG-CC-PVTZ AUX)
    Blend: AUG-CC-PVTZ-JKFIT

    Orbital Energies [Eh]
    ---------------------

    Doubly Occupied:

       1A    -11.241774     2A    -11.233307     3A    -11.231199
       4A    -11.228893     5A    -11.228807     6A    -11.228388
       7A    -11.227318     8A    -11.221502     9A    -11.217143
      10A    -11.215313    11A    -11.215156    12A    -11.211851
      13A     -1.153523    14A     -1.124987    15A     -1.037746
      16A     -1.012198    17A     -0.987247    18A     -0.953086
      19A     -0.893102    20A     -0.827667    21A     -0.813446
      22A     -0.763843    23A     -0.757036    24A     -0.691276
      25A     -0.660903    26A     -0.636623    27A     -0.621448
      28A     -0.606235    29A     -0.585792    30A     -0.582597
      31A     -0.573339    32A     -0.555954    33A     -0.529690
      34A     -0.514680    35A     -0.508186    36A     -0.485796
      37A     -0.475361    38A     -0.464007    39A     -0.462482
      40A     -0.453564    41A     -0.449244    42A     -0.444527
      43A     -0.336508    44A     -0.313517

  @DF-RHF Final Energy:  -463.89148145556271

   => Energetics <=

    Nuclear Repulsion Energy =            675.2490506833704558
    One-Electron Energy =               -1966.3285430128728422
    Two-Electron Energy =                 827.1880108739397883
    Total Energy =                       -463.8914814555627117
  Basis Set: (AUG-CC-PVTZ AUX)
    Blend: AUG-CC-PVTZ-RI
    Molecular point group: c1

    Geometry (in Angstrom), charge = 0, multiplicity = 1:

       Center              X                  Y                   Z               Mass
    ------------   -----------------  -----------------  -----------------  -----------------
         C           -0.514791092451    -0.831830314247     0.214187803858    12.000000000000
         C           -2.827219092451    -0.231533314247    -0.271641196142    12.000000000000
         C           -1.444923092451    -0.337339314247    -0.917413196142    12.000000000000
         C           -1.217880092451    -0.374664314247     1.531030803858    12.000000000000
         C           -2.486113092451     0.373557685753     1.092174803858    12.000000000000
         C            0.904068907549    -0.345625314247     0.066652803858    12.000000000000
         C           -3.841836092451     0.562263685753    -1.081842196142    12.000000000000
         C            1.217103007549     1.069743885753     0.177449403858    12.000000000000
         C            1.950195907549    -1.237492314247    -0.198839196142    12.000000000000
         C            2.514694907549     1.479740685753     0.023384803858    12.000000000000
         C            3.262490907549    -0.783597314247    -0.352086196142    12.000000000000
         C            3.548746907549     0.577686685753    -0.242039196142    12.000000000000
         H           -0.496370092451    -1.929116314247     0.189411803858     1.007825032230
         H           -3.213656092451    -1.249201314247    -0.110099196142     1.007825032230
         H           -1.129532092451     0.660885685753    -1.250177196142     1.007825032230
         H           -1.417274092451    -0.994795314247    -1.794010196142     1.007825032230
         H           -0.558394092451     0.241270685753     2.149811803858     1.007825032230
         H           -1.484479092451    -1.252368314247     2.130018803858     1.007825032230
         H           -3.304584092451     0.295577685753     1.816702803858     1.007825032230
         H           -2.273048092451     1.443066685753     0.956544803858     1.007825032230
         H           -3.475964092451     1.580433685753    -1.254678196142     1.007825032230
         H           -4.022810092451     0.098543685753    -2.056847196142     1.007825032230
         H           -4.801102092451     0.631971685753    -0.558715196142     1.007825032230
         H            0.409045907549     1.734196685753     0.380118803858     1.007825032230
         H            1.734394907549    -2.301714314247    -0.282919196142     1.007825032230
         H            2.728845907549     2.542586685753     0.112201803858     1.007825032230
         H            4.060451907549    -1.494022314247    -0.556506196142     1.007825032230
         H            4.569203907549     0.934390685753    -0.359267196142     1.007825032230

  Basis Set: AUG-CC-PVTZ
    Blend: AUG-CC-PVTZ
  Basis Set: (AUG-CC-PVTZ AUX)
    Blend: AUG-CC-PVTZ-JKFIT
	 Reference Energy          =    -463.8914814555627117 [Eh]
	 Singles Energy            =      -0.0000000000000000 [Eh]
	 Same-Spin Energy          =      -0.5193134215337262 [Eh]
	 Opposite-Spin Energy      =      -1.7265484095737231 [Eh]
	 Correlation Energy        =      -2.2458618311074492 [Eh]
	 Total Energy              =    -466.1373432866701592 [Eh]

	 ================> DF-SCS-MP2 Energies <==================
	-----------------------------------------------------------
	 SCS Same-Spin Scale       =       0.3333333333333333 [-]
	 SCS Opposite-Spin Scale   =       1.2000000000000000 [-]
	 SCS Same-Spin Energy      =      -0.1731044738445754 [Eh]
	 SCS Opposite-Spin Energy  =      -2.0718580914884677 [Eh]
	 SCS Correlation Energy    =      -2.2449625653330432 [Eh]
	 SCS Total Energy          =    -466.1364440208957376 [Eh]
	-----------------------------------------------------------

  Dipole Moment: [D]
     X:    -0.6035      Y:    -0.2139      Z:     0.0403     Total:     0.6416

*** Psi4 exiting successfully. Buy a developer a beer!
