                               Psi4 1.4a3.dev225

  ==> Input File <==

--------------------------------------------------------------------------
#psi4
#
memory 32 gb

molecule  {
0 1
  C       -0.4426020    -0.8338200     0.2172010
  C       -2.7550300    -0.2335230    -0.2686280
  C       -1.3727340    -0.3393290    -0.9144000
  C       -1.1456910    -0.3766540     1.5340440
  C       -2.4139240     0.3715680     1.0951880
  C        0.9762580    -0.3476150     0.0696660
  C       -3.7696470     0.5602740    -1.0788290
  C        1.2785260     1.0190760     0.1766520
  C        2.0223850    -1.2394820    -0.1958260
  C        2.5868840     1.4777510     0.0263980
  C        3.3723619    -0.9252662    -0.3703377
  C        3.6209360     0.5756970    -0.2390260
  H       -0.4241810    -1.9311060     0.1924250
  H       -3.1414670    -1.2511910    -0.1070860
  H       -1.0573430     0.6588960    -1.2471640
  H       -1.3450850    -0.9967850    -1.7909970
  H       -0.4862050     0.2392810     2.1528250
  H       -1.4122900    -1.2543580     2.1330320
  H       -3.2323950     0.2935880     1.8197160
  H       -2.2008590     1.4410770     0.9595580
  H       -3.4037750     1.5784440    -1.2516650
  H       -3.9506210     0.0965540    -2.0538340
  H       -4.7289130     0.6299820    -0.5557020
  H        0.4812350     1.7322070     0.3831320
  H        1.8065840    -2.3037040    -0.2799060
  H        2.8010350     2.5405970     0.1152150
  H        4.1326410    -1.4960120    -0.5534930
  H        4.6413930     0.9324010    -0.3562540
units angstrom
no_reorient  #important for SAPT in psi4, default
symmetry c1  #important for SAPT in psi4, default
}

set PROPERTIES_ORIGIN ["COM"]
properties('MP2/aug-cc-pvtz', properties = ['dipole'])
--------------------------------------------------------------------------

    Molecular point group: c1
  Charge       = 0
  Multiplicity = 1
  Basis Set: AUG-CC-PVTZ
    Blend: AUG-CC-PVTZ
  Basis Set: (AUG-CC-PVTZ AUX)
    Blend: AUG-CC-PVTZ-JKFIT

    Orbital Energies [Eh]
    ---------------------

    Doubly Occupied:

       1A    -11.242539     2A    -11.237349     3A    -11.237215
       4A    -11.233361     5A    -11.232155     6A    -11.231038
       7A    -11.228999     8A    -11.221178     9A    -11.216707
      10A    -11.214945    11A    -11.214709    12A    -11.211627
      13A     -1.151611    14A     -1.120013    15A     -1.033618
      16A     -1.012943    17A     -0.985568    18A     -0.951275
      19A     -0.891713    20A     -0.837488    21A     -0.809358
      22A     -0.764773    23A     -0.763291    24A     -0.685404
      25A     -0.662510    26A     -0.651245    27A     -0.621125
      28A     -0.610886    29A     -0.588318    30A     -0.583534
      31A     -0.569151    32A     -0.553251    33A     -0.526682
      34A     -0.517108    35A     -0.506023    36A     -0.481375
      37A     -0.470332    38A     -0.463413    39A     -0.459490
      40A     -0.452384    41A     -0.449691    42A     -0.444212
      43A     -0.337017    44A     -0.308139

  @DF-RHF Final Energy:  -463.86470025070463

   => Energetics <=

    Nuclear Repulsion Energy =            673.8157714498298674
    One-Electron Energy =               -1963.3914224316727086
    Two-Electron Energy =                 825.7109507311382686
    Total Energy =                       -463.8647002507046864
  Basis Set: (AUG-CC-PVTZ AUX)
    Blend: AUG-CC-PVTZ-RI
    Molecular point group: c1

    Geometry (in Angstrom), charge = 0, multiplicity = 1:

       Center              X                  Y                   Z               Mass
    ------------   -----------------  -----------------  -----------------  -----------------
         C           -0.516808199059    -0.817714554875     0.216066980896    12.000000000000
         C           -2.829236199059    -0.217417554875    -0.269762019104    12.000000000000
         C           -1.446940199059    -0.323223554875    -0.915534019104    12.000000000000
         C           -1.219897199059    -0.360548554875     1.532909980896    12.000000000000
         C           -2.488130199059     0.387673445125     1.094053980896    12.000000000000
         C            0.902051800941    -0.331509554875     0.068531980896    12.000000000000
         C           -3.843853199059     0.576379445125    -1.079963019104    12.000000000000
         C            1.204319800941     1.035181445125     0.175517980896    12.000000000000
         C            1.948178800941    -1.223376554875    -0.196960019104    12.000000000000
         C            2.512677800941     1.493856445125     0.025263980896    12.000000000000
         C            3.298155700941    -0.909160754875    -0.371471719104    12.000000000000
         C            3.546729800941     0.591802445125    -0.240160019104    12.000000000000
         H           -0.498387199059    -1.915000554875     0.191290980896     1.007825032230
         H           -3.215673199059    -1.235085554875    -0.108220019104     1.007825032230
         H           -1.131549199059     0.675001445125    -1.248298019104     1.007825032230
         H           -1.419291199059    -0.980679554875    -1.792131019104     1.007825032230
         H           -0.560411199059     0.255386445125     2.151690980896     1.007825032230
         H           -1.486496199059    -1.238252554875     2.131897980896     1.007825032230
         H           -3.306601199059     0.309693445125     1.818581980896     1.007825032230
         H           -2.275065199059     1.457182445125     0.958423980896     1.007825032230
         H           -3.477981199059     1.594549445125    -1.252799019104     1.007825032230
         H           -4.024827199059     0.112659445125    -2.054968019104     1.007825032230
         H           -4.803119199059     0.646087445125    -0.556836019104     1.007825032230
         H            0.407028800941     1.748312445125     0.381997980896     1.007825032230
         H            1.732377800941    -2.287598554875    -0.281040019104     1.007825032230
         H            2.726828800941     2.556702445125     0.114080980896     1.007825032230
         H            4.058434800941    -1.479906554875    -0.554627019104     1.007825032230
         H            4.567186800941     0.948506445125    -0.357388019104     1.007825032230

  Basis Set: AUG-CC-PVTZ
    Blend: AUG-CC-PVTZ
  Basis Set: (AUG-CC-PVTZ AUX)
    Blend: AUG-CC-PVTZ-JKFIT
	 Reference Energy          =    -463.8647002507046295 [Eh]
	 Singles Energy            =      -0.0000000000000000 [Eh]
	 Same-Spin Energy          =      -0.5199147913124434 [Eh]
	 Opposite-Spin Energy      =      -1.7289804019836319 [Eh]
	 Correlation Energy        =      -2.2488951932960752 [Eh]
	 Total Energy              =    -466.1135954440006799 [Eh]

	 ================> DF-SCS-MP2 Energies <==================
	-----------------------------------------------------------
	 SCS Same-Spin Scale       =       0.3333333333333333 [-]
	 SCS Opposite-Spin Scale   =       1.2000000000000000 [-]
	 SCS Same-Spin Energy      =      -0.1733049304374811 [Eh]
	 SCS Opposite-Spin Energy  =      -2.0747764823803583 [Eh]
	 SCS Correlation Energy    =      -2.2480814128178395 [Eh]
	 SCS Total Energy          =    -466.1127816635224690 [Eh]
	-----------------------------------------------------------

  Dipole Moment: [D]
     X:    -0.5790      Y:    -0.2033      Z:     0.0370     Total:     0.6147

*** Psi4 exiting successfully. Buy a developer a beer!
