                               Psi4 1.4a3.dev225

  ==> Input File <==

--------------------------------------------------------------------------
#psi4
#
memory 32 gb

molecule  {
0 1
  C       -0.4353736    -0.8547557     0.2017893
  C       -2.7550300    -0.2335230    -0.2686280
  C       -1.3727340    -0.3393290    -0.9144000
  C       -1.1456910    -0.3766540     1.5340440
  C       -2.4139240     0.3715680     1.0951880
  C        0.9762580    -0.3476150     0.0696660
  C       -3.7696470     0.5602740    -1.0788290
  C        1.2785260     1.0190760     0.1766520
  C        2.0223850    -1.2394820    -0.1958260
  C        2.5868840     1.4777510     0.0263980
  C        3.3346800    -0.7855870    -0.3490730
  C        3.6209360     0.5756970    -0.2390260
  H       -0.4241810    -1.9311060     0.1924250
  H       -3.1414670    -1.2511910    -0.1070860
  H       -1.0573430     0.6588960    -1.2471640
  H       -1.3450850    -0.9967850    -1.7909970
  H       -0.4862050     0.2392810     2.1528250
  H       -1.4122900    -1.2543580     2.1330320
  H       -3.2323950     0.2935880     1.8197160
  H       -2.2008590     1.4410770     0.9595580
  H       -3.4037750     1.5784440    -1.2516650
  H       -3.9506210     0.0965540    -2.0538340
  H       -4.7289130     0.6299820    -0.5557020
  H        0.4812350     1.7322070     0.3831320
  H        1.8065840    -2.3037040    -0.2799060
  H        2.8010350     2.5405970     0.1152150
  H        4.1326410    -1.4960120    -0.5534930
  H        4.6413930     0.9324010    -0.3562540
units angstrom
no_reorient  #important for SAPT in psi4, default
symmetry c1  #important for SAPT in psi4, default
}

set PROPERTIES_ORIGIN ["COM"]
properties('MP2/aug-cc-pvtz', properties = ['dipole'])
--------------------------------------------------------------------------

    Molecular point group: c1
  Charge       = 0
  Multiplicity = 1
  Basis Set: AUG-CC-PVTZ
    Blend: AUG-CC-PVTZ
  Basis Set: (AUG-CC-PVTZ AUX)
    Blend: AUG-CC-PVTZ-JKFIT

    Orbital Energies [Eh]
    ---------------------

    Doubly Occupied:

       1A    -11.236525     2A    -11.233695     3A    -11.232676
       4A    -11.228800     5A    -11.228608     6A    -11.227708
       7A    -11.227622     8A    -11.221242     9A    -11.217327
      10A    -11.214827    11A    -11.214762    12A    -11.211612
      13A     -1.155476    14A     -1.123699    15A     -1.039533
      16A     -1.008393    17A     -0.987131    18A     -0.954323
      19A     -0.891921    20A     -0.826845    21A     -0.815629
      22A     -0.763367    23A     -0.758894    24A     -0.690286
      25A     -0.659509    26A     -0.634770    27A     -0.622298
      28A     -0.605959    29A     -0.586071    30A     -0.580026
      31A     -0.574807    32A     -0.556453    33A     -0.528382
      34A     -0.511122    35A     -0.509241    36A     -0.490131
      37A     -0.474601    38A     -0.462971    39A     -0.457718
      40A     -0.456636    41A     -0.451199    42A     -0.444266
      43A     -0.332311    44A     -0.318194

  @DF-RHF Final Energy:  -463.89394674858420

   => Energetics <=

    Nuclear Repulsion Energy =            675.7033070018273975
    One-Electron Energy =               -1967.2593739021649526
    Two-Electron Energy =                 827.6621201517533564
    Total Energy =                       -463.8939467485841988
  Basis Set: (AUG-CC-PVTZ AUX)
    Blend: AUG-CC-PVTZ-RI
    Molecular point group: c1

    Geometry (in Angstrom), charge = 0, multiplicity = 1:

       Center              X                  Y                   Z               Mass
    ------------   -----------------  -----------------  -----------------  -----------------
         C           -0.507297572408    -0.847549054036     0.200216649126    12.000000000000
         C           -2.826953972408    -0.226316354036    -0.270200650874    12.000000000000
         C           -1.444657972408    -0.332122354036    -0.915972650874    12.000000000000
         C           -1.217614972408    -0.369447354036     1.532471349126    12.000000000000
         C           -2.485847972408     0.378774645964     1.093615349126    12.000000000000
         C            0.904334027592    -0.340408354036     0.068093349126    12.000000000000
         C           -3.841570972408     0.567480645964    -1.080401650874    12.000000000000
         C            1.206602027592     1.026282645964     0.175079349126    12.000000000000
         C            1.950461027592    -1.232275354036    -0.197398650874    12.000000000000
         C            2.514960027592     1.484957645964     0.024825349126    12.000000000000
         C            3.262756027592    -0.778380354036    -0.350645650874    12.000000000000
         C            3.549012027592     0.582903645964    -0.240598650874    12.000000000000
         H           -0.496104972408    -1.923899354036     0.190852349126     1.007825032230
         H           -3.213390972408    -1.243984354036    -0.108658650874     1.007825032230
         H           -1.129266972408     0.666102645964    -1.248736650874     1.007825032230
         H           -1.417008972408    -0.989578354036    -1.792569650874     1.007825032230
         H           -0.558128972408     0.246487645964     2.151252349126     1.007825032230
         H           -1.484213972408    -1.247151354036     2.131459349126     1.007825032230
         H           -3.304318972408     0.300794645964     1.818143349126     1.007825032230
         H           -2.272782972408     1.448283645964     0.957985349126     1.007825032230
         H           -3.475698972408     1.585650645964    -1.253237650874     1.007825032230
         H           -4.022544972408     0.103760645964    -2.055406650874     1.007825032230
         H           -4.800836972408     0.637188645964    -0.557274650874     1.007825032230
         H            0.409311027592     1.739413645964     0.381559349126     1.007825032230
         H            1.734660027592    -2.296497354036    -0.281478650874     1.007825032230
         H            2.729111027592     2.547803645964     0.113642349126     1.007825032230
         H            4.060717027592    -1.488805354036    -0.555065650874     1.007825032230
         H            4.569469027592     0.939607645964    -0.357826650874     1.007825032230

  Basis Set: AUG-CC-PVTZ
    Blend: AUG-CC-PVTZ
  Basis Set: (AUG-CC-PVTZ AUX)
    Blend: AUG-CC-PVTZ-JKFIT
	 Reference Energy          =    -463.8939467485841988 [Eh]
	 Singles Energy            =      -0.0000000000000000 [Eh]
	 Same-Spin Energy          =      -0.5194137884619334 [Eh]
	 Opposite-Spin Energy      =      -1.7263189527791170 [Eh]
	 Correlation Energy        =      -2.2457327412410502 [Eh]
	 Total Energy              =    -466.1396794898252551 [Eh]

	 ================> DF-SCS-MP2 Energies <==================
	-----------------------------------------------------------
	 SCS Same-Spin Scale       =       0.3333333333333333 [-]
	 SCS Opposite-Spin Scale   =       1.2000000000000000 [-]
	 SCS Same-Spin Energy      =      -0.1731379294873111 [Eh]
	 SCS Opposite-Spin Energy  =      -2.0715827433349401 [Eh]
	 SCS Correlation Energy    =      -2.2447206728222513 [Eh]
	 SCS Total Energy          =    -466.1386674214064669 [Eh]
	-----------------------------------------------------------

  Dipole Moment: [D]
     X:    -0.5760      Y:    -0.2164      Z:     0.0308     Total:     0.6161

*** Psi4 exiting successfully. Buy a developer a beer!
