                               Psi4 1.4a3.dev225

  ==> Input File <==

--------------------------------------------------------------------------
#psi4
#
memory 32 gb

molecule  {
0 1
  C       -0.4426020    -0.8338200     0.2172010
  C       -2.8213935    -0.3163145    -0.2735993
  C       -1.3727340    -0.3393290    -0.9144000
  C       -1.1456910    -0.3766540     1.5340440
  C       -2.4139240     0.3715680     1.0951880
  C        0.9762580    -0.3476150     0.0696660
  C       -3.7696470     0.5602740    -1.0788290
  C        1.2785260     1.0190760     0.1766520
  C        2.0223850    -1.2394820    -0.1958260
  C        2.5868840     1.4777510     0.0263980
  C        3.3346800    -0.7855870    -0.3490730
  C        3.6209360     0.5756970    -0.2390260
  H       -0.4241810    -1.9311060     0.1924250
  H       -3.1414670    -1.2511910    -0.1070860
  H       -1.0573430     0.6588960    -1.2471640
  H       -1.3450850    -0.9967850    -1.7909970
  H       -0.4862050     0.2392810     2.1528250
  H       -1.4122900    -1.2543580     2.1330320
  H       -3.2323950     0.2935880     1.8197160
  H       -2.2008590     1.4410770     0.9595580
  H       -3.4037750     1.5784440    -1.2516650
  H       -3.9506210     0.0965540    -2.0538340
  H       -4.7289130     0.6299820    -0.5557020
  H        0.4812350     1.7322070     0.3831320
  H        1.8065840    -2.3037040    -0.2799060
  H        2.8010350     2.5405970     0.1152150
  H        4.1326410    -1.4960120    -0.5534930
  H        4.6413930     0.9324010    -0.3562540
units angstrom
no_reorient  #important for SAPT in psi4, default
symmetry c1  #important for SAPT in psi4, default
}

set PROPERTIES_ORIGIN ["COM"]
properties('MP2/aug-cc-pvtz', properties = ['dipole'])
--------------------------------------------------------------------------

    Molecular point group: c1
  Charge       = 0
  Multiplicity = 1
  Basis Set: AUG-CC-PVTZ
    Blend: AUG-CC-PVTZ
  Basis Set: (AUG-CC-PVTZ AUX)
    Blend: AUG-CC-PVTZ-JKFIT

    Orbital Energies [Eh]
    ---------------------

    Doubly Occupied:

       1A    -11.236191     2A    -11.233420     3A    -11.232652
       4A    -11.228712     5A    -11.228234     6A    -11.227848
       7A    -11.227477     8A    -11.218728     9A    -11.216682
      10A    -11.216506    11A    -11.215640    12A    -11.211717
      13A     -1.154150    14A     -1.118063    15A     -1.038137
      16A     -1.008235    17A     -0.988069    18A     -0.949162
      19A     -0.888307    20A     -0.825707    21A     -0.814559
      22A     -0.781804    23A     -0.754269    24A     -0.689442
      25A     -0.655223    26A     -0.635034    27A     -0.619655
      28A     -0.604731    29A     -0.586661    30A     -0.579545
      31A     -0.573661    32A     -0.554648    33A     -0.533234
      34A     -0.511316    35A     -0.509264    36A     -0.492974
      37A     -0.483916    38A     -0.469065    39A     -0.460904
      40A     -0.451622    41A     -0.445948    42A     -0.423766
      43A     -0.332157    44A     -0.318377

  @DF-RHF Final Energy:  -463.88178692451646

   => Energetics <=

    Nuclear Repulsion Energy =            674.5525399522384760
    One-Electron Energy =               -1964.9778372676357776
    Two-Electron Energy =                 826.5435103908808969
    Total Energy =                       -463.8817869245164047
  Basis Set: (AUG-CC-PVTZ AUX)
    Blend: AUG-CC-PVTZ-RI
    Molecular point group: c1

    Geometry (in Angstrom), charge = 0, multiplicity = 1:

       Center              X                  Y                   Z               Mass
    ------------   -----------------  -----------------  -----------------  -----------------
         C           -0.509010895474    -0.821977796374     0.214845931371    12.000000000000
         C           -2.887802395474    -0.304472296374    -0.275954368629    12.000000000000
         C           -1.439142895474    -0.327486796374    -0.916755068629    12.000000000000
         C           -1.212099895474    -0.364811796374     1.531688931371    12.000000000000
         C           -2.480332895474     0.383410203626     1.092832931371    12.000000000000
         C            0.909849104526    -0.335772796374     0.067310931371    12.000000000000
         C           -3.836055895474     0.572116203626    -1.081184068629    12.000000000000
         C            1.212117104526     1.030918203626     0.174296931371    12.000000000000
         C            1.955976104526    -1.227639796374    -0.198181068629    12.000000000000
         C            2.520475104526     1.489593203626     0.024042931371    12.000000000000
         C            3.268271104526    -0.773744796374    -0.351428068629    12.000000000000
         C            3.554527104526     0.587539203626    -0.241381068629    12.000000000000
         H           -0.490589895474    -1.919263796374     0.190069931371     1.007825032230
         H           -3.207875895474    -1.239348796374    -0.109441068629     1.007825032230
         H           -1.123751895474     0.670738203626    -1.249519068629     1.007825032230
         H           -1.411493895474    -0.984942796374    -1.793352068629     1.007825032230
         H           -0.552613895474     0.251123203626     2.150469931371     1.007825032230
         H           -1.478698895474    -1.242515796374     2.130676931371     1.007825032230
         H           -3.298803895474     0.305430203626     1.817360931371     1.007825032230
         H           -2.267267895474     1.452919203626     0.957202931371     1.007825032230
         H           -3.470183895474     1.590286203626    -1.254020068629     1.007825032230
         H           -4.017029895474     0.108396203626    -2.056189068629     1.007825032230
         H           -4.795321895474     0.641824203626    -0.558057068629     1.007825032230
         H            0.414826104526     1.744049203626     0.380776931371     1.007825032230
         H            1.740175104526    -2.291861796374    -0.282261068629     1.007825032230
         H            2.734626104526     2.552439203626     0.112859931371     1.007825032230
         H            4.066232104526    -1.484169796374    -0.555848068629     1.007825032230
         H            4.574984104526     0.944243203626    -0.358609068629     1.007825032230

  Basis Set: AUG-CC-PVTZ
    Blend: AUG-CC-PVTZ
  Basis Set: (AUG-CC-PVTZ AUX)
    Blend: AUG-CC-PVTZ-JKFIT
	 Reference Energy          =    -463.8817869245164616 [Eh]
	 Singles Energy            =      -0.0000000000000000 [Eh]
	 Same-Spin Energy          =      -0.5192317695804447 [Eh]
	 Opposite-Spin Energy      =      -1.7267102981115734 [Eh]
	 Correlation Energy        =      -2.2459420676920181 [Eh]
	 Total Energy              =    -466.1277289922084606 [Eh]

	 ================> DF-SCS-MP2 Energies <==================
	-----------------------------------------------------------
	 SCS Same-Spin Scale       =       0.3333333333333333 [-]
	 SCS Opposite-Spin Scale   =       1.2000000000000000 [-]
	 SCS Same-Spin Energy      =      -0.1730772565268149 [Eh]
	 SCS Opposite-Spin Energy  =      -2.0720523577338881 [Eh]
	 SCS Correlation Energy    =      -2.2451296142607031 [Eh]
	 SCS Total Energy          =    -466.1269165387771523 [Eh]
	-----------------------------------------------------------

  Dipole Moment: [D]
     X:    -0.6016      Y:    -0.2284      Z:     0.0297     Total:     0.6442

*** Psi4 exiting successfully. Buy a developer a beer!
