                               Psi4 1.4a3.dev225

  ==> Input File <==

--------------------------------------------------------------------------
#psi4
#
memory 32 gb

molecule  {
0 1
  C       -0.4154099    -0.9165955     0.1535334
  C       -2.7550300    -0.2335230    -0.2686280
  C       -1.3727340    -0.3393290    -0.9144000
  C       -1.1456910    -0.3766540     1.5340440
  C       -2.4139240     0.3715680     1.0951880
  C        0.9762580    -0.3476150     0.0696660
  C       -3.7696470     0.5602740    -1.0788290
  C        1.2785260     1.0190760     0.1766520
  C        2.0223850    -1.2394820    -0.1958260
  C        2.5868840     1.4777510     0.0263980
  C        3.3346800    -0.7855870    -0.3490730
  C        3.6209360     0.5756970    -0.2390260
  H       -0.4241810    -1.9311060     0.1924250
  H       -3.1414670    -1.2511910    -0.1070860
  H       -1.0573430     0.6588960    -1.2471640
  H       -1.3450850    -0.9967850    -1.7909970
  H       -0.4862050     0.2392810     2.1528250
  H       -1.4122900    -1.2543580     2.1330320
  H       -3.2323950     0.2935880     1.8197160
  H       -2.2008590     1.4410770     0.9595580
  H       -3.4037750     1.5784440    -1.2516650
  H       -3.9506210     0.0965540    -2.0538340
  H       -4.7289130     0.6299820    -0.5557020
  H        0.4812350     1.7322070     0.3831320
  H        1.8065840    -2.3037040    -0.2799060
  H        2.8010350     2.5405970     0.1152150
  H        4.1326410    -1.4960120    -0.5534930
  H        4.6413930     0.9324010    -0.3562540
units angstrom
no_reorient  #important for SAPT in psi4, default
symmetry c1  #important for SAPT in psi4, default
}

set PROPERTIES_ORIGIN ["COM"]
properties('MP2/aug-cc-pvtz', properties = ['dipole'])
--------------------------------------------------------------------------

    Molecular point group: c1
  Charge       = 0
  Multiplicity = 1
  Basis Set: AUG-CC-PVTZ
    Blend: AUG-CC-PVTZ
  Basis Set: (AUG-CC-PVTZ AUX)
    Blend: AUG-CC-PVTZ-JKFIT

    Orbital Energies [Eh]
    ---------------------

    Doubly Occupied:

       1A    -11.237260     2A    -11.234072     3A    -11.232198
       4A    -11.229353     5A    -11.228322     6A    -11.226488
       7A    -11.226428     8A    -11.221546     9A    -11.219070
      10A    -11.215548    11A    -11.214521    12A    -11.211736
      13A     -1.154262    14A     -1.120775    15A     -1.039798
      16A     -1.008275    17A     -0.983660    18A     -0.956230
      19A     -0.890325    20A     -0.828201    21A     -0.813994
      22A     -0.765680    23A     -0.761896    24A     -0.691825
      25A     -0.656995    26A     -0.634122    27A     -0.623598
      28A     -0.604311    29A     -0.587165    30A     -0.580934
      31A     -0.577580    32A     -0.557337    33A     -0.528428
      34A     -0.512516    35A     -0.507229    36A     -0.490674
      37A     -0.473824    38A     -0.469351    39A     -0.461621
      40A     -0.452976    41A     -0.446915    42A     -0.436713
      43A     -0.332244    44A     -0.316000

  @DF-RHF Final Energy:  -463.88350369413843

   => Energetics <=

    Nuclear Repulsion Energy =            674.9849300206077487
    One-Electron Energy =               -1965.8128692683535519
    Two-Electron Energy =                 826.9444355536072635
    Total Energy =                       -463.8835036941384260
  Basis Set: (AUG-CC-PVTZ AUX)
    Blend: AUG-CC-PVTZ-RI
    Molecular point group: c1

    Geometry (in Angstrom), charge = 0, multiplicity = 1:

       Center              X                  Y                   Z               Mass
    ------------   -----------------  -----------------  -----------------  -----------------
         C           -0.488829979200    -0.904754495436     0.155577111811    12.000000000000
         C           -2.828450079200    -0.221681995436    -0.266584288189    12.000000000000
         C           -1.446154079200    -0.327487995436    -0.912356288189    12.000000000000
         C           -1.219111079200    -0.364812995436     1.536087711811    12.000000000000
         C           -2.487344079200     0.383409004564     1.097231711811    12.000000000000
         C            0.902837920800    -0.335773995436     0.071709711811    12.000000000000
         C           -3.843067079200     0.572115004564    -1.076785288189    12.000000000000
         C            1.205105920800     1.030917004564     0.178695711811    12.000000000000
         C            1.948964920800    -1.227640995436    -0.193782288189    12.000000000000
         C            2.513463920800     1.489592004564     0.028441711811    12.000000000000
         C            3.261259920800    -0.773745995436    -0.347029288189    12.000000000000
         C            3.547515920800     0.587538004564    -0.236982288189    12.000000000000
         H           -0.497601079200    -1.919264995436     0.194468711811     1.007825032230
         H           -3.214887079200    -1.239349995436    -0.105042288189     1.007825032230
         H           -1.130763079200     0.670737004564    -1.245120288189     1.007825032230
         H           -1.418505079200    -0.984943995436    -1.788953288189     1.007825032230
         H           -0.559625079200     0.251122004564     2.154868711811     1.007825032230
         H           -1.485710079200    -1.242516995436     2.135075711811     1.007825032230
         H           -3.305815079200     0.305429004564     1.821759711811     1.007825032230
         H           -2.274279079200     1.452918004564     0.961601711811     1.007825032230
         H           -3.477195079200     1.590285004564    -1.249621288189     1.007825032230
         H           -4.024041079200     0.108395004564    -2.051790288189     1.007825032230
         H           -4.802333079200     0.641823004564    -0.553658288189     1.007825032230
         H            0.407814920800     1.744048004564     0.385175711811     1.007825032230
         H            1.733163920800    -2.291862995436    -0.277862288189     1.007825032230
         H            2.727614920800     2.552438004564     0.117258711811     1.007825032230
         H            4.059220920800    -1.484170995436    -0.551449288189     1.007825032230
         H            4.567972920800     0.944242004564    -0.354210288189     1.007825032230

  Basis Set: AUG-CC-PVTZ
    Blend: AUG-CC-PVTZ
  Basis Set: (AUG-CC-PVTZ AUX)
    Blend: AUG-CC-PVTZ-JKFIT
	 Reference Energy          =    -463.8835036941384260 [Eh]
	 Singles Energy            =      -0.0000000000000000 [Eh]
	 Same-Spin Energy          =      -0.5194324822770598 [Eh]
	 Opposite-Spin Energy      =      -1.7266157338321015 [Eh]
	 Correlation Energy        =      -2.2460482161091613 [Eh]
	 Total Energy              =    -466.1295519102475851 [Eh]

	 ================> DF-SCS-MP2 Energies <==================
	-----------------------------------------------------------
	 SCS Same-Spin Scale       =       0.3333333333333333 [-]
	 SCS Opposite-Spin Scale   =       1.2000000000000000 [-]
	 SCS Same-Spin Energy      =      -0.1731441607590199 [Eh]
	 SCS Opposite-Spin Energy  =      -2.0719388805985219 [Eh]
	 SCS Correlation Energy    =      -2.2450830413575420 [Eh]
	 SCS Total Energy          =    -466.1285867354959578 [Eh]
	-----------------------------------------------------------

  Dipole Moment: [D]
     X:    -0.5998      Y:    -0.2490      Z:     0.0108     Total:     0.6495

*** Psi4 exiting successfully. Buy a developer a beer!
