                               Psi4 1.4a3.dev225

  ==> Input File <==

--------------------------------------------------------------------------
#psi4
#
memory 32 gb

molecule  {
0 1
  C       -0.4426020    -0.8338200     0.2172010
  C       -2.7550300    -0.2335230    -0.2686280
  C       -1.3727340    -0.3393290    -0.9144000
  C       -1.1456910    -0.3766540     1.5340440
  C       -2.4139240     0.3715680     1.0951880
  C        0.9762580    -0.3476150     0.0696660
  C       -3.9029881     0.6645949    -1.1853057
  C        1.2785260     1.0190760     0.1766520
  C        2.0223850    -1.2394820    -0.1958260
  C        2.5868840     1.4777510     0.0263980
  C        3.3346800    -0.7855870    -0.3490730
  C        3.6209360     0.5756970    -0.2390260
  H       -0.4241810    -1.9311060     0.1924250
  H       -3.1414670    -1.2511910    -0.1070860
  H       -1.0573430     0.6588960    -1.2471640
  H       -1.3450850    -0.9967850    -1.7909970
  H       -0.4862050     0.2392810     2.1528250
  H       -1.4122900    -1.2543580     2.1330320
  H       -3.2323950     0.2935880     1.8197160
  H       -2.2008590     1.4410770     0.9595580
  H       -3.4037750     1.5784440    -1.2516650
  H       -3.9506210     0.0965540    -2.0538340
  H       -4.7289130     0.6299820    -0.5557020
  H        0.4812350     1.7322070     0.3831320
  H        1.8065840    -2.3037040    -0.2799060
  H        2.8010350     2.5405970     0.1152150
  H        4.1326410    -1.4960120    -0.5534930
  H        4.6413930     0.9324010    -0.3562540
units angstrom
no_reorient  #important for SAPT in psi4, default
symmetry c1  #important for SAPT in psi4, default
}

set PROPERTIES_ORIGIN ["COM"]
properties('MP2/aug-cc-pvtz', properties = ['dipole'])
--------------------------------------------------------------------------

    Molecular point group: c1
  Charge       = 0
  Multiplicity = 1
  Basis Set: AUG-CC-PVTZ
    Blend: AUG-CC-PVTZ
  Basis Set: (AUG-CC-PVTZ AUX)
    Blend: AUG-CC-PVTZ-JKFIT

    Orbital Energies [Eh]
    ---------------------

    Doubly Occupied:

       1A    -11.236534     2A    -11.233601     3A    -11.232859
       4A    -11.228937     5A    -11.228783     6A    -11.228503
       7A    -11.228427     8A    -11.228129     9A    -11.216849
      10A    -11.215086    11A    -11.214899    12A    -11.208106
      13A     -1.155185    14A     -1.119931    15A     -1.032451
      16A     -1.008384    17A     -0.979442    18A     -0.952854
      19A     -0.902267    20A     -0.826378    21A     -0.816037
      22A     -0.760306    23A     -0.756354    24A     -0.689185
      25A     -0.659082    26A     -0.633526    27A     -0.619570
      28A     -0.600744    29A     -0.591320    30A     -0.587079
      31A     -0.578183    32A     -0.566551    33A     -0.542461
      34A     -0.515456    35A     -0.508161    36A     -0.489447
      37A     -0.474212    38A     -0.461898    39A     -0.457847
      40A     -0.452298    41A     -0.450749    42A     -0.413675
      43A     -0.332352    44A     -0.318431

  @DF-RHF Final Energy:  -463.86733731279764

   => Energetics <=

    Nuclear Repulsion Energy =            672.6131448474756098
    One-Electron Energy =               -1961.0559035399369350
    Two-Electron Energy =                 824.5754213796635668
    Total Energy =                       -463.8673373127976447
  Basis Set: (AUG-CC-PVTZ AUX)
    Blend: AUG-CC-PVTZ-RI
    Molecular point group: c1

    Geometry (in Angstrom), charge = 0, multiplicity = 1:

       Center              X                  Y                   Z               Mass
    ------------   -----------------  -----------------  -----------------  -----------------
         C           -0.503991503164    -0.836000253756     0.222452883906    12.000000000000
         C           -2.816419503164    -0.235703253756    -0.263376116094    12.000000000000
         C           -1.434123503164    -0.341509253756    -0.909148116094    12.000000000000
         C           -1.207080503164    -0.378834253756     1.539295883906    12.000000000000
         C           -2.475313503164     0.369387746244     1.100439883906    12.000000000000
         C            0.914868496836    -0.349795253756     0.074917883906    12.000000000000
         C           -3.964377603164     0.662414646244    -1.180053816094    12.000000000000
         C            1.217136496836     1.016895746244     0.181903883906    12.000000000000
         C            1.960995496836    -1.241662253756    -0.190574116094    12.000000000000
         C            2.525494496836     1.475570746244     0.031649883906    12.000000000000
         C            3.273290496836    -0.787767253756    -0.343821116094    12.000000000000
         C            3.559546496836     0.573516746244    -0.233774116094    12.000000000000
         H           -0.485570503164    -1.933286253756     0.197676883906     1.007825032230
         H           -3.202856503164    -1.253371253756    -0.101834116094     1.007825032230
         H           -1.118732503164     0.656715746244    -1.241912116094     1.007825032230
         H           -1.406474503164    -0.998965253756    -1.785745116094     1.007825032230
         H           -0.547594503164     0.237100746244     2.158076883906     1.007825032230
         H           -1.473679503164    -1.256538253756     2.138283883906     1.007825032230
         H           -3.293784503164     0.291407746244     1.824967883906     1.007825032230
         H           -2.262248503164     1.438896746244     0.964809883906     1.007825032230
         H           -3.465164503164     1.576263746244    -1.246413116094     1.007825032230
         H           -4.012010503164     0.094373746244    -2.048582116094     1.007825032230
         H           -4.790302503164     0.627801746244    -0.550450116094     1.007825032230
         H            0.419845496836     1.730026746244     0.388383883906     1.007825032230
         H            1.745194496836    -2.305884253756    -0.274654116094     1.007825032230
         H            2.739645496836     2.538416746244     0.120466883906     1.007825032230
         H            4.071251496836    -1.498192253756    -0.548241116094     1.007825032230
         H            4.580003496836     0.930220746244    -0.351002116094     1.007825032230

  Basis Set: AUG-CC-PVTZ
    Blend: AUG-CC-PVTZ
  Basis Set: (AUG-CC-PVTZ AUX)
    Blend: AUG-CC-PVTZ-JKFIT
	 Reference Energy          =    -463.8673373127976447 [Eh]
	 Singles Energy            =      -0.0000000000000000 [Eh]
	 Same-Spin Energy          =      -0.5196299072363288 [Eh]
	 Opposite-Spin Energy      =      -1.7278669036836232 [Eh]
	 Correlation Energy        =      -2.2474968109199520 [Eh]
	 Total Energy              =    -466.1148341237175714 [Eh]

	 ================> DF-SCS-MP2 Energies <==================
	-----------------------------------------------------------
	 SCS Same-Spin Scale       =       0.3333333333333333 [-]
	 SCS Opposite-Spin Scale   =       1.2000000000000000 [-]
	 SCS Same-Spin Energy      =      -0.1732099690787763 [Eh]
	 SCS Opposite-Spin Energy  =      -2.0734402844203479 [Eh]
	 SCS Correlation Energy    =      -2.2466502534991242 [Eh]
	 SCS Total Energy          =    -466.1139875662967711 [Eh]
	-----------------------------------------------------------

  Dipole Moment: [D]
     X:    -0.4887      Y:    -0.2414      Z:     0.0913     Total:     0.5527

*** Psi4 exiting successfully. Buy a developer a beer!
