                               Psi4 1.4a3.dev225

  ==> Input File <==

--------------------------------------------------------------------------
#psi4
#
memory 32 gb

molecule  {
0 1
  C       -0.4426020    -0.8338200     0.2172010
  C       -2.7584437    -0.2573083    -0.2569597
  C       -1.3727340    -0.3393290    -0.9144000
  C       -1.1456910    -0.3766540     1.5340440
  C       -2.4139240     0.3715680     1.0951880
  C        0.9762580    -0.3476150     0.0696660
  C       -3.7696470     0.5602740    -1.0788290
  C        1.2785260     1.0190760     0.1766520
  C        2.0223850    -1.2394820    -0.1958260
  C        2.5868840     1.4777510     0.0263980
  C        3.3346800    -0.7855870    -0.3490730
  C        3.6209360     0.5756970    -0.2390260
  H       -0.4241810    -1.9311060     0.1924250
  H       -3.1414670    -1.2511910    -0.1070860
  H       -1.0573430     0.6588960    -1.2471640
  H       -1.3450850    -0.9967850    -1.7909970
  H       -0.4862050     0.2392810     2.1528250
  H       -1.4122900    -1.2543580     2.1330320
  H       -3.2323950     0.2935880     1.8197160
  H       -2.2008590     1.4410770     0.9595580
  H       -3.4037750     1.5784440    -1.2516650
  H       -3.9506210     0.0965540    -2.0538340
  H       -4.7289130     0.6299820    -0.5557020
  H        0.4812350     1.7322070     0.3831320
  H        1.8065840    -2.3037040    -0.2799060
  H        2.8010350     2.5405970     0.1152150
  H        4.1326410    -1.4960120    -0.5534930
  H        4.6413930     0.9324010    -0.3562540
units angstrom
no_reorient  #important for SAPT in psi4, default
symmetry c1  #important for SAPT in psi4, default
}

set PROPERTIES_ORIGIN ["COM"]
properties('MP2/aug-cc-pvtz', properties = ['dipole'])
--------------------------------------------------------------------------

    Molecular point group: c1
  Charge       = 0
  Multiplicity = 1
  Basis Set: AUG-CC-PVTZ
    Blend: AUG-CC-PVTZ
  Basis Set: (AUG-CC-PVTZ AUX)
    Blend: AUG-CC-PVTZ-JKFIT

    Orbital Energies [Eh]
    ---------------------

    Doubly Occupied:

       1A    -11.236336     2A    -11.233518     3A    -11.232766
       4A    -11.228811     5A    -11.228315     6A    -11.228017
       7A    -11.227945     8A    -11.220209     9A    -11.216403
      10A    -11.214865    11A    -11.214803    12A    -11.211762
      13A     -1.155784    14A     -1.124258    15A     -1.038510
      16A     -1.008334    17A     -0.986790    18A     -0.953304
      19A     -0.891532    20A     -0.826269    21A     -0.815979
      22A     -0.767858    23A     -0.756625    24A     -0.689666
      25A     -0.660089    26A     -0.635260    27A     -0.621039
      28A     -0.606105    29A     -0.585820    30A     -0.579866
      31A     -0.573341    32A     -0.554966    33A     -0.528551
      34A     -0.510974    35A     -0.509591    36A     -0.490024
      37A     -0.474391    38A     -0.465314    39A     -0.461433
      40A     -0.454237    41A     -0.450870    42A     -0.442072
      43A     -0.332271    44A     -0.318573

  @DF-RHF Final Energy:  -463.89385391921127

   => Energetics <=

    Nuclear Repulsion Energy =            675.7992262734716178
    One-Electron Energy =               -1967.4592712694548027
    Two-Electron Energy =                 827.7661910767719746
    Total Energy =                       -463.8938539192113240
  Basis Set: (AUG-CC-PVTZ AUX)
    Blend: AUG-CC-PVTZ-RI
    Molecular point group: c1

    Geometry (in Angstrom), charge = 0, multiplicity = 1:

       Center              X                  Y                   Z               Mass
    ------------   -----------------  -----------------  -----------------  -----------------
         C           -0.513728438981    -0.826399801141     0.213598937148    12.000000000000
         C           -2.829570138981    -0.249888101141    -0.260561762852    12.000000000000
         C           -1.443860438981    -0.331908801141    -0.918002062852    12.000000000000
         C           -1.216817438981    -0.369233801141     1.530441937148    12.000000000000
         C           -2.485050438981     0.378988198859     1.091585937148    12.000000000000
         C            0.905131561019    -0.340194801141     0.066063937148    12.000000000000
         C           -3.840773438981     0.567694198859    -1.082431062852    12.000000000000
         C            1.207399561019     1.026496198859     0.173049937148    12.000000000000
         C            1.951258561019    -1.232061801141    -0.199428062852    12.000000000000
         C            2.515757561019     1.485171198859     0.022795937148    12.000000000000
         C            3.263553561019    -0.778166801141    -0.352675062852    12.000000000000
         C            3.549809561019     0.583117198859    -0.242628062852    12.000000000000
         H           -0.495307438981    -1.923685801141     0.188822937148     1.007825032230
         H           -3.212593438981    -1.243770801141    -0.110688062852     1.007825032230
         H           -1.128469438981     0.666316198859    -1.250766062852     1.007825032230
         H           -1.416211438981    -0.989364801141    -1.794599062852     1.007825032230
         H           -0.557331438981     0.246701198859     2.149222937148     1.007825032230
         H           -1.483416438981    -1.246937801141     2.129429937148     1.007825032230
         H           -3.303521438981     0.301008198859     1.816113937148     1.007825032230
         H           -2.271985438981     1.448497198859     0.955955937148     1.007825032230
         H           -3.474901438981     1.585864198859    -1.255267062852     1.007825032230
         H           -4.021747438981     0.103974198859    -2.057436062852     1.007825032230
         H           -4.800039438981     0.637402198859    -0.559304062852     1.007825032230
         H            0.410108561019     1.739627198859     0.379529937148     1.007825032230
         H            1.735457561019    -2.296283801141    -0.283508062852     1.007825032230
         H            2.729908561019     2.548017198859     0.111612937148     1.007825032230
         H            4.061514561019    -1.488591801141    -0.557095062852     1.007825032230
         H            4.570266561019     0.939821198859    -0.359856062852     1.007825032230

  Basis Set: AUG-CC-PVTZ
    Blend: AUG-CC-PVTZ
  Basis Set: (AUG-CC-PVTZ AUX)
    Blend: AUG-CC-PVTZ-JKFIT
	 Reference Energy          =    -463.8938539192112671 [Eh]
	 Singles Energy            =      -0.0000000000000000 [Eh]
	 Same-Spin Energy          =      -0.5194021933369364 [Eh]
	 Opposite-Spin Energy      =      -1.7263467038828315 [Eh]
	 Correlation Energy        =      -2.2457488972197677 [Eh]
	 Total Energy              =    -466.1396028164310223 [Eh]

	 ================> DF-SCS-MP2 Energies <==================
	-----------------------------------------------------------
	 SCS Same-Spin Scale       =       0.3333333333333333 [-]
	 SCS Opposite-Spin Scale   =       1.2000000000000000 [-]
	 SCS Same-Spin Energy      =      -0.1731340644456454 [Eh]
	 SCS Opposite-Spin Energy  =      -2.0716160446593976 [Eh]
	 SCS Correlation Energy    =      -2.2447501091050430 [Eh]
	 SCS Total Energy          =    -466.1386040283163084 [Eh]
	-----------------------------------------------------------

  Dipole Moment: [D]
     X:    -0.5760      Y:    -0.2172      Z:     0.0439     Total:     0.6172

*** Psi4 exiting successfully. Buy a developer a beer!
