                               Psi4 1.4a3.dev225

  ==> Input File <==

--------------------------------------------------------------------------
#psi4
#
memory 32 gb

molecule  {
0 1
  C       -0.4426020    -0.8338200     0.2172010
  C       -2.7550300    -0.2335230    -0.2686280
  C       -1.3727340    -0.3393290    -0.9144000
  C       -1.1456910    -0.3766540     1.5340440
  C       -2.4139240     0.3715680     1.0951880
  C        0.9762580    -0.3476150     0.0696660
  C       -3.7696470     0.5602740    -1.0788290
  C        1.2785260     1.0190760     0.1766520
  C        2.0223850    -1.2394820    -0.1958260
  C        2.5868840     1.4777510     0.0263980
  C        3.3346800    -0.7855870    -0.3490730
  C        3.6209360     0.5756970    -0.2390260
  H       -0.4241810    -1.9311060     0.1924250
  H       -3.1414670    -1.2511910    -0.1070860
  H       -1.0573430     0.6588960    -1.2471640
  H       -1.3450850    -0.9967850    -1.7909970
  H       -0.4862050     0.2392810     2.1528250
  H       -1.4122900    -1.2543580     2.1330320
  H       -3.2323950     0.2935880     1.8197160
  H       -2.2008590     1.4410770     0.9595580
  H       -3.4014919     1.5833322    -1.2138047
  H       -3.9506210     0.0965540    -2.0538340
  H       -4.7289130     0.6299820    -0.5557020
  H        0.4812350     1.7322070     0.3831320
  H        1.8065840    -2.3037040    -0.2799060
  H        2.8010350     2.5405970     0.1152150
  H        4.1326410    -1.4960120    -0.5534930
  H        4.6413930     0.9324010    -0.3562540
units angstrom
no_reorient  #important for SAPT in psi4, default
symmetry c1  #important for SAPT in psi4, default
}

set PROPERTIES_ORIGIN ["COM"]
properties('MP2/aug-cc-pvtz', properties = ['dipole'])
--------------------------------------------------------------------------

    Molecular point group: c1
  Charge       = 0
  Multiplicity = 1
  Basis Set: AUG-CC-PVTZ
    Blend: AUG-CC-PVTZ
  Basis Set: (AUG-CC-PVTZ AUX)
    Blend: AUG-CC-PVTZ-JKFIT

    Orbital Energies [Eh]
    ---------------------

    Doubly Occupied:

       1A    -11.236488     2A    -11.233582     3A    -11.232841
       4A    -11.228922     5A    -11.228426     6A    -11.228359
       7A    -11.228107     8A    -11.220940     9A    -11.216720
      10A    -11.214950    11A    -11.214699    12A    -11.211656
      13A     -1.155998    14A     -1.124849    15A     -1.039558
      16A     -1.008434    17A     -0.988508    18A     -0.953818
      19A     -0.892483    20A     -0.826339    21A     -0.816176
      22A     -0.763403    23A     -0.757211    24A     -0.689865
      25A     -0.660553    26A     -0.635100    27A     -0.622057
      28A     -0.606291    29A     -0.586989    30A     -0.580102
      31A     -0.573205    32A     -0.555990    33A     -0.528939
      34A     -0.510659    35A     -0.510053    36A     -0.489944
      37A     -0.475268    38A     -0.462925    39A     -0.461139
      40A     -0.453874    41A     -0.450458    42A     -0.443834
      43A     -0.332341    44A     -0.318792

  @DF-RHF Final Energy:  -463.89422461001857

   => Energetics <=

    Nuclear Repulsion Energy =            675.9789199339794550
    One-Electron Energy =               -1967.8045988239730377
    Two-Electron Energy =                 827.9314542799749006
    Total Energy =                       -463.8942246100185685
  Basis Set: (AUG-CC-PVTZ AUX)
    Blend: AUG-CC-PVTZ-RI
    Molecular point group: c1

    Geometry (in Angstrom), charge = 0, multiplicity = 1:

       Center              X                  Y                   Z               Mass
    ------------   -----------------  -----------------  -----------------  -----------------
         C           -0.513998636084    -0.828213070067     0.214235083374    12.000000000000
         C           -2.826426636084    -0.227916070067    -0.271593916626    12.000000000000
         C           -1.444130636084    -0.333722070067    -0.917365916626    12.000000000000
         C           -1.217087636084    -0.371047070067     1.531078083374    12.000000000000
         C           -2.485320636084     0.377174929933     1.092222083374    12.000000000000
         C            0.904861363916    -0.342008070067     0.066700083374    12.000000000000
         C           -3.841043636084     0.565880929933    -1.081794916626    12.000000000000
         C            1.207129363916     1.024682929933     0.173686083374    12.000000000000
         C            1.950988363916    -1.233875070067    -0.198791916626    12.000000000000
         C            2.515487363916     1.483357929933     0.023432083374    12.000000000000
         C            3.263283363916    -0.779980070067    -0.352038916626    12.000000000000
         C            3.549539363916     0.581303929933    -0.241991916626    12.000000000000
         H           -0.495577636084    -1.925499070067     0.189459083374     1.007825032230
         H           -3.212863636084    -1.245584070067    -0.110051916626     1.007825032230
         H           -1.128739636084     0.664502929933    -1.250129916626     1.007825032230
         H           -1.416481636084    -0.991178070067    -1.793962916626     1.007825032230
         H           -0.557601636084     0.244887929933     2.149859083374     1.007825032230
         H           -1.483686636084    -1.248751070067     2.130066083374     1.007825032230
         H           -3.303791636084     0.299194929933     1.816750083374     1.007825032230
         H           -2.272255636084     1.446683929933     0.956592083374     1.007825032230
         H           -3.472888536084     1.588939129933    -1.216770616626     1.007825032230
         H           -4.022017636084     0.102160929933    -2.056799916626     1.007825032230
         H           -4.800309636084     0.635588929933    -0.558667916626     1.007825032230
         H            0.409838363916     1.737813929933     0.380166083374     1.007825032230
         H            1.735187363916    -2.298097070067    -0.282871916626     1.007825032230
         H            2.729638363916     2.546203929933     0.112249083374     1.007825032230
         H            4.061244363916    -1.490405070067    -0.556458916626     1.007825032230
         H            4.569996363916     0.938007929933    -0.359219916626     1.007825032230

  Basis Set: AUG-CC-PVTZ
    Blend: AUG-CC-PVTZ
  Basis Set: (AUG-CC-PVTZ AUX)
    Blend: AUG-CC-PVTZ-JKFIT
	 Reference Energy          =    -463.8942246100185685 [Eh]
	 Singles Energy            =      -0.0000000000000000 [Eh]
	 Same-Spin Energy          =      -0.5195402441901298 [Eh]
	 Opposite-Spin Energy      =      -1.7264873610498406 [Eh]
	 Correlation Energy        =      -2.2460276052399704 [Eh]
	 Total Energy              =    -466.1402522152585561 [Eh]

	 ================> DF-SCS-MP2 Energies <==================
	-----------------------------------------------------------
	 SCS Same-Spin Scale       =       0.3333333333333333 [-]
	 SCS Opposite-Spin Scale   =       1.2000000000000000 [-]
	 SCS Same-Spin Energy      =      -0.1731800813967099 [Eh]
	 SCS Opposite-Spin Energy  =      -2.0717848332598088 [Eh]
	 SCS Correlation Energy    =      -2.2449649146565185 [Eh]
	 SCS Total Energy          =    -466.1391895246750892 [Eh]
	-----------------------------------------------------------

  Dipole Moment: [D]
     X:    -0.5721      Y:    -0.2057      Z:     0.0464     Total:     0.6098

*** Psi4 exiting successfully. Buy a developer a beer!
