                               Psi4 1.4a3.dev225

  ==> Input File <==

--------------------------------------------------------------------------
#psi4
#
memory 32 gb

molecule  {
0 1
  C       -0.4426020    -0.8338200     0.2172010
  C       -2.7550300    -0.2335230    -0.2686280
  C       -1.4930597    -0.2753596    -1.0607886
  C       -1.1456910    -0.3766540     1.5340440
  C       -2.4139240     0.3715680     1.0951880
  C        0.9762580    -0.3476150     0.0696660
  C       -3.7696470     0.5602740    -1.0788290
  C        1.2785260     1.0190760     0.1766520
  C        2.0223850    -1.2394820    -0.1958260
  C        2.5868840     1.4777510     0.0263980
  C        3.3346800    -0.7855870    -0.3490730
  C        3.6209360     0.5756970    -0.2390260
  H       -0.4241810    -1.9311060     0.1924250
  H       -3.1414670    -1.2511910    -0.1070860
  H       -1.0573430     0.6588960    -1.2471640
  H       -1.3450850    -0.9967850    -1.7909970
  H       -0.4862050     0.2392810     2.1528250
  H       -1.4122900    -1.2543580     2.1330320
  H       -3.2323950     0.2935880     1.8197160
  H       -2.2008590     1.4410770     0.9595580
  H       -3.4037750     1.5784440    -1.2516650
  H       -3.9506210     0.0965540    -2.0538340
  H       -4.7289130     0.6299820    -0.5557020
  H        0.4812350     1.7322070     0.3831320
  H        1.8065840    -2.3037040    -0.2799060
  H        2.8010350     2.5405970     0.1152150
  H        4.1326410    -1.4960120    -0.5534930
  H        4.6413930     0.9324010    -0.3562540
units angstrom
no_reorient  #important for SAPT in psi4, default
symmetry c1  #important for SAPT in psi4, default
}

set PROPERTIES_ORIGIN ["COM"]
properties('MP2/aug-cc-pvtz', properties = ['dipole'])
--------------------------------------------------------------------------

    Molecular point group: c1
  Charge       = 0
  Multiplicity = 1
  Basis Set: AUG-CC-PVTZ
    Blend: AUG-CC-PVTZ
  Basis Set: (AUG-CC-PVTZ AUX)
    Blend: AUG-CC-PVTZ-JKFIT

    Orbital Energies [Eh]
    ---------------------

    Doubly Occupied:

       1A    -11.235777     2A    -11.233030     3A    -11.232659
       4A    -11.232265     5A    -11.227835     6A    -11.227282
       7A    -11.226860     8A    -11.222239     9A    -11.217385
      10A    -11.216701    11A    -11.215874    12A    -11.209276
      13A     -1.151392    14A     -1.120789    15A     -1.037952
      16A     -1.007633    17A     -0.991742    18A     -0.944611
      19A     -0.893565    20A     -0.826681    21A     -0.816137
      22A     -0.771014    23A     -0.755097    24A     -0.686501
      25A     -0.664917    26A     -0.632122    27A     -0.620428
      28A     -0.603685    29A     -0.591558    30A     -0.581970
      31A     -0.573283    32A     -0.560554    33A     -0.534778
      34A     -0.510416    35A     -0.503635    36A     -0.492299
      37A     -0.483709    38A     -0.472194    39A     -0.459335
      40A     -0.458677    41A     -0.450053    42A     -0.409140
      43A     -0.331796    44A     -0.311631

  @DF-RHF Final Energy:  -463.86698945121248

   => Energetics <=

    Nuclear Repulsion Energy =            673.5097431357426103
    One-Electron Energy =               -1962.8605189390020769
    Two-Electron Energy =                 825.4837863520469909
    Total Energy =                       -463.8669894512124756
  Basis Set: (AUG-CC-PVTZ AUX)
    Blend: AUG-CC-PVTZ-RI
    Molecular point group: c1

    Geometry (in Angstrom), charge = 0, multiplicity = 1:

       Center              X                  Y                   Z               Mass
    ------------   -----------------  -----------------  -----------------  -----------------
         C           -0.504966894917    -0.832976257543     0.225443935898    12.000000000000
         C           -2.817394894917    -0.232679257543    -0.260385064102    12.000000000000
         C           -1.555424594917    -0.274515857543    -1.052545664102    12.000000000000
         C           -1.208055894917    -0.375810257543     1.542286935898    12.000000000000
         C           -2.476288894917     0.372411742457     1.103430935898    12.000000000000
         C            0.913893105083    -0.346771257543     0.077908935898    12.000000000000
         C           -3.832011894917     0.561117742457    -1.070586064102    12.000000000000
         C            1.216161105083     1.019919742457     0.184894935898    12.000000000000
         C            1.960020105083    -1.238638257543    -0.187583064102    12.000000000000
         C            2.524519105083     1.478594742457     0.034640935898    12.000000000000
         C            3.272315105083    -0.784743257543    -0.340830064102    12.000000000000
         C            3.558571105083     0.576540742457    -0.230783064102    12.000000000000
         H           -0.486545894917    -1.930262257543     0.200667935898     1.007825032230
         H           -3.203831894917    -1.250347257543    -0.098843064102     1.007825032230
         H           -1.119707894917     0.659739742457    -1.238921064102     1.007825032230
         H           -1.407449894917    -0.995941257543    -1.782754064102     1.007825032230
         H           -0.548569894917     0.240124742457     2.161067935898     1.007825032230
         H           -1.474654894917    -1.253514257543     2.141274935898     1.007825032230
         H           -3.294759894917     0.294431742457     1.827958935898     1.007825032230
         H           -2.263223894917     1.441920742457     0.967800935898     1.007825032230
         H           -3.466139894917     1.579287742457    -1.243422064102     1.007825032230
         H           -4.012985894917     0.097397742457    -2.045591064102     1.007825032230
         H           -4.791277894917     0.630825742457    -0.547459064102     1.007825032230
         H            0.418870105083     1.733050742457     0.391374935898     1.007825032230
         H            1.744219105083    -2.302860257543    -0.271663064102     1.007825032230
         H            2.738670105083     2.541440742457     0.123457935898     1.007825032230
         H            4.070276105083    -1.495168257543    -0.545250064102     1.007825032230
         H            4.579028105083     0.933244742457    -0.348011064102     1.007825032230

  Basis Set: AUG-CC-PVTZ
    Blend: AUG-CC-PVTZ
  Basis Set: (AUG-CC-PVTZ AUX)
    Blend: AUG-CC-PVTZ-JKFIT
	 Reference Energy          =    -463.8669894512124756 [Eh]
	 Singles Energy            =      -0.0000000000000000 [Eh]
	 Same-Spin Energy          =      -0.5202856077173311 [Eh]
	 Opposite-Spin Energy      =      -1.7286359150189714 [Eh]
	 Correlation Energy        =      -2.2489215227363024 [Eh]
	 Total Energy              =    -466.1159109739487576 [Eh]

	 ================> DF-SCS-MP2 Energies <==================
	-----------------------------------------------------------
	 SCS Same-Spin Scale       =       0.3333333333333333 [-]
	 SCS Opposite-Spin Scale   =       1.2000000000000000 [-]
	 SCS Same-Spin Energy      =      -0.1734285359057770 [Eh]
	 SCS Opposite-Spin Energy  =      -2.0743630980227654 [Eh]
	 SCS Correlation Energy    =      -2.2477916339285424 [Eh]
	 SCS Total Energy          =    -466.1147810851410327 [Eh]
	-----------------------------------------------------------

  Dipole Moment: [D]
     X:    -0.5899      Y:    -0.2413      Z:     0.0669     Total:     0.6408

*** Psi4 exiting successfully. Buy a developer a beer!
