                               Psi4 1.4a3.dev225

  ==> Input File <==

--------------------------------------------------------------------------
#psi4
#
memory 32 gb

molecule  {
0 1
  C       -0.4426020    -0.8338200     0.2172010
  C       -2.7550300    -0.2335230    -0.2686280
  C       -1.3727340    -0.3393290    -0.9144000
  C       -1.1456910    -0.3766540     1.5340440
  C       -2.4139240     0.3715680     1.0951880
  C        0.9762580    -0.3476150     0.0696660
  C       -3.7696470     0.5602740    -1.0788290
  C        1.2785260     1.0190760     0.1766520
  C        2.0223850    -1.2394820    -0.1958260
  C        2.5868840     1.4777510     0.0263980
  C        3.3346800    -0.7855870    -0.3490730
  C        3.6209360     0.5756970    -0.2390260
  H       -0.4241810    -1.9311060     0.1924250
  H       -3.1414670    -1.2511910    -0.1070860
  H       -1.0573430     0.6588960    -1.2471640
  H       -1.3450850    -0.9967850    -1.7909970
  H       -0.4982596     0.2280224     2.1415144
  H       -1.4122900    -1.2543580     2.1330320
  H       -3.2323950     0.2935880     1.8197160
  H       -2.2008590     1.4410770     0.9595580
  H       -3.4037750     1.5784440    -1.2516650
  H       -3.9506210     0.0965540    -2.0538340
  H       -4.7289130     0.6299820    -0.5557020
  H        0.4812350     1.7322070     0.3831320
  H        1.8065840    -2.3037040    -0.2799060
  H        2.8010350     2.5405970     0.1152150
  H        4.1326410    -1.4960120    -0.5534930
  H        4.6413930     0.9324010    -0.3562540
units angstrom
no_reorient  #important for SAPT in psi4, default
symmetry c1  #important for SAPT in psi4, default
}

set PROPERTIES_ORIGIN ["COM"]
properties('MP2/aug-cc-pvtz', properties = ['dipole'])
--------------------------------------------------------------------------

    Molecular point group: c1
  Charge       = 0
  Multiplicity = 1
  Basis Set: AUG-CC-PVTZ
    Blend: AUG-CC-PVTZ
  Basis Set: (AUG-CC-PVTZ AUX)
    Blend: AUG-CC-PVTZ-JKFIT

    Orbital Energies [Eh]
    ---------------------

    Doubly Occupied:

       1A    -11.236499     2A    -11.233632     3A    -11.232885
       4A    -11.228962     5A    -11.228466     6A    -11.228183
       7A    -11.228110     8A    -11.221020     9A    -11.214883
      10A    -11.214603    11A    -11.214069    12A    -11.211472
      13A     -1.156038    14A     -1.124828    15A     -1.039476
      16A     -1.008479    17A     -0.988961    18A     -0.953875
      19A     -0.892953    20A     -0.826637    21A     -0.816475
      22A     -0.763468    23A     -0.758070    24A     -0.690167
      25A     -0.660291    26A     -0.635579    27A     -0.622024
      28A     -0.607021    29A     -0.586294    30A     -0.580020
      31A     -0.573483    32A     -0.556488    33A     -0.528545
      34A     -0.511268    35A     -0.510124    36A     -0.490114
      37A     -0.475585    38A     -0.463268    39A     -0.461150
      40A     -0.453645    41A     -0.450835    42A     -0.443940
      43A     -0.332394    44A     -0.318832

  @DF-RHF Final Energy:  -463.89451655298654

   => Energetics <=

    Nuclear Repulsion Energy =            676.0327846444323541
    One-Electron Energy =               -1967.9083797878276982
    Two-Electron Energy =                 827.9810785904089698
    Total Energy =                       -463.8945165529864880
  Basis Set: (AUG-CC-PVTZ AUX)
    Blend: AUG-CC-PVTZ-RI
    Molecular point group: c1

    Geometry (in Angstrom), charge = 0, multiplicity = 1:

       Center              X                  Y                   Z               Mass
    ------------   -----------------  -----------------  -----------------  -----------------
         C           -0.513908394867    -0.828111442408     0.214544564103    12.000000000000
         C           -2.826336394867    -0.227814442408    -0.271284435897    12.000000000000
         C           -1.444040394867    -0.333620442408    -0.917056435897    12.000000000000
         C           -1.216997394867    -0.370945442408     1.531387564103    12.000000000000
         C           -2.485230394867     0.377276557592     1.092531564103    12.000000000000
         C            0.904951605133    -0.341906442408     0.067009564103    12.000000000000
         C           -3.840953394867     0.565982557592    -1.081485435897    12.000000000000
         C            1.207219605133     1.024784557592     0.173995564103    12.000000000000
         C            1.951078605133    -1.233773442408    -0.198482435897    12.000000000000
         C            2.515577605133     1.483459557592     0.023741564103    12.000000000000
         C            3.263373605133    -0.779878442408    -0.351729435897    12.000000000000
         C            3.549629605133     0.581405557592    -0.241682435897    12.000000000000
         H           -0.495487394867    -1.925397442408     0.189768564103     1.007825032230
         H           -3.212773394867    -1.245482442408    -0.109742435897     1.007825032230
         H           -1.128649394867     0.664604557592    -1.249820435897     1.007825032230
         H           -1.416391394867    -0.991076442408    -1.793653435897     1.007825032230
         H           -0.569565994867     0.233730957592     2.138857964103     1.007825032230
         H           -1.483596394867    -1.248649442408     2.130375564103     1.007825032230
         H           -3.303701394867     0.299296557592     1.817059564103     1.007825032230
         H           -2.272165394867     1.446785557592     0.956901564103     1.007825032230
         H           -3.475081394867     1.584152557592    -1.254321435897     1.007825032230
         H           -4.021927394867     0.102262557592    -2.056490435897     1.007825032230
         H           -4.800219394867     0.635690557592    -0.558358435897     1.007825032230
         H            0.409928605133     1.737915557592     0.380475564103     1.007825032230
         H            1.735277605133    -2.297995442408    -0.282562435897     1.007825032230
         H            2.729728605133     2.546305557592     0.112558564103     1.007825032230
         H            4.061334605133    -1.490303442408    -0.556149435897     1.007825032230
         H            4.570086605133     0.938109557592    -0.358910435897     1.007825032230

  Basis Set: AUG-CC-PVTZ
    Blend: AUG-CC-PVTZ
  Basis Set: (AUG-CC-PVTZ AUX)
    Blend: AUG-CC-PVTZ-JKFIT
	 Reference Energy          =    -463.8945165529865449 [Eh]
	 Singles Energy            =      -0.0000000000000000 [Eh]
	 Same-Spin Energy          =      -0.5194805135608951 [Eh]
	 Opposite-Spin Energy      =      -1.7262736842574393 [Eh]
	 Correlation Energy        =      -2.2457541978183344 [Eh]
	 Total Energy              =    -466.1402707508048593 [Eh]

	 ================> DF-SCS-MP2 Energies <==================
	-----------------------------------------------------------
	 SCS Same-Spin Scale       =       0.3333333333333333 [-]
	 SCS Opposite-Spin Scale   =       1.2000000000000000 [-]
	 SCS Same-Spin Energy      =      -0.1731601711869650 [Eh]
	 SCS Opposite-Spin Energy  =      -2.0715284211089271 [Eh]
	 SCS Correlation Energy    =      -2.2446885922958919 [Eh]
	 SCS Total Energy          =    -466.1392051452824603 [Eh]
	-----------------------------------------------------------

  Dipole Moment: [D]
     X:    -0.5603      Y:    -0.1997      Z:     0.0467     Total:     0.5967

*** Psi4 exiting successfully. Buy a developer a beer!
