                               Psi4 1.4a3.dev225

  ==> Input File <==

--------------------------------------------------------------------------
#psi4
#
memory 32 gb

molecule  {
0 1
  C       -0.4035554    -0.9569532     0.1197281
  C       -2.7550300    -0.2335230    -0.2686280
  C       -1.3727340    -0.3393290    -0.9144000
  C       -1.1456910    -0.3766540     1.5340440
  C       -2.4139240     0.3715680     1.0951880
  C        0.9762580    -0.3476150     0.0696660
  C       -3.7696470     0.5602740    -1.0788290
  C        1.2785260     1.0190760     0.1766520
  C        2.0223850    -1.2394820    -0.1958260
  C        2.5868840     1.4777510     0.0263980
  C        3.3346800    -0.7855870    -0.3490730
  C        3.6209360     0.5756970    -0.2390260
  H       -0.4241810    -1.9311060     0.1924250
  H       -3.1414670    -1.2511910    -0.1070860
  H       -1.0573430     0.6588960    -1.2471640
  H       -1.3450850    -0.9967850    -1.7909970
  H       -0.4862050     0.2392810     2.1528250
  H       -1.4122900    -1.2543580     2.1330320
  H       -3.2323950     0.2935880     1.8197160
  H       -2.2008590     1.4410770     0.9595580
  H       -3.4037750     1.5784440    -1.2516650
  H       -3.9506210     0.0965540    -2.0538340
  H       -4.7289130     0.6299820    -0.5557020
  H        0.4812350     1.7322070     0.3831320
  H        1.8065840    -2.3037040    -0.2799060
  H        2.8010350     2.5405970     0.1152150
  H        4.1326410    -1.4960120    -0.5534930
  H        4.6413930     0.9324010    -0.3562540
units angstrom
no_reorient  #important for SAPT in psi4, default
symmetry c1  #important for SAPT in psi4, default
}

set PROPERTIES_ORIGIN ["COM"]
properties('MP2/aug-cc-pvtz', properties = ['dipole'])
--------------------------------------------------------------------------

    Molecular point group: c1
  Charge       = 0
  Multiplicity = 1
  Basis Set: AUG-CC-PVTZ
    Blend: AUG-CC-PVTZ
  Basis Set: (AUG-CC-PVTZ AUX)
    Blend: AUG-CC-PVTZ-JKFIT

    Orbital Energies [Eh]
    ---------------------

    Doubly Occupied:

       1A    -11.238268     2A    -11.234347     3A    -11.231903
       4A    -11.229840     5A    -11.228026     6A    -11.226591
       7A    -11.225652     8A    -11.221810     9A    -11.220053
      10A    -11.216422    11A    -11.214435    12A    -11.211850
      13A     -1.153645    14A     -1.119173    15A     -1.040026
      16A     -1.008201    17A     -0.981750    18A     -0.957717
      19A     -0.889830    20A     -0.829024    21A     -0.812972
      22A     -0.770156    23A     -0.761718    24A     -0.692968
      25A     -0.655497    26A     -0.634430    27A     -0.624263
      28A     -0.603291    29A     -0.589350    30A     -0.581657
      31A     -0.578060    32A     -0.557826    33A     -0.529027
      34A     -0.513810    35A     -0.506166    36A     -0.491095
      37A     -0.477071    38A     -0.471329    39A     -0.460979
      40A     -0.452090    41A     -0.447212    42A     -0.425398
      43A     -0.332219    44A     -0.314109

  @DF-RHF Final Energy:  -463.86909575070683

   => Energetics <=

    Nuclear Repulsion Energy =            674.4967947404103370
    One-Electron Energy =               -1964.8092646152931593
    Two-Electron Energy =                 826.4433741241761027
    Total Energy =                       -463.8690957507068333
  Basis Set: (AUG-CC-PVTZ AUX)
    Blend: AUG-CC-PVTZ-RI
    Molecular point group: c1

    Geometry (in Angstrom), charge = 0, multiplicity = 1:

       Center              X                  Y                   Z               Mass
    ------------   -----------------  -----------------  -----------------  -----------------
         C           -0.477863871530    -0.942087734586     0.124305226906    12.000000000000
         C           -2.829338471530    -0.218657534586    -0.264050873094    12.000000000000
         C           -1.447042471530    -0.324463534586    -0.909822873094    12.000000000000
         C           -1.219999471530    -0.361788534586     1.538621126906    12.000000000000
         C           -2.488232471530     0.386433465414     1.099765126906    12.000000000000
         C            0.901949528470    -0.332749534586     0.074243126906    12.000000000000
         C           -3.843955471530     0.575139465414    -1.074251873094    12.000000000000
         C            1.204217528470     1.033941465414     0.181229126906    12.000000000000
         C            1.948076528470    -1.224616534586    -0.191248873094    12.000000000000
         C            2.512575528470     1.492616465414     0.030975126906    12.000000000000
         C            3.260371528470    -0.770721534586    -0.344495873094    12.000000000000
         C            3.546627528470     0.590562465414    -0.234448873094    12.000000000000
         H           -0.498489471530    -1.916240534586     0.197002126906     1.007825032230
         H           -3.215775471530    -1.236325534586    -0.102508873094     1.007825032230
         H           -1.131651471530     0.673761465414    -1.242586873094     1.007825032230
         H           -1.419393471530    -0.981919534586    -1.786419873094     1.007825032230
         H           -0.560513471530     0.254146465414     2.157402126906     1.007825032230
         H           -1.486598471530    -1.239492534586     2.137609126906     1.007825032230
         H           -3.306703471530     0.308453465414     1.824293126906     1.007825032230
         H           -2.275167471530     1.455942465414     0.964135126906     1.007825032230
         H           -3.478083471530     1.593309465414    -1.247087873094     1.007825032230
         H           -4.024929471530     0.111419465414    -2.049256873094     1.007825032230
         H           -4.803221471530     0.644847465414    -0.551124873094     1.007825032230
         H            0.406926528470     1.747072465414     0.387709126906     1.007825032230
         H            1.732275528470    -2.288838534586    -0.275328873094     1.007825032230
         H            2.726726528470     2.555462465414     0.119792126906     1.007825032230
         H            4.058332528470    -1.481146534586    -0.548915873094     1.007825032230
         H            4.567084528470     0.947266465414    -0.351676873094     1.007825032230

  Basis Set: AUG-CC-PVTZ
    Blend: AUG-CC-PVTZ
  Basis Set: (AUG-CC-PVTZ AUX)
    Blend: AUG-CC-PVTZ-JKFIT
	 Reference Energy          =    -463.8690957507068333 [Eh]
	 Singles Energy            =      -0.0000000000000000 [Eh]
	 Same-Spin Energy          =      -0.5196934372926747 [Eh]
	 Opposite-Spin Energy      =      -1.7273670716562175 [Eh]
	 Correlation Energy        =      -2.2470605089488922 [Eh]
	 Total Energy              =    -466.1161562596557246 [Eh]

	 ================> DF-SCS-MP2 Energies <==================
	-----------------------------------------------------------
	 SCS Same-Spin Scale       =       0.3333333333333333 [-]
	 SCS Opposite-Spin Scale   =       1.2000000000000000 [-]
	 SCS Same-Spin Energy      =      -0.1732311457642249 [Eh]
	 SCS Opposite-Spin Energy  =      -2.0728404859874607 [Eh]
	 SCS Correlation Energy    =      -2.2460716317516858 [Eh]
	 SCS Total Energy          =    -466.1151673824585373 [Eh]
	-----------------------------------------------------------

  Dipole Moment: [D]
     X:    -0.6191      Y:    -0.2638      Z:    -0.0028     Total:     0.6730

*** Psi4 exiting successfully. Buy a developer a beer!
