                               Psi4 1.4a3.dev225

  ==> Input File <==

--------------------------------------------------------------------------
#psi4
#
memory 32 gb

molecule  {
0 1
  C       -0.4626020    -0.8222243     0.2027788
  C       -2.7550300    -0.2335230    -0.2686280
  C       -1.3727340    -0.3393290    -0.9144000
  C       -1.1456910    -0.3766540     1.5340440
  C       -2.4139240     0.3715680     1.0951880
  C        0.9762580    -0.3476150     0.0696660
  C       -3.7696470     0.5602740    -1.0788290
  C        1.2785260     1.0190760     0.1766520
  C        2.0223850    -1.2394820    -0.1958260
  C        2.5868840     1.4777510     0.0263980
  C        3.3346800    -0.7855870    -0.3490730
  C        3.6209360     0.5756970    -0.2390260
  H       -0.4241810    -1.9311060     0.1924250
  H       -3.1414670    -1.2511910    -0.1070860
  H       -1.0573430     0.6588960    -1.2471640
  H       -1.3450850    -0.9967850    -1.7909970
  H       -0.4862050     0.2392810     2.1528250
  H       -1.4122900    -1.2543580     2.1330320
  H       -3.2323950     0.2935880     1.8197160
  H       -2.2008590     1.4410770     0.9595580
  H       -3.4037750     1.5784440    -1.2516650
  H       -3.9506210     0.0965540    -2.0538340
  H       -4.7289130     0.6299820    -0.5557020
  H        0.4812350     1.7322070     0.3831320
  H        1.8065840    -2.3037040    -0.2799060
  H        2.8010350     2.5405970     0.1152150
  H        4.1326410    -1.4960120    -0.5534930
  H        4.6413930     0.9324010    -0.3562540
units angstrom
no_reorient  #important for SAPT in psi4, default
symmetry c1  #important for SAPT in psi4, default
}

set PROPERTIES_ORIGIN ["COM"]
properties('MP2/aug-cc-pvtz', properties = ['dipole'])
--------------------------------------------------------------------------

    Molecular point group: c1
  Charge       = 0
  Multiplicity = 1
  Basis Set: AUG-CC-PVTZ
    Blend: AUG-CC-PVTZ
  Basis Set: (AUG-CC-PVTZ AUX)
    Blend: AUG-CC-PVTZ-JKFIT

    Orbital Energies [Eh]
    ---------------------

    Doubly Occupied:

       1A    -11.236892     2A    -11.233446     3A    -11.232878
       4A    -11.229008     5A    -11.228962     6A    -11.228350
       7A    -11.228198     8A    -11.221251     9A    -11.216604
      10A    -11.214714    11A    -11.213584    12A    -11.211547
      13A     -1.156176    14A     -1.126432    15A     -1.038225
      16A     -1.008338    17A     -0.988469    18A     -0.956669
      19A     -0.891758    20A     -0.825498    21A     -0.815612
      22A     -0.764319    23A     -0.756319    24A     -0.689861
      25A     -0.661283    26A     -0.634836    27A     -0.621904
      28A     -0.606777    29A     -0.586055    30A     -0.580142
      31A     -0.573414    32A     -0.556032    33A     -0.528212
      34A     -0.511582    35A     -0.509498    36A     -0.489589
      37A     -0.477882    38A     -0.464858    39A     -0.461109
      40A     -0.452511    41A     -0.448104    42A     -0.443296
      43A     -0.332286    44A     -0.319566

  @DF-RHF Final Energy:  -463.89359489591357

   => Energetics <=

    Nuclear Repulsion Energy =            676.0939984693523002
    One-Electron Energy =               -1968.0310979129924362
    Two-Electron Energy =                 828.0435045477265703
    Total Energy =                       -463.8935948959135658
  Basis Set: (AUG-CC-PVTZ AUX)
    Blend: AUG-CC-PVTZ-RI
    Molecular point group: c1

    Geometry (in Angstrom), charge = 0, multiplicity = 1:

       Center              X                  Y                   Z               Mass
    ------------   -----------------  -----------------  -----------------  -----------------
         C           -0.532485439132    -0.817455601334     0.201131994653    12.000000000000
         C           -2.824913439132    -0.228754301334    -0.270274805347    12.000000000000
         C           -1.442617439132    -0.334560301334    -0.916046805347    12.000000000000
         C           -1.215574439132    -0.371885301334     1.532397194653    12.000000000000
         C           -2.483807439132     0.376336698666     1.093541194653    12.000000000000
         C            0.906374560868    -0.342846301334     0.068019194653    12.000000000000
         C           -3.839530439132     0.565042698666    -1.080475805347    12.000000000000
         C            1.208642560868     1.023844698666     0.175005194653    12.000000000000
         C            1.952501560868    -1.234713301334    -0.197472805347    12.000000000000
         C            2.517000560868     1.482519698666     0.024751194653    12.000000000000
         C            3.264796560868    -0.780818301334    -0.350719805347    12.000000000000
         C            3.551052560868     0.580465698666    -0.240672805347    12.000000000000
         H           -0.494064439132    -1.926337301334     0.190778194653     1.007825032230
         H           -3.211350439132    -1.246422301334    -0.108732805347     1.007825032230
         H           -1.127226439132     0.663664698666    -1.248810805347     1.007825032230
         H           -1.414968439132    -0.992016301334    -1.792643805347     1.007825032230
         H           -0.556088439132     0.244049698666     2.151178194653     1.007825032230
         H           -1.482173439132    -1.249589301334     2.131385194653     1.007825032230
         H           -3.302278439132     0.298356698666     1.818069194653     1.007825032230
         H           -2.270742439132     1.445845698666     0.957911194653     1.007825032230
         H           -3.473658439132     1.583212698666    -1.253311805347     1.007825032230
         H           -4.020504439132     0.101322698666    -2.055480805347     1.007825032230
         H           -4.798796439132     0.634750698666    -0.557348805347     1.007825032230
         H            0.411351560868     1.736975698666     0.381485194653     1.007825032230
         H            1.736700560868    -2.298935301334    -0.281552805347     1.007825032230
         H            2.731151560868     2.545365698666     0.113568194653     1.007825032230
         H            4.062757560868    -1.491243301334    -0.555139805347     1.007825032230
         H            4.571509560868     0.937169698666    -0.357900805347     1.007825032230

  Basis Set: AUG-CC-PVTZ
    Blend: AUG-CC-PVTZ
  Basis Set: (AUG-CC-PVTZ AUX)
    Blend: AUG-CC-PVTZ-JKFIT
	 Reference Energy          =    -463.8935948959135658 [Eh]
	 Singles Energy            =      -0.0000000000000000 [Eh]
	 Same-Spin Energy          =      -0.5195693685914554 [Eh]
	 Opposite-Spin Energy      =      -1.7265001394870994 [Eh]
	 Correlation Energy        =      -2.2460695080785547 [Eh]
	 Total Energy              =    -466.1396644039921284 [Eh]

	 ================> DF-SCS-MP2 Energies <==================
	-----------------------------------------------------------
	 SCS Same-Spin Scale       =       0.3333333333333333 [-]
	 SCS Opposite-Spin Scale   =       1.2000000000000000 [-]
	 SCS Same-Spin Energy      =      -0.1731897895304851 [Eh]
	 SCS Opposite-Spin Energy  =      -2.0718001673845192 [Eh]
	 SCS Correlation Energy    =      -2.2449899569150045 [Eh]
	 SCS Total Energy          =    -466.1385848528285578 [Eh]
	-----------------------------------------------------------

  Dipole Moment: [D]
     X:    -0.5635      Y:    -0.1943      Z:     0.0325     Total:     0.5970

*** Psi4 exiting successfully. Buy a developer a beer!
