                               Psi4 1.4a3.dev225

  ==> Input File <==

--------------------------------------------------------------------------
#psi4
#
memory 32 gb

molecule  {
0 1
  C       -0.4426020    -0.8338200     0.2172010
  C       -2.7550300    -0.2335230    -0.2686280
  C       -1.3727340    -0.3393290    -0.9144000
  C       -1.1456910    -0.3766540     1.5340440
  C       -2.4139240     0.3715680     1.0951880
  C        0.9762580    -0.3476150     0.0696660
  C       -3.7696470     0.5602740    -1.0788290
  C        1.2785260     1.0190760     0.1766520
  C        2.0223850    -1.2394820    -0.1958260
  C        2.5868840     1.4777510     0.0263980
  C        3.3346800    -0.7855870    -0.3490730
  C        3.6209360     0.5756970    -0.2390260
  H       -0.4241810    -1.9311060     0.1924250
  H       -3.1414670    -1.2511910    -0.1070860
  H       -1.0573430     0.6588960    -1.2471640
  H       -1.3450850    -0.9967850    -1.7909970
  H       -0.4862050     0.2392810     2.1528250
  H       -1.4122900    -1.2543580     2.1330320
  H       -3.2323950     0.2935880     1.8197160
  H       -2.2008590     1.4410770     0.9595580
  H       -3.4132849     1.5563678    -1.3637992
  H       -3.9506210     0.0965540    -2.0538340
  H       -4.7289130     0.6299820    -0.5557020
  H        0.4812350     1.7322070     0.3831320
  H        1.8065840    -2.3037040    -0.2799060
  H        2.8010350     2.5405970     0.1152150
  H        4.1326410    -1.4960120    -0.5534930
  H        4.6413930     0.9324010    -0.3562540
units angstrom
no_reorient  #important for SAPT in psi4, default
symmetry c1  #important for SAPT in psi4, default
}

set PROPERTIES_ORIGIN ["COM"]
properties('MP2/aug-cc-pvtz', properties = ['dipole'])
--------------------------------------------------------------------------

    Molecular point group: c1
  Charge       = 0
  Multiplicity = 1
  Basis Set: AUG-CC-PVTZ
    Blend: AUG-CC-PVTZ
  Basis Set: (AUG-CC-PVTZ AUX)
    Blend: AUG-CC-PVTZ-JKFIT

    Orbital Energies [Eh]
    ---------------------

    Doubly Occupied:

       1A    -11.236503     2A    -11.233584     3A    -11.232850
       4A    -11.228932     5A    -11.228426     6A    -11.228374
       7A    -11.228120     8A    -11.221897     9A    -11.216622
      10A    -11.214858    11A    -11.214707    12A    -11.211391
      13A     -1.155989    14A     -1.124732    15A     -1.039303
      16A     -1.008438    17A     -0.988384    18A     -0.953686
      19A     -0.893316    20A     -0.826453    21A     -0.816257
      22A     -0.764217    23A     -0.757184    24A     -0.689943
      25A     -0.660082    26A     -0.635482    27A     -0.621393
      28A     -0.607240    29A     -0.584310    30A     -0.579580
      31A     -0.574539    32A     -0.557771    33A     -0.525442
      34A     -0.511186    35A     -0.509882    36A     -0.490192
      37A     -0.475283    38A     -0.464874    39A     -0.461448
      40A     -0.453217    41A     -0.449627    42A     -0.443589
      43A     -0.332348    44A     -0.318804

  @DF-RHF Final Energy:  -463.89328251816858

   => Energetics <=

    Nuclear Repulsion Energy =            675.8288487462749572
    One-Electron Energy =               -1967.5033527078974203
    Two-Electron Energy =                 827.7812214434540010
    Total Energy =                       -463.8932825181685757
  Basis Set: (AUG-CC-PVTZ AUX)
    Blend: AUG-CC-PVTZ-RI
    Molecular point group: c1

    Geometry (in Angstrom), charge = 0, multiplicity = 1:

       Center              X                  Y                   Z               Mass
    ------------   -----------------  -----------------  -----------------  -----------------
         C           -0.513924411161    -0.828043356635     0.215179145965    12.000000000000
         C           -2.826352411161    -0.227746356635    -0.270649854035    12.000000000000
         C           -1.444056411161    -0.333552356635    -0.916421854035    12.000000000000
         C           -1.217013411161    -0.370877356635     1.532022145965    12.000000000000
         C           -2.485246411161     0.377344643365     1.093166145965    12.000000000000
         C            0.904935588839    -0.341838356635     0.067644145965    12.000000000000
         C           -3.840969411161     0.566050643365    -1.080850854035    12.000000000000
         C            1.207203588839     1.024852643365     0.174630145965    12.000000000000
         C            1.951062588839    -1.233705356635    -0.197847854035    12.000000000000
         C            2.515561588839     1.483527643365     0.024376145965    12.000000000000
         C            3.263357588839    -0.779810356635    -0.351094854035    12.000000000000
         C            3.549613588839     0.581473643365    -0.241047854035    12.000000000000
         H           -0.495503411161    -1.925329356635     0.190403145965     1.007825032230
         H           -3.212789411161    -1.245414356635    -0.109107854035     1.007825032230
         H           -1.128665411161     0.664672643365    -1.249185854035     1.007825032230
         H           -1.416407411161    -0.991008356635    -1.793018854035     1.007825032230
         H           -0.557527411161     0.245057643365     2.150803145965     1.007825032230
         H           -1.483612411161    -1.248581356635     2.131010145965     1.007825032230
         H           -3.303717411161     0.299364643365     1.817694145965     1.007825032230
         H           -2.272181411161     1.446853643365     0.957536145965     1.007825032230
         H           -3.484607311161     1.562144443365    -1.365821054035     1.007825032230
         H           -4.021943411161     0.102330643365    -2.055855854035     1.007825032230
         H           -4.800235411161     0.635758643365    -0.557723854035     1.007825032230
         H            0.409912588839     1.737983643365     0.381110145965     1.007825032230
         H            1.735261588839    -2.297927356635    -0.281927854035     1.007825032230
         H            2.729712588839     2.546373643365     0.113193145965     1.007825032230
         H            4.061318588839    -1.490235356635    -0.555514854035     1.007825032230
         H            4.570070588839     0.938177643365    -0.358275854035     1.007825032230

  Basis Set: AUG-CC-PVTZ
    Blend: AUG-CC-PVTZ
  Basis Set: (AUG-CC-PVTZ AUX)
    Blend: AUG-CC-PVTZ-JKFIT
	 Reference Energy          =    -463.8932825181685757 [Eh]
	 Singles Energy            =      -0.0000000000000000 [Eh]
	 Same-Spin Energy          =      -0.5194977709857160 [Eh]
	 Opposite-Spin Energy      =      -1.7263990297027267 [Eh]
	 Correlation Energy        =      -2.2458968006884428 [Eh]
	 Total Energy              =    -466.1391793188570318 [Eh]

	 ================> DF-SCS-MP2 Energies <==================
	-----------------------------------------------------------
	 SCS Same-Spin Scale       =       0.3333333333333333 [-]
	 SCS Opposite-Spin Scale   =       1.2000000000000000 [-]
	 SCS Same-Spin Energy      =      -0.1731659236619053 [Eh]
	 SCS Opposite-Spin Energy  =      -2.0716788356432718 [Eh]
	 SCS Correlation Energy    =      -2.2448447593051770 [Eh]
	 SCS Total Energy          =    -466.1381272774737567 [Eh]
	-----------------------------------------------------------

  Dipole Moment: [D]
     X:    -0.5606      Y:    -0.1973      Z:     0.0076     Total:     0.5943

*** Psi4 exiting successfully. Buy a developer a beer!
