                               Psi4 1.4a3.dev225

  ==> Input File <==

--------------------------------------------------------------------------
#psi4
#
memory 32 gb

molecule  {
0 1
  C       -0.4426020    -0.8338200     0.2172010
  C       -2.7550300    -0.2335230    -0.2686280
  C       -1.3727340    -0.3393290    -0.9144000
  C       -1.1456910    -0.3766540     1.5340440
  C       -2.4139240     0.3715680     1.0951880
  C        0.9762580    -0.3476150     0.0696660
  C       -3.7696470     0.5602740    -1.0788290
  C        1.2785260     1.0190760     0.1766520
  C        2.0223850    -1.2394820    -0.1958260
  C        2.5868840     1.4777510     0.0263980
  C        3.3346800    -0.7855870    -0.3490730
  C        3.6209360     0.5756970    -0.2390260
  H       -0.4241810    -1.9311060     0.1924250
  H       -3.1414670    -1.2511910    -0.1070860
  H       -1.0573430     0.6588960    -1.2471640
  H       -1.3450850    -0.9967850    -1.7909970
  H       -0.4862050     0.2392810     2.1528250
  H       -1.4122900    -1.2543580     2.1330320
  H       -3.2323950     0.2935880     1.8197160
  H       -2.2008590     1.4410770     0.9595580
  H       -3.4037750     1.5784440    -1.2516650
  H       -3.9506210     0.0965540    -2.0538340
  H       -4.7289130     0.6299820    -0.5557020
  H        0.4812350     1.7322070     0.3831320
  H        1.8065840    -2.3037040    -0.2799060
  H        2.8010350     2.5405970     0.1152150
  H        4.1326410    -1.4960120    -0.5534930
  H        4.4536955     0.8667907    -0.3346917
units angstrom
no_reorient  #important for SAPT in psi4, default
symmetry c1  #important for SAPT in psi4, default
}

set PROPERTIES_ORIGIN ["COM"]
properties('MP2/aug-cc-pvtz', properties = ['dipole'])
--------------------------------------------------------------------------

    Molecular point group: c1
  Charge       = 0
  Multiplicity = 1
  Basis Set: AUG-CC-PVTZ
    Blend: AUG-CC-PVTZ
  Basis Set: (AUG-CC-PVTZ AUX)
    Blend: AUG-CC-PVTZ-JKFIT

    Orbital Energies [Eh]
    ---------------------

    Doubly Occupied:

       1A    -11.236065     2A    -11.232178     3A    -11.231476
       4A    -11.228017     5A    -11.227303     6A    -11.227016
       7A    -11.220939     8A    -11.216410     9A    -11.214639
      10A    -11.214459    11A    -11.211404    12A    -11.204814
      13A     -1.156174    14A     -1.125491    15A     -1.043977
      16A     -1.007341    17A     -0.991281    18A     -0.956671
      19A     -0.895184    20A     -0.832375    21A     -0.821498
      22A     -0.763335    23A     -0.758847    24A     -0.710771
      25A     -0.661160    26A     -0.642407    27A     -0.621650
      28A     -0.607435    29A     -0.585955    30A     -0.579360
      31A     -0.575004    32A     -0.559298    33A     -0.533958
      34A     -0.514990    35A     -0.509298    36A     -0.489297
      37A     -0.475450    38A     -0.463107    39A     -0.461244
      40A     -0.453676    41A     -0.449934    42A     -0.443807
      43A     -0.331336    44A     -0.318345

  @DF-RHF Final Energy:  -463.85972005991312

   => Energetics <=

    Nuclear Repulsion Energy =            677.1268749817857042
    One-Electron Energy =               -1969.9644326982484017
    Two-Electron Energy =                 828.9778376565495819
    Total Energy =                       -463.8597200599131156
  Basis Set: (AUG-CC-PVTZ AUX)
    Blend: AUG-CC-PVTZ-RI
    Molecular point group: c1

    Geometry (in Angstrom), charge = 0, multiplicity = 1:

       Center              X                  Y                   Z               Mass
    ------------   -----------------  -----------------  -----------------  -----------------
         C           -0.512802901723    -0.827769353820     0.214337662682    12.000000000000
         C           -2.825230901723    -0.227472353820    -0.271491337318    12.000000000000
         C           -1.442934901723    -0.333278353820    -0.917263337318    12.000000000000
         C           -1.215891901723    -0.370603353820     1.531180662682    12.000000000000
         C           -2.484124901723     0.377618646180     1.092324662682    12.000000000000
         C            0.906057098277    -0.341564353820     0.066802662682    12.000000000000
         C           -3.839847901723     0.566324646180    -1.081692337318    12.000000000000
         C            1.208325098277     1.025126646180     0.173788662682    12.000000000000
         C            1.952184098277    -1.233431353820    -0.198689337318    12.000000000000
         C            2.516683098277     1.483801646180     0.023534662682    12.000000000000
         C            3.264479098277    -0.779536353820    -0.351936337318    12.000000000000
         C            3.550735098277     0.581747646180    -0.241889337318    12.000000000000
         H           -0.494381901723    -1.925055353820     0.189561662682     1.007825032230
         H           -3.211667901723    -1.245140353820    -0.109949337318     1.007825032230
         H           -1.127543901723     0.664946646180    -1.250027337318     1.007825032230
         H           -1.415285901723    -0.990734353820    -1.793860337318     1.007825032230
         H           -0.556405901723     0.245331646180     2.149961662682     1.007825032230
         H           -1.482490901723    -1.248307353820     2.130168662682     1.007825032230
         H           -3.302595901723     0.299638646180     1.816852662682     1.007825032230
         H           -2.271059901723     1.447127646180     0.956694662682     1.007825032230
         H           -3.473975901723     1.584494646180    -1.254528337318     1.007825032230
         H           -4.020821901723     0.102604646180    -2.056697337318     1.007825032230
         H           -4.799113901723     0.636032646180    -0.558565337318     1.007825032230
         H            0.411034098277     1.738257646180     0.380268662682     1.007825032230
         H            1.736383098277    -2.297653353820    -0.282769337318     1.007825032230
         H            2.730834098277     2.546647646180     0.112351662682     1.007825032230
         H            4.062440098277    -1.489961353820    -0.556356337318     1.007825032230
         H            4.383494598277     0.872841346180    -0.337555037318     1.007825032230

  Basis Set: AUG-CC-PVTZ
    Blend: AUG-CC-PVTZ
  Basis Set: (AUG-CC-PVTZ AUX)
    Blend: AUG-CC-PVTZ-JKFIT
	 Reference Energy          =    -463.8597200599131156 [Eh]
	 Singles Energy            =      -0.0000000000000000 [Eh]
	 Same-Spin Energy          =      -0.5193627888260380 [Eh]
	 Opposite-Spin Energy      =      -1.7258704389934372 [Eh]
	 Correlation Energy        =      -2.2452332278194751 [Eh]
	 Total Energy              =    -466.1049532877325987 [Eh]

	 ================> DF-SCS-MP2 Energies <==================
	-----------------------------------------------------------
	 SCS Same-Spin Scale       =       0.3333333333333333 [-]
	 SCS Opposite-Spin Scale   =       1.2000000000000000 [-]
	 SCS Same-Spin Energy      =      -0.1731209296086793 [Eh]
	 SCS Opposite-Spin Energy  =      -2.0710445267921247 [Eh]
	 SCS Correlation Energy    =      -2.2441654564008040 [Eh]
	 SCS Total Energy          =    -466.1038855163139374 [Eh]
	-----------------------------------------------------------

  Dipole Moment: [D]
     X:    -0.5166      Y:    -0.1862      Z:     0.0317     Total:     0.5500

*** Psi4 exiting successfully. Buy a developer a beer!
