                               Psi4 1.4a3.dev225

  ==> Input File <==

--------------------------------------------------------------------------
#psi4
#
memory 32 gb

molecule  {
0 1
  C       -0.4501137    -0.8127337     0.2322680
  C       -2.7550300    -0.2335230    -0.2686280
  C       -1.3727340    -0.3393290    -0.9144000
  C       -1.1456910    -0.3766540     1.5340440
  C       -2.4139240     0.3715680     1.0951880
  C        0.9762580    -0.3476150     0.0696660
  C       -3.7696470     0.5602740    -1.0788290
  C        1.2785260     1.0190760     0.1766520
  C        2.0223850    -1.2394820    -0.1958260
  C        2.5868840     1.4777510     0.0263980
  C        3.3346800    -0.7855870    -0.3490730
  C        3.6209360     0.5756970    -0.2390260
  H       -0.4241810    -1.9311060     0.1924250
  H       -3.1414670    -1.2511910    -0.1070860
  H       -1.0573430     0.6588960    -1.2471640
  H       -1.3450850    -0.9967850    -1.7909970
  H       -0.4862050     0.2392810     2.1528250
  H       -1.4122900    -1.2543580     2.1330320
  H       -3.2323950     0.2935880     1.8197160
  H       -2.2008590     1.4410770     0.9595580
  H       -3.4037750     1.5784440    -1.2516650
  H       -3.9506210     0.0965540    -2.0538340
  H       -4.7289130     0.6299820    -0.5557020
  H        0.4812350     1.7322070     0.3831320
  H        1.8065840    -2.3037040    -0.2799060
  H        2.8010350     2.5405970     0.1152150
  H        4.1326410    -1.4960120    -0.5534930
  H        4.6413930     0.9324010    -0.3562540
units angstrom
no_reorient  #important for SAPT in psi4, default
symmetry c1  #important for SAPT in psi4, default
}

set PROPERTIES_ORIGIN ["COM"]
properties('MP2/aug-cc-pvtz', properties = ['dipole'])
--------------------------------------------------------------------------

    Molecular point group: c1
  Charge       = 0
  Multiplicity = 1
  Basis Set: AUG-CC-PVTZ
    Blend: AUG-CC-PVTZ
  Basis Set: (AUG-CC-PVTZ AUX)
    Blend: AUG-CC-PVTZ-JKFIT

    Orbital Energies [Eh]
    ---------------------

    Doubly Occupied:

       1A    -11.236561     2A    -11.233480     3A    -11.233012
       4A    -11.229261     5A    -11.229067     6A    -11.228558
       7A    -11.228188     8A    -11.221105     9A    -11.216053
      10A    -11.214993    11A    -11.214728    12A    -11.211565
      13A     -1.156588    14A     -1.125984    15A     -1.039448
      16A     -1.008477    17A     -0.989855    18A     -0.953274
      19A     -0.893472    20A     -0.825872    21A     -0.816759
      22A     -0.763882    23A     -0.755580    24A     -0.689555
      25A     -0.661362    26A     -0.635670    27A     -0.621458
      28A     -0.607015    29A     -0.586325    30A     -0.579983
      31A     -0.572197    32A     -0.555781    33A     -0.528802
      34A     -0.511269    35A     -0.510479    36A     -0.489954
      37A     -0.476335    38A     -0.465806    39A     -0.463034
      40A     -0.453550    41A     -0.445567    42A     -0.443007
      43A     -0.332378    44A     -0.319341

  @DF-RHF Final Energy:  -463.89336901440493

   => Energetics <=

    Nuclear Repulsion Energy =            676.1744161752856144
    One-Electron Energy =               -1968.1863133361844120
    Two-Electron Energy =                 828.1185281464938726
    Total Energy =                       -463.8933690144049251
  Basis Set: (AUG-CC-PVTZ AUX)
    Blend: AUG-CC-PVTZ-RI
    Molecular point group: c1

    Geometry (in Angstrom), charge = 0, multiplicity = 1:

       Center              X                  Y                   Z               Mass
    ------------   -----------------  -----------------  -----------------  -----------------
         C           -0.520933029295    -0.808676239788     0.228411233954    12.000000000000
         C           -2.825849329295    -0.229465539788    -0.272484766046    12.000000000000
         C           -1.443553329295    -0.335271539788    -0.918256766046    12.000000000000
         C           -1.216510329295    -0.372596539788     1.530187233954    12.000000000000
         C           -2.484743329295     0.375625460212     1.091331233954    12.000000000000
         C            0.905438670705    -0.343557539788     0.065809233954    12.000000000000
         C           -3.840466329295     0.564331460212    -1.082685766046    12.000000000000
         C            1.207706670705     1.023133460212     0.172795233954    12.000000000000
         C            1.951565670705    -1.235424539788    -0.199682766046    12.000000000000
         C            2.516064670705     1.481808460212     0.022541233954    12.000000000000
         C            3.263860670705    -0.781529539788    -0.352929766046    12.000000000000
         C            3.550116670705     0.579754460212    -0.242882766046    12.000000000000
         H           -0.495000329295    -1.927048539788     0.188568233954     1.007825032230
         H           -3.212286329295    -1.247133539788    -0.110942766046     1.007825032230
         H           -1.128162329295     0.662953460212    -1.251020766046     1.007825032230
         H           -1.415904329295    -0.992727539788    -1.794853766046     1.007825032230
         H           -0.557024329295     0.243338460212     2.148968233954     1.007825032230
         H           -1.483109329295    -1.250300539788     2.129175233954     1.007825032230
         H           -3.303214329295     0.297645460212     1.815859233954     1.007825032230
         H           -2.271678329295     1.445134460212     0.955701233954     1.007825032230
         H           -3.474594329295     1.582501460212    -1.255521766046     1.007825032230
         H           -4.021440329295     0.100611460212    -2.057690766046     1.007825032230
         H           -4.799732329295     0.634039460212    -0.559558766046     1.007825032230
         H            0.410415670705     1.736264460212     0.379275233954     1.007825032230
         H            1.735764670705    -2.299646539788    -0.283762766046     1.007825032230
         H            2.730215670705     2.544654460212     0.111358233954     1.007825032230
         H            4.061821670705    -1.491954539788    -0.557349766046     1.007825032230
         H            4.570573670705     0.936458460212    -0.360110766046     1.007825032230

  Basis Set: AUG-CC-PVTZ
    Blend: AUG-CC-PVTZ
  Basis Set: (AUG-CC-PVTZ AUX)
    Blend: AUG-CC-PVTZ-JKFIT
	 Reference Energy          =    -463.8933690144049251 [Eh]
	 Singles Energy            =      -0.0000000000000000 [Eh]
	 Same-Spin Energy          =      -0.5196538052440276 [Eh]
	 Opposite-Spin Energy      =      -1.7266579617423183 [Eh]
	 Correlation Energy        =      -2.2463117669863459 [Eh]
	 Total Energy              =    -466.1396807813912915 [Eh]

	 ================> DF-SCS-MP2 Energies <==================
	-----------------------------------------------------------
	 SCS Same-Spin Scale       =       0.3333333333333333 [-]
	 SCS Opposite-Spin Scale   =       1.2000000000000000 [-]
	 SCS Same-Spin Energy      =      -0.1732179350813425 [Eh]
	 SCS Opposite-Spin Energy  =      -2.0719895540907820 [Eh]
	 SCS Correlation Energy    =      -2.2452074891721243 [Eh]
	 SCS Total Energy          =    -466.1385765035770419 [Eh]
	-----------------------------------------------------------

  Dipole Moment: [D]
     X:    -0.5630      Y:    -0.1874      Z:     0.0438     Total:     0.5950

*** Psi4 exiting successfully. Buy a developer a beer!
