                               Psi4 1.4a3.dev225

  ==> Input File <==

--------------------------------------------------------------------------
#psi4
#
memory 32 gb

molecule  {
0 1
  C       -0.4426020    -0.8338200     0.2172010
  C       -2.7550300    -0.2335230    -0.2686280
  C       -1.3727340    -0.3393290    -0.9144000
  C       -1.1456910    -0.3766540     1.5340440
  C       -2.4139240     0.3715680     1.0951880
  C        0.9762580    -0.3476150     0.0696660
  C       -3.7696470     0.5602740    -1.0788290
  C        1.2785260     1.0190760     0.1766520
  C        2.0223850    -1.2394820    -0.1958260
  C        2.5868840     1.4777510     0.0263980
  C        3.3346800    -0.7855870    -0.3490730
  C        3.6106789     0.5269195    -0.2429692
  H       -0.4241810    -1.9311060     0.1924250
  H       -3.1414670    -1.2511910    -0.1070860
  H       -1.0573430     0.6588960    -1.2471640
  H       -1.3450850    -0.9967850    -1.7909970
  H       -0.4862050     0.2392810     2.1528250
  H       -1.4122900    -1.2543580     2.1330320
  H       -3.2323950     0.2935880     1.8197160
  H       -2.2008590     1.4410770     0.9595580
  H       -3.4037750     1.5784440    -1.2516650
  H       -3.9506210     0.0965540    -2.0538340
  H       -4.7289130     0.6299820    -0.5557020
  H        0.4812350     1.7322070     0.3831320
  H        1.8065840    -2.3037040    -0.2799060
  H        2.8010350     2.5405970     0.1152150
  H        4.1326410    -1.4960120    -0.5534930
  H        4.6413930     0.9324010    -0.3562540
units angstrom
no_reorient  #important for SAPT in psi4, default
symmetry c1  #important for SAPT in psi4, default
}

set PROPERTIES_ORIGIN ["COM"]
properties('MP2/aug-cc-pvtz', properties = ['dipole'])
--------------------------------------------------------------------------

    Molecular point group: c1
  Charge       = 0
  Multiplicity = 1
  Basis Set: AUG-CC-PVTZ
    Blend: AUG-CC-PVTZ
  Basis Set: (AUG-CC-PVTZ AUX)
    Blend: AUG-CC-PVTZ-JKFIT

    Orbital Energies [Eh]
    ---------------------

    Doubly Occupied:

       1A    -11.235994     2A    -11.235905     3A    -11.228913
       4A    -11.228629     5A    -11.228206     6A    -11.228005
       7A    -11.226074     8A    -11.221111     9A    -11.216631
      10A    -11.214844    11A    -11.214618    12A    -11.211546
      13A     -1.157544    14A     -1.125993    15A     -1.040961
      16A     -1.009349    17A     -0.988705    18A     -0.953553
      19A     -0.892325    20A     -0.825711    21A     -0.817358
      22A     -0.763570    23A     -0.756805    24A     -0.688557
      25A     -0.660216    26A     -0.633155    27A     -0.623539
      28A     -0.606437    29A     -0.588518    30A     -0.581410
      31A     -0.572547    32A     -0.555302    33A     -0.526947
      34A     -0.511383    35A     -0.505478    36A     -0.493610
      37A     -0.474917    38A     -0.464032    39A     -0.460473
      40A     -0.453676    41A     -0.450314    42A     -0.443397
      43A     -0.334283    44A     -0.319134

  @DF-RHF Final Energy:  -463.89148051641541

   => Energetics <=

    Nuclear Repulsion Energy =            676.4368521485089332
    One-Electron Energy =               -1968.7173083427367146
    Two-Electron Energy =                 828.3889756778123683
    Total Energy =                       -463.8914805164154131
  Basis Set: (AUG-CC-PVTZ AUX)
    Blend: AUG-CC-PVTZ-RI
    Molecular point group: c1

    Geometry (in Angstrom), charge = 0, multiplicity = 1:

       Center              X                  Y                   Z               Mass
    ------------   -----------------  -----------------  -----------------  -----------------
         C           -0.513215585290    -0.824526851730     0.214768884161    12.000000000000
         C           -2.825643585290    -0.224229851730    -0.271060115839    12.000000000000
         C           -1.443347585290    -0.330035851730    -0.916832115839    12.000000000000
         C           -1.216304585290    -0.367360851730     1.531611884161    12.000000000000
         C           -2.484537585290     0.380861148270     1.092755884161    12.000000000000
         C            0.905644414710    -0.338321851730     0.067233884161    12.000000000000
         C           -3.840260585290     0.569567148270    -1.081261115839    12.000000000000
         C            1.207912414710     1.028369148270     0.174219884161    12.000000000000
         C            1.951771414710    -1.230188851730    -0.198258115839    12.000000000000
         C            2.516270414710     1.487044148270     0.023965884161    12.000000000000
         C            3.264066414710    -0.776293851730    -0.351505115839    12.000000000000
         C            3.540065314710     0.536212648270    -0.245401315839    12.000000000000
         H           -0.494794585290    -1.921812851730     0.189992884161     1.007825032230
         H           -3.212080585290    -1.241897851730    -0.109518115839     1.007825032230
         H           -1.127956585290     0.668189148270    -1.249596115839     1.007825032230
         H           -1.415698585290    -0.987491851730    -1.793429115839     1.007825032230
         H           -0.556818585290     0.248574148270     2.150392884161     1.007825032230
         H           -1.482903585290    -1.245064851730     2.130599884161     1.007825032230
         H           -3.303008585290     0.302881148270     1.817283884161     1.007825032230
         H           -2.271472585290     1.450370148270     0.957125884161     1.007825032230
         H           -3.474388585290     1.587737148270    -1.254097115839     1.007825032230
         H           -4.021234585290     0.105847148270    -2.056266115839     1.007825032230
         H           -4.799526585290     0.639275148270    -0.558134115839     1.007825032230
         H            0.410621414710     1.741500148270     0.380699884161     1.007825032230
         H            1.735970414710    -2.294410851730    -0.282338115839     1.007825032230
         H            2.730421414710     2.549890148270     0.112782884161     1.007825032230
         H            4.062027414710    -1.486718851730    -0.555925115839     1.007825032230
         H            4.570779414710     0.941694148270    -0.358686115839     1.007825032230

  Basis Set: AUG-CC-PVTZ
    Blend: AUG-CC-PVTZ
  Basis Set: (AUG-CC-PVTZ AUX)
    Blend: AUG-CC-PVTZ-JKFIT
	 Reference Energy          =    -463.8914805164154131 [Eh]
	 Singles Energy            =      -0.0000000000000000 [Eh]
	 Same-Spin Energy          =      -0.5194080876597279 [Eh]
	 Opposite-Spin Energy      =      -1.7263873381471715 [Eh]
	 Correlation Energy        =      -2.2457954258068993 [Eh]
	 Total Energy              =    -466.1372759422222884 [Eh]

	 ================> DF-SCS-MP2 Energies <==================
	-----------------------------------------------------------
	 SCS Same-Spin Scale       =       0.3333333333333333 [-]
	 SCS Opposite-Spin Scale   =       1.2000000000000000 [-]
	 SCS Same-Spin Energy      =      -0.1731360292199093 [Eh]
	 SCS Opposite-Spin Energy  =      -2.0716648057766056 [Eh]
	 SCS Correlation Energy    =      -2.2448008349965147 [Eh]
	 SCS Total Energy          =    -466.1362813514119239 [Eh]
	-----------------------------------------------------------

  Dipole Moment: [D]
     X:    -0.5748      Y:    -0.1944      Z:     0.0399     Total:     0.6081

*** Psi4 exiting successfully. Buy a developer a beer!
