                               Psi4 1.4a3.dev225

  ==> Input File <==

--------------------------------------------------------------------------
#psi4
#
memory 32 gb

molecule  {
0 1
  C       -0.4426020    -0.8338200     0.2172010
  C       -2.7550300    -0.2335230    -0.2686280
  C       -1.3727340    -0.3393290    -0.9144000
  C       -1.1456910    -0.3766540     1.5340440
  C       -2.4139240     0.3715680     1.0951880
  C        0.9762580    -0.3476150     0.0696660
  C       -3.7363117     0.5341938    -1.0522098
  C        1.2785260     1.0190760     0.1766520
  C        2.0223850    -1.2394820    -0.1958260
  C        2.5868840     1.4777510     0.0263980
  C        3.3346800    -0.7855870    -0.3490730
  C        3.6209360     0.5756970    -0.2390260
  H       -0.4241810    -1.9311060     0.1924250
  H       -3.1414670    -1.2511910    -0.1070860
  H       -1.0573430     0.6588960    -1.2471640
  H       -1.3450850    -0.9967850    -1.7909970
  H       -0.4862050     0.2392810     2.1528250
  H       -1.4122900    -1.2543580     2.1330320
  H       -3.2323950     0.2935880     1.8197160
  H       -2.2008590     1.4410770     0.9595580
  H       -3.4037750     1.5784440    -1.2516650
  H       -3.9506210     0.0965540    -2.0538340
  H       -4.7289130     0.6299820    -0.5557020
  H        0.4812350     1.7322070     0.3831320
  H        1.8065840    -2.3037040    -0.2799060
  H        2.8010350     2.5405970     0.1152150
  H        4.1326410    -1.4960120    -0.5534930
  H        4.6413930     0.9324010    -0.3562540
units angstrom
no_reorient  #important for SAPT in psi4, default
symmetry c1  #important for SAPT in psi4, default
}

set PROPERTIES_ORIGIN ["COM"]
properties('MP2/aug-cc-pvtz', properties = ['dipole'])
--------------------------------------------------------------------------

    Molecular point group: c1
  Charge       = 0
  Multiplicity = 1
  Basis Set: AUG-CC-PVTZ
    Blend: AUG-CC-PVTZ
  Basis Set: (AUG-CC-PVTZ AUX)
    Blend: AUG-CC-PVTZ-JKFIT

    Orbital Energies [Eh]
    ---------------------

    Doubly Occupied:

       1A    -11.236571     2A    -11.233649     3A    -11.232911
       4A    -11.228995     5A    -11.228515     6A    -11.228466
       7A    -11.228190     8A    -11.218917     9A    -11.216808
      10A    -11.215134    11A    -11.214990    12A    -11.214274
      13A     -1.156539    14A     -1.127056    15A     -1.042550
      16A     -1.008536    17A     -0.991252    18A     -0.954270
      19A     -0.890068    20A     -0.826432    21A     -0.816337
      22A     -0.764643    23A     -0.757622    24A     -0.690239
      25A     -0.661148    26A     -0.636182    27A     -0.623466
      28A     -0.608489    29A     -0.586474    30A     -0.579868
      31A     -0.573111    32A     -0.552462    33A     -0.526686
      34A     -0.511034    35A     -0.507599    36A     -0.490596
      37A     -0.477732    38A     -0.469559    39A     -0.461546
      40A     -0.452432    41A     -0.449327    42A     -0.439860
      43A     -0.332412    44A     -0.318916

  @DF-RHF Final Energy:  -463.89140946106170

   => Energetics <=

    Nuclear Repulsion Energy =            676.8298663295137203
    One-Electron Energy =               -1969.4788274051559256
    Two-Electron Energy =                 828.7575516145803931
    Total Energy =                       -463.8914094610616985
  Basis Set: (AUG-CC-PVTZ AUX)
    Blend: AUG-CC-PVTZ-RI
    Molecular point group: c1

    Geometry (in Angstrom), charge = 0, multiplicity = 1:

       Center              X                  Y                   Z               Mass
    ------------   -----------------  -----------------  -----------------  -----------------
         C           -0.516482458951    -0.826227818219     0.212478496396    12.000000000000
         C           -2.828910458951    -0.225930818219    -0.273350503604    12.000000000000
         C           -1.446614458951    -0.331736818219    -0.919122503604    12.000000000000
         C           -1.219571458951    -0.369061818219     1.529321496396    12.000000000000
         C           -2.487804458951     0.379160181781     1.090465496396    12.000000000000
         C            0.902377541049    -0.340022818219     0.064943496396    12.000000000000
         C           -3.810192158951     0.541785981781    -1.056932303604    12.000000000000
         C            1.204645541049     1.026668181781     0.171929496396    12.000000000000
         C            1.948504541049    -1.231889818219    -0.200548503604    12.000000000000
         C            2.513003541049     1.485343181781     0.021675496396    12.000000000000
         C            3.260799541049    -0.777994818219    -0.353795503604    12.000000000000
         C            3.547055541049     0.583289181781    -0.243748503604    12.000000000000
         H           -0.498061458951    -1.923513818219     0.187702496396     1.007825032230
         H           -3.215347458951    -1.243598818219    -0.111808503604     1.007825032230
         H           -1.131223458951     0.666488181781    -1.251886503604     1.007825032230
         H           -1.418965458951    -0.989192818219    -1.795719503604     1.007825032230
         H           -0.560085458951     0.246873181781     2.148102496396     1.007825032230
         H           -1.486170458951    -1.246765818219     2.128309496396     1.007825032230
         H           -3.306275458951     0.301180181781     1.814993496396     1.007825032230
         H           -2.274739458951     1.448669181781     0.954835496396     1.007825032230
         H           -3.477655458951     1.586036181781    -1.256387503604     1.007825032230
         H           -4.024501458951     0.104146181781    -2.058556503604     1.007825032230
         H           -4.802793458951     0.637574181781    -0.560424503604     1.007825032230
         H            0.407354541049     1.739799181781     0.378409496396     1.007825032230
         H            1.732703541049    -2.296111818219    -0.284628503604     1.007825032230
         H            2.727154541049     2.548189181781     0.110492496396     1.007825032230
         H            4.058760541049    -1.488419818219    -0.558215503604     1.007825032230
         H            4.567512541049     0.939993181781    -0.360976503604     1.007825032230

  Basis Set: AUG-CC-PVTZ
    Blend: AUG-CC-PVTZ
  Basis Set: (AUG-CC-PVTZ AUX)
    Blend: AUG-CC-PVTZ-JKFIT
	 Reference Energy          =    -463.8914094610616985 [Eh]
	 Singles Energy            =      -0.0000000000000000 [Eh]
	 Same-Spin Energy          =      -0.5199256536338911 [Eh]
	 Opposite-Spin Energy      =      -1.7268730908485290 [Eh]
	 Correlation Energy        =      -2.2467987444824202 [Eh]
	 Total Energy              =    -466.1382082055441174 [Eh]

	 ================> DF-SCS-MP2 Energies <==================
	-----------------------------------------------------------
	 SCS Same-Spin Scale       =       0.3333333333333333 [-]
	 SCS Opposite-Spin Scale   =       1.2000000000000000 [-]
	 SCS Same-Spin Energy      =      -0.1733085512112970 [Eh]
	 SCS Opposite-Spin Energy  =      -2.0722477090182347 [Eh]
	 SCS Correlation Energy    =      -2.2455562602295318 [Eh]
	 SCS Total Energy          =    -466.1369657212912330 [Eh]
	-----------------------------------------------------------

  Dipole Moment: [D]
     X:    -0.5625      Y:    -0.2060      Z:     0.0402     Total:     0.6003

*** Psi4 exiting successfully. Buy a developer a beer!
