                               Psi4 1.4a3.dev225

  ==> Input File <==

--------------------------------------------------------------------------
#psi4
#
memory 32 gb

molecule  {
0 1
  C       -0.4426020    -0.8338200     0.2172010
  C       -2.7550300    -0.2335230    -0.2686280
  C       -1.2877367    -0.2880434    -0.9567083
  C       -1.1456910    -0.3766540     1.5340440
  C       -2.4139240     0.3715680     1.0951880
  C        0.9762580    -0.3476150     0.0696660
  C       -3.7696470     0.5602740    -1.0788290
  C        1.2785260     1.0190760     0.1766520
  C        2.0223850    -1.2394820    -0.1958260
  C        2.5868840     1.4777510     0.0263980
  C        3.3346800    -0.7855870    -0.3490730
  C        3.6209360     0.5756970    -0.2390260
  H       -0.4241810    -1.9311060     0.1924250
  H       -3.1414670    -1.2511910    -0.1070860
  H       -1.0573430     0.6588960    -1.2471640
  H       -1.3450850    -0.9967850    -1.7909970
  H       -0.4862050     0.2392810     2.1528250
  H       -1.4122900    -1.2543580     2.1330320
  H       -3.2323950     0.2935880     1.8197160
  H       -2.2008590     1.4410770     0.9595580
  H       -3.4037750     1.5784440    -1.2516650
  H       -3.9506210     0.0965540    -2.0538340
  H       -4.7289130     0.6299820    -0.5557020
  H        0.4812350     1.7322070     0.3831320
  H        1.8065840    -2.3037040    -0.2799060
  H        2.8010350     2.5405970     0.1152150
  H        4.1326410    -1.4960120    -0.5534930
  H        4.6413930     0.9324010    -0.3562540
units angstrom
no_reorient  #important for SAPT in psi4, default
symmetry c1  #important for SAPT in psi4, default
}

set PROPERTIES_ORIGIN ["COM"]
properties('MP2/aug-cc-pvtz', properties = ['dipole'])
--------------------------------------------------------------------------

    Molecular point group: c1
  Charge       = 0
  Multiplicity = 1
  Basis Set: AUG-CC-PVTZ
    Blend: AUG-CC-PVTZ
  Basis Set: (AUG-CC-PVTZ AUX)
    Blend: AUG-CC-PVTZ-JKFIT

    Orbital Energies [Eh]
    ---------------------

    Doubly Occupied:

       1A    -11.235652     2A    -11.233405     3A    -11.232471
       4A    -11.229514     5A    -11.227958     6A    -11.227670
       7A    -11.226982     8A    -11.224779     9A    -11.217129
      10A    -11.214664    11A    -11.212709    12A    -11.210741
      13A     -1.154841    14A     -1.118838    15A     -1.037860
      16A     -1.007927    17A     -0.986813    18A     -0.955154
      19A     -0.890428    20A     -0.826855    21A     -0.815591
      22A     -0.769013    23A     -0.755163    24A     -0.689230
      25A     -0.657564    26A     -0.633836    27A     -0.620262
      28A     -0.604336    29A     -0.588856    30A     -0.582808
      31A     -0.575660    32A     -0.556157    33A     -0.533893
      34A     -0.512893    35A     -0.510378    36A     -0.491390
      37A     -0.472228    38A     -0.470573    39A     -0.461812
      40A     -0.457481    41A     -0.449933    42A     -0.423170
      43A     -0.332117    44A     -0.316913

  @DF-RHF Final Energy:  -463.88360211776217

   => Energetics <=

    Nuclear Repulsion Energy =            675.4821090534710493
    One-Electron Energy =               -1966.8241238238620099
    Two-Electron Energy =                 827.4584126526287946
    Total Energy =                       -463.8836021177621660
  Basis Set: (AUG-CC-PVTZ AUX)
    Blend: AUG-CC-PVTZ-RI
    Molecular point group: c1

    Geometry (in Angstrom), charge = 0, multiplicity = 1:

       Center              X                  Y                   Z               Mass
    ------------   -----------------  -----------------  -----------------  -----------------
         C           -0.520354079396    -0.832025716345     0.217644016860    12.000000000000
         C           -2.832782079396    -0.231728716345    -0.268184983140    12.000000000000
         C           -1.365488779396    -0.286249116345    -0.956265283140    12.000000000000
         C           -1.223443079396    -0.374859716345     1.534487016860    12.000000000000
         C           -2.491676079396     0.373362283655     1.095631016860    12.000000000000
         C            0.898505920604    -0.345820716345     0.070109016860    12.000000000000
         C           -3.847399079396     0.562068283655    -1.078385983140    12.000000000000
         C            1.200773920604     1.020870283655     0.177095016860    12.000000000000
         C            1.944632920604    -1.237687716345    -0.195382983140    12.000000000000
         C            2.509131920604     1.479545283655     0.026841016860    12.000000000000
         C            3.256927920604    -0.783792716345    -0.348629983140    12.000000000000
         C            3.543183920604     0.577491283655    -0.238582983140    12.000000000000
         H           -0.501933079396    -1.929311716345     0.192868016860     1.007825032230
         H           -3.219219079396    -1.249396716345    -0.106642983140     1.007825032230
         H           -1.135095079396     0.660690283655    -1.246720983140     1.007825032230
         H           -1.422837079396    -0.994990716345    -1.790553983140     1.007825032230
         H           -0.563957079396     0.241075283655     2.153268016860     1.007825032230
         H           -1.490042079396    -1.252563716345     2.133475016860     1.007825032230
         H           -3.310147079396     0.295382283655     1.820159016860     1.007825032230
         H           -2.278611079396     1.442871283655     0.960001016860     1.007825032230
         H           -3.481527079396     1.580238283655    -1.251221983140     1.007825032230
         H           -4.028373079396     0.098348283655    -2.053390983140     1.007825032230
         H           -4.806665079396     0.631776283655    -0.555258983140     1.007825032230
         H            0.403482920604     1.734001283655     0.383575016860     1.007825032230
         H            1.728831920604    -2.301909716345    -0.279462983140     1.007825032230
         H            2.723282920604     2.542391283655     0.115658016860     1.007825032230
         H            4.054888920604    -1.494217716345    -0.553049983140     1.007825032230
         H            4.563640920604     0.934195283655    -0.355810983140     1.007825032230

  Basis Set: AUG-CC-PVTZ
    Blend: AUG-CC-PVTZ
  Basis Set: (AUG-CC-PVTZ AUX)
    Blend: AUG-CC-PVTZ-JKFIT
	 Reference Energy          =    -463.8836021177621660 [Eh]
	 Singles Energy            =      -0.0000000000000000 [Eh]
	 Same-Spin Energy          =      -0.5193584901595787 [Eh]
	 Opposite-Spin Energy      =      -1.7269002726540552 [Eh]
	 Correlation Energy        =      -2.2462587628136337 [Eh]
	 Total Energy              =    -466.1298608805757908 [Eh]

	 ================> DF-SCS-MP2 Energies <==================
	-----------------------------------------------------------
	 SCS Same-Spin Scale       =       0.3333333333333333 [-]
	 SCS Opposite-Spin Scale   =       1.2000000000000000 [-]
	 SCS Same-Spin Energy      =      -0.1731194967198595 [Eh]
	 SCS Opposite-Spin Energy  =      -2.0722803271848660 [Eh]
	 SCS Correlation Energy    =      -2.2453998239047257 [Eh]
	 SCS Total Energy          =    -466.1290019416668997 [Eh]
	-----------------------------------------------------------

  Dipole Moment: [D]
     X:    -0.6226      Y:    -0.2063      Z:     0.0387     Total:     0.6570

*** Psi4 exiting successfully. Buy a developer a beer!
