                               Psi4 1.4a3.dev225

  ==> Input File <==

--------------------------------------------------------------------------
#psi4
#
memory 32 gb

molecule  {
0 1
  C       -0.4426020    -0.8338200     0.2172010
  C       -2.7550300    -0.2335230    -0.2686280
  C       -1.3727340    -0.3393290    -0.9144000
  C       -1.1456910    -0.3766540     1.5340440
  C       -2.4139240     0.3715680     1.0951880
  C        0.9762580    -0.3476150     0.0696660
  C       -3.7696470     0.5602740    -1.0788290
  C        1.2785260     1.0190760     0.1766520
  C        2.0223850    -1.2394820    -0.1958260
  C        2.5868840     1.4777510     0.0263980
  C        3.3346800    -0.7855870    -0.3490730
  C        3.6822798     0.6515458    -0.2398875
  H       -0.4241810    -1.9311060     0.1924250
  H       -3.1414670    -1.2511910    -0.1070860
  H       -1.0573430     0.6588960    -1.2471640
  H       -1.3450850    -0.9967850    -1.7909970
  H       -0.4862050     0.2392810     2.1528250
  H       -1.4122900    -1.2543580     2.1330320
  H       -3.2323950     0.2935880     1.8197160
  H       -2.2008590     1.4410770     0.9595580
  H       -3.4037750     1.5784440    -1.2516650
  H       -3.9506210     0.0965540    -2.0538340
  H       -4.7289130     0.6299820    -0.5557020
  H        0.4812350     1.7322070     0.3831320
  H        1.8065840    -2.3037040    -0.2799060
  H        2.8010350     2.5405970     0.1152150
  H        4.1326410    -1.4960120    -0.5534930
  H        4.6413930     0.9324010    -0.3562540
units angstrom
no_reorient  #important for SAPT in psi4, default
symmetry c1  #important for SAPT in psi4, default
}

set PROPERTIES_ORIGIN ["COM"]
properties('MP2/aug-cc-pvtz', properties = ['dipole'])
--------------------------------------------------------------------------

    Molecular point group: c1
  Charge       = 0
  Multiplicity = 1
  Basis Set: AUG-CC-PVTZ
    Blend: AUG-CC-PVTZ
  Basis Set: (AUG-CC-PVTZ AUX)
    Blend: AUG-CC-PVTZ-JKFIT

    Orbital Energies [Eh]
    ---------------------

    Doubly Occupied:

       1A    -11.242400     2A    -11.238750     3A    -11.235064
       4A    -11.231270     5A    -11.229099     6A    -11.228656
       7A    -11.227964     8A    -11.221549     9A    -11.217201
      10A    -11.215336    11A    -11.215231    12A    -11.211848
      13A     -1.152878    14A     -1.121640    15A     -1.037766
      16A     -1.005449    17A     -0.987640    18A     -0.954747
      19A     -0.894100    20A     -0.828801    21A     -0.813815
      22A     -0.763871    23A     -0.758243    24A     -0.696074
      25A     -0.661677    26A     -0.642064    27A     -0.619327
      28A     -0.605264    29A     -0.584588    30A     -0.576383
      31A     -0.572890    32A     -0.559257    33A     -0.536580
      34A     -0.517448    35A     -0.507190    36A     -0.478637
      37A     -0.475299    38A     -0.463677    39A     -0.459946
      40A     -0.453698    41A     -0.449809    42A     -0.444554
      43A     -0.333671    44A     -0.313039

  @DF-RHF Final Energy:  -463.88099846954867

   => Energetics <=

    Nuclear Repulsion Energy =            674.3437715245258914
    One-Electron Energy =               -1964.4807571619980990
    Two-Electron Energy =                 826.2559871679235357
    Total Energy =                       -463.8809984695486719
  Basis Set: (AUG-CC-PVTZ AUX)
    Blend: AUG-CC-PVTZ-RI
    Molecular point group: c1

    Geometry (in Angstrom), charge = 0, multiplicity = 1:

       Center              X                  Y                   Z               Mass
    ------------   -----------------  -----------------  -----------------  -----------------
         C           -0.518581453981    -0.833866515913     0.214537937377    12.000000000000
         C           -2.831009453981    -0.233569515913    -0.271291062623    12.000000000000
         C           -1.448713453981    -0.339375515913    -0.917063062623    12.000000000000
         C           -1.221670453981    -0.376700515913     1.531380937377    12.000000000000
         C           -2.489903453981     0.371521484087     1.092524937377    12.000000000000
         C            0.900278546019    -0.347661515913     0.067002937377    12.000000000000
         C           -3.845626453981     0.560227484087    -1.081492062623    12.000000000000
         C            1.202546546019     1.019029484087     0.173988937377    12.000000000000
         C            1.946405546019    -1.239528515913    -0.198489062623    12.000000000000
         C            2.510904546019     1.477704484087     0.023734937377    12.000000000000
         C            3.258700546019    -0.785633515913    -0.351736062623    12.000000000000
         C            3.606300346019     0.651499284087    -0.242550562623    12.000000000000
         H           -0.500160453981    -1.931152515913     0.189761937377     1.007825032230
         H           -3.217446453981    -1.251237515913    -0.109749062623     1.007825032230
         H           -1.133322453981     0.658849484087    -1.249827062623     1.007825032230
         H           -1.421064453981    -0.996831515913    -1.793660062623     1.007825032230
         H           -0.562184453981     0.239234484087     2.150161937377     1.007825032230
         H           -1.488269453981    -1.254404515913     2.130368937377     1.007825032230
         H           -3.308374453981     0.293541484087     1.817052937377     1.007825032230
         H           -2.276838453981     1.441030484087     0.956894937377     1.007825032230
         H           -3.479754453981     1.578397484087    -1.254328062623     1.007825032230
         H           -4.026600453981     0.096507484087    -2.056497062623     1.007825032230
         H           -4.804892453981     0.629935484087    -0.558365062623     1.007825032230
         H            0.405255546019     1.732160484087     0.380468937377     1.007825032230
         H            1.730604546019    -2.303750515913    -0.282569062623     1.007825032230
         H            2.725055546019     2.540550484087     0.112551937377     1.007825032230
         H            4.056661546019    -1.496058515913    -0.556156062623     1.007825032230
         H            4.565413546019     0.932354484087    -0.358917062623     1.007825032230

  Basis Set: AUG-CC-PVTZ
    Blend: AUG-CC-PVTZ
  Basis Set: (AUG-CC-PVTZ AUX)
    Blend: AUG-CC-PVTZ-JKFIT
	 Reference Energy          =    -463.8809984695486719 [Eh]
	 Singles Energy            =      -0.0000000000000000 [Eh]
	 Same-Spin Energy          =      -0.5195960777762122 [Eh]
	 Opposite-Spin Energy      =      -1.7275377189546279 [Eh]
	 Correlation Energy        =      -2.2471337967308402 [Eh]
	 Total Energy              =    -466.1281322662795219 [Eh]

	 ================> DF-SCS-MP2 Energies <==================
	-----------------------------------------------------------
	 SCS Same-Spin Scale       =       0.3333333333333333 [-]
	 SCS Opposite-Spin Scale   =       1.2000000000000000 [-]
	 SCS Same-Spin Energy      =      -0.1731986925920707 [Eh]
	 SCS Opposite-Spin Energy  =      -2.0730452627455533 [Eh]
	 SCS Correlation Energy    =      -2.2462439553376239 [Eh]
	 SCS Total Energy          =    -466.1272424248862762 [Eh]
	-----------------------------------------------------------

  Dipole Moment: [D]
     X:    -0.5843      Y:    -0.2140      Z:     0.0359     Total:     0.6233

*** Psi4 exiting successfully. Buy a developer a beer!
