                               Psi4 1.4a3.dev225

  ==> Input File <==

--------------------------------------------------------------------------
#psi4
#
memory 32 gb

molecule  {
0 1
  C       -0.4426020    -0.8338200     0.2172010
  C       -2.7337424    -0.2495300    -0.2665888
  C       -1.3727340    -0.3393290    -0.9144000
  C       -1.1456910    -0.3766540     1.5340440
  C       -2.4139240     0.3715680     1.0951880
  C        0.9762580    -0.3476150     0.0696660
  C       -3.7696470     0.5602740    -1.0788290
  C        1.2785260     1.0190760     0.1766520
  C        2.0223850    -1.2394820    -0.1958260
  C        2.5868840     1.4777510     0.0263980
  C        3.3346800    -0.7855870    -0.3490730
  C        3.6209360     0.5756970    -0.2390260
  H       -0.4241810    -1.9311060     0.1924250
  H       -3.1414670    -1.2511910    -0.1070860
  H       -1.0573430     0.6588960    -1.2471640
  H       -1.3450850    -0.9967850    -1.7909970
  H       -0.4862050     0.2392810     2.1528250
  H       -1.4122900    -1.2543580     2.1330320
  H       -3.2323950     0.2935880     1.8197160
  H       -2.2008590     1.4410770     0.9595580
  H       -3.4037750     1.5784440    -1.2516650
  H       -3.9506210     0.0965540    -2.0538340
  H       -4.7289130     0.6299820    -0.5557020
  H        0.4812350     1.7322070     0.3831320
  H        1.8065840    -2.3037040    -0.2799060
  H        2.8010350     2.5405970     0.1152150
  H        4.1326410    -1.4960120    -0.5534930
  H        4.6413930     0.9324010    -0.3562540
units angstrom
no_reorient  #important for SAPT in psi4, default
symmetry c1  #important for SAPT in psi4, default
}

set PROPERTIES_ORIGIN ["COM"]
properties('MP2/aug-cc-pvtz', properties = ['dipole'])
--------------------------------------------------------------------------

    Molecular point group: c1
  Charge       = 0
  Multiplicity = 1
  Basis Set: AUG-CC-PVTZ
    Blend: AUG-CC-PVTZ
  Basis Set: (AUG-CC-PVTZ AUX)
    Blend: AUG-CC-PVTZ-JKFIT

    Orbital Energies [Eh]
    ---------------------

    Doubly Occupied:

       1A    -11.236437     2A    -11.233598     3A    -11.232850
       4A    -11.228912     5A    -11.228416     6A    -11.228282
       7A    -11.228085     8A    -11.220777     9A    -11.216347
      10A    -11.214733    11A    -11.214149    12A    -11.211959
      13A     -1.156491    14A     -1.125947    15A     -1.038296
      16A     -1.008425    17A     -0.986592    18A     -0.954624
      19A     -0.892419    20A     -0.826315    21A     -0.816143
      22A     -0.765072    23A     -0.757412    24A     -0.689879
      25A     -0.661382    26A     -0.635377    27A     -0.621544
      28A     -0.606286    29A     -0.585334    30A     -0.579926
      31A     -0.573520    32A     -0.554898    33A     -0.528072
      34A     -0.511029    35A     -0.509701    36A     -0.489857
      37A     -0.477660    38A     -0.461996    39A     -0.459644
      40A     -0.454463    41A     -0.450327    42A     -0.445492
      43A     -0.332353    44A     -0.318790

  @DF-RHF Final Energy:  -463.89375113572942

   => Energetics <=

    Nuclear Repulsion Energy =            676.1525542250385570
    One-Electron Energy =               -1968.1529848122565909
    Two-Electron Energy =                 828.1066794514886169
    Total Energy =                       -463.8937511357294170
  Basis Set: (AUG-CC-PVTZ AUX)
    Blend: AUG-CC-PVTZ-RI
    Molecular point group: c1

    Geometry (in Angstrom), charge = 0, multiplicity = 1:

       Center              X                  Y                   Z               Mass
    ------------   -----------------  -----------------  -----------------  -----------------
         C           -0.515579587951    -0.826982717507     0.214320554980    12.000000000000
         C           -2.806719987951    -0.242692717507    -0.269469245020    12.000000000000
         C           -1.445711587951    -0.332491717507    -0.917280445020    12.000000000000
         C           -1.218668587951    -0.369816717507     1.531163554980    12.000000000000
         C           -2.486901587951     0.378405282493     1.092307554980    12.000000000000
         C            0.903280412049    -0.340777717507     0.066785554980    12.000000000000
         C           -3.842624587951     0.567111282493    -1.081709445020    12.000000000000
         C            1.205548412049     1.025913282493     0.173771554980    12.000000000000
         C            1.949407412049    -1.232644717507    -0.198706445020    12.000000000000
         C            2.513906412049     1.484588282493     0.023517554980    12.000000000000
         C            3.261702412049    -0.778749717507    -0.351953445020    12.000000000000
         C            3.547958412049     0.582534282493    -0.241906445020    12.000000000000
         H           -0.497158587951    -1.924268717507     0.189544554980     1.007825032230
         H           -3.214444587951    -1.244353717507    -0.109966445020     1.007825032230
         H           -1.130320587951     0.665733282493    -1.250044445020     1.007825032230
         H           -1.418062587951    -0.989947717507    -1.793877445020     1.007825032230
         H           -0.559182587951     0.246118282493     2.149944554980     1.007825032230
         H           -1.485267587951    -1.247520717507     2.130151554980     1.007825032230
         H           -3.305372587951     0.300425282493     1.816835554980     1.007825032230
         H           -2.273836587951     1.447914282493     0.956677554980     1.007825032230
         H           -3.476752587951     1.585281282493    -1.254545445020     1.007825032230
         H           -4.023598587951     0.103391282493    -2.056714445020     1.007825032230
         H           -4.801890587951     0.636819282493    -0.558582445020     1.007825032230
         H            0.408257412049     1.739044282493     0.380251554980     1.007825032230
         H            1.733606412049    -2.296866717507    -0.282786445020     1.007825032230
         H            2.728057412049     2.547434282493     0.112334554980     1.007825032230
         H            4.059663412049    -1.489174717507    -0.556373445020     1.007825032230
         H            4.568415412049     0.939238282493    -0.359134445020     1.007825032230

  Basis Set: AUG-CC-PVTZ
    Blend: AUG-CC-PVTZ
  Basis Set: (AUG-CC-PVTZ AUX)
    Blend: AUG-CC-PVTZ-JKFIT
	 Reference Energy          =    -463.8937511357294170 [Eh]
	 Singles Energy            =      -0.0000000000000000 [Eh]
	 Same-Spin Energy          =      -0.5195196672521681 [Eh]
	 Opposite-Spin Energy      =      -1.7264324117050567 [Eh]
	 Correlation Energy        =      -2.2459520789572247 [Eh]
	 Total Energy              =    -466.1397032146866195 [Eh]

	 ================> DF-SCS-MP2 Energies <==================
	-----------------------------------------------------------
	 SCS Same-Spin Scale       =       0.3333333333333333 [-]
	 SCS Opposite-Spin Scale   =       1.2000000000000000 [-]
	 SCS Same-Spin Energy      =      -0.1731732224173894 [Eh]
	 SCS Opposite-Spin Energy  =      -2.0717188940460680 [Eh]
	 SCS Correlation Energy    =      -2.2448921164634572 [Eh]
	 SCS Total Energy          =    -466.1386432521928782 [Eh]
	-----------------------------------------------------------

  Dipole Moment: [D]
     X:    -0.5607      Y:    -0.2132      Z:     0.0458     Total:     0.6016

*** Psi4 exiting successfully. Buy a developer a beer!
