                               Psi4 1.4a3.dev225

  ==> Input File <==

--------------------------------------------------------------------------
#psi4
#
memory 32 gb

molecule  {
0 1
  C       -0.4426020    -0.8338200     0.2172010
  C       -2.7550300    -0.2335230    -0.2686280
  C       -1.3727340    -0.3393290    -0.9144000
  C       -1.1456910    -0.3766540     1.5340440
  C       -2.4139240     0.3715680     1.0951880
  C        0.9762580    -0.3476150     0.0696660
  C       -3.7696470     0.5602740    -1.0788290
  C        1.2785260     1.0190760     0.1766520
  C        2.0223850    -1.2394820    -0.1958260
  C        2.5868840     1.4777510     0.0263980
  C        3.3346800    -0.7855870    -0.3490730
  C        3.6209360     0.5756970    -0.2390260
  H       -0.4241810    -1.9311060     0.1924250
  H       -3.1414670    -1.2511910    -0.1070860
  H       -1.0573430     0.6588960    -1.2471640
  H       -1.3450850    -0.9967850    -1.7909970
  H       -0.4862050     0.2392810     2.1528250
  H       -1.4122900    -1.2543580     2.1330320
  H       -3.2323950     0.2935880     1.8197160
  H       -2.2008590     1.4410770     0.9595580
  H       -3.4037750     1.5784440    -1.2516650
  H       -3.9506210     0.0965540    -2.0538340
  H       -4.7289130     0.6299820    -0.5557020
  H        0.4812350     1.7322070     0.3831320
  H        1.8065840    -2.3037040    -0.2799060
  H        2.8010350     2.5405970     0.1152150
  H        4.2793567    -1.6266330    -0.5910783
  H        4.6413930     0.9324010    -0.3562540
units angstrom
no_reorient  #important for SAPT in psi4, default
symmetry c1  #important for SAPT in psi4, default
}

set PROPERTIES_ORIGIN ["COM"]
properties('MP2/aug-cc-pvtz', properties = ['dipole'])
--------------------------------------------------------------------------

    Molecular point group: c1
  Charge       = 0
  Multiplicity = 1
  Basis Set: AUG-CC-PVTZ
    Blend: AUG-CC-PVTZ
  Basis Set: (AUG-CC-PVTZ AUX)
    Blend: AUG-CC-PVTZ-JKFIT

    Orbital Energies [Eh]
    ---------------------

    Doubly Occupied:

       1A    -11.254601     2A    -11.238237     3A    -11.235361
       4A    -11.231429     5A    -11.230636     6A    -11.229586
       7A    -11.229357     8A    -11.221689     9A    -11.217369
      10A    -11.215435    11A    -11.215387    12A    -11.211995
      13A     -1.157009    14A     -1.125373    15A     -1.039934
      16A     -1.006250    17A     -0.988674    18A     -0.954523
      19A     -0.893361    20A     -0.820571    21A     -0.817444
      22A     -0.764150    23A     -0.751545    24A     -0.688472
      25A     -0.661025    26A     -0.630287    27A     -0.622783
      28A     -0.601402    29A     -0.585423    30A     -0.575263
      31A     -0.565002    32A     -0.556386    33A     -0.529159
      34A     -0.511495    35A     -0.508798    36A     -0.483559
      37A     -0.475483    38A     -0.464215    39A     -0.459831
      40A     -0.454286    41A     -0.450479    42A     -0.443696
      43A     -0.333893    44A     -0.320275

  @DF-RHF Final Energy:  -463.87232754999656

   => Energetics <=

    Nuclear Repulsion Energy =            675.0010228971162860
    One-Electron Energy =               -1965.8044394430714874
    Two-Electron Energy =                 826.9310889959588167
    Total Energy =                       -463.8723275499964984
  Basis Set: (AUG-CC-PVTZ AUX)
    Blend: AUG-CC-PVTZ-RI
    Molecular point group: c1

    Geometry (in Angstrom), charge = 0, multiplicity = 1:

       Center              X                  Y                   Z               Mass
    ------------   -----------------  -----------------  -----------------  -----------------
         C           -0.514907692181    -0.827360177684     0.214709936576    12.000000000000
         C           -2.827335692181    -0.227063177684    -0.271119063424    12.000000000000
         C           -1.445039692181    -0.332869177684    -0.916891063424    12.000000000000
         C           -1.217996692181    -0.370194177684     1.531552936576    12.000000000000
         C           -2.486229692181     0.378027822316     1.092696936576    12.000000000000
         C            0.903952307819    -0.341155177684     0.067174936576    12.000000000000
         C           -3.841952692181     0.566733822316    -1.081320063424    12.000000000000
         C            1.206220307819     1.025535822316     0.174160936576    12.000000000000
         C            1.950079307819    -1.233022177684    -0.198317063424    12.000000000000
         C            2.514578307819     1.484210822316     0.023906936576    12.000000000000
         C            3.262374307819    -0.779127177684    -0.351564063424    12.000000000000
         C            3.548630307819     0.582156822316    -0.241517063424    12.000000000000
         H           -0.496486692181    -1.924646177684     0.189933936576     1.007825032230
         H           -3.213772692181    -1.244731177684    -0.109577063424     1.007825032230
         H           -1.129648692181     0.665355822316    -1.249655063424     1.007825032230
         H           -1.417390692181    -0.990325177684    -1.793488063424     1.007825032230
         H           -0.558510692181     0.245740822316     2.150333936576     1.007825032230
         H           -1.484595692181    -1.247898177684     2.130540936576     1.007825032230
         H           -3.304700692181     0.300047822316     1.817224936576     1.007825032230
         H           -2.273164692181     1.447536822316     0.957066936576     1.007825032230
         H           -3.476080692181     1.584903822316    -1.254156063424     1.007825032230
         H           -4.022926692181     0.103013822316    -2.056325063424     1.007825032230
         H           -4.801218692181     0.636441822316    -0.558193063424     1.007825032230
         H            0.408929307819     1.738666822316     0.380640936576     1.007825032230
         H            1.734278307819    -2.297244177684    -0.282397063424     1.007825032230
         H            2.728729307819     2.547056822316     0.112723936576     1.007825032230
         H            4.207051007819    -1.620173177684    -0.593569363424     1.007825032230
         H            4.569087307819     0.938860822316    -0.358745063424     1.007825032230

  Basis Set: AUG-CC-PVTZ
    Blend: AUG-CC-PVTZ
  Basis Set: (AUG-CC-PVTZ AUX)
    Blend: AUG-CC-PVTZ-JKFIT
	 Reference Energy          =    -463.8723275499965553 [Eh]
	 Singles Energy            =      -0.0000000000000000 [Eh]
	 Same-Spin Energy          =      -0.5199747133086075 [Eh]
	 Opposite-Spin Energy      =      -1.7286888670829181 [Eh]
	 Correlation Energy        =      -2.2486635803915256 [Eh]
	 Total Energy              =    -466.1209911303880631 [Eh]

	 ================> DF-SCS-MP2 Energies <==================
	-----------------------------------------------------------
	 SCS Same-Spin Scale       =       0.3333333333333333 [-]
	 SCS Opposite-Spin Scale   =       1.2000000000000000 [-]
	 SCS Same-Spin Energy      =      -0.1733249044362025 [Eh]
	 SCS Opposite-Spin Energy  =      -2.0744266404995018 [Eh]
	 SCS Correlation Energy    =      -2.2477515449357042 [Eh]
	 SCS Total Energy          =    -466.1200790949322368 [Eh]
	-----------------------------------------------------------

  Dipole Moment: [D]
     X:    -0.6838      Y:    -0.1247      Z:     0.0617     Total:     0.6979

*** Psi4 exiting successfully. Buy a developer a beer!
