                               Psi4 1.4a3.dev225

  ==> Input File <==

--------------------------------------------------------------------------
#psi4
#
memory 32 gb

molecule  {
0 1
  C       -0.4426020    -0.8338200     0.2172010
  C       -2.8563287    -0.3561332    -0.2775584
  C       -1.3727340    -0.3393290    -0.9144000
  C       -1.1456910    -0.3766540     1.5340440
  C       -2.4139240     0.3715680     1.0951880
  C        0.9762580    -0.3476150     0.0696660
  C       -3.7696470     0.5602740    -1.0788290
  C        1.2785260     1.0190760     0.1766520
  C        2.0223850    -1.2394820    -0.1958260
  C        2.5868840     1.4777510     0.0263980
  C        3.3346800    -0.7855870    -0.3490730
  C        3.6209360     0.5756970    -0.2390260
  H       -0.4241810    -1.9311060     0.1924250
  H       -3.1414670    -1.2511910    -0.1070860
  H       -1.0573430     0.6588960    -1.2471640
  H       -1.3450850    -0.9967850    -1.7909970
  H       -0.4862050     0.2392810     2.1528250
  H       -1.4122900    -1.2543580     2.1330320
  H       -3.2323950     0.2935880     1.8197160
  H       -2.2008590     1.4410770     0.9595580
  H       -3.4037750     1.5784440    -1.2516650
  H       -3.9506210     0.0965540    -2.0538340
  H       -4.7289130     0.6299820    -0.5557020
  H        0.4812350     1.7322070     0.3831320
  H        1.8065840    -2.3037040    -0.2799060
  H        2.8010350     2.5405970     0.1152150
  H        4.1326410    -1.4960120    -0.5534930
  H        4.6413930     0.9324010    -0.3562540
units angstrom
no_reorient  #important for SAPT in psi4, default
symmetry c1  #important for SAPT in psi4, default
}

set PROPERTIES_ORIGIN ["COM"]
properties('MP2/aug-cc-pvtz', properties = ['dipole'])
--------------------------------------------------------------------------

    Molecular point group: c1
  Charge       = 0
  Multiplicity = 1
  Basis Set: AUG-CC-PVTZ
    Blend: AUG-CC-PVTZ
  Basis Set: (AUG-CC-PVTZ AUX)
    Blend: AUG-CC-PVTZ-JKFIT

    Orbital Energies [Eh]
    ---------------------

    Doubly Occupied:

       1A    -11.236085     2A    -11.233374     3A    -11.232591
       4A    -11.228647     5A    -11.228189     6A    -11.227754
       7A    -11.227150     8A    -11.218541     9A    -11.217847
      10A    -11.217682    11A    -11.215357    12A    -11.212422
      13A     -1.153516    14A     -1.114883    15A     -1.037742
      16A     -1.008176    17A     -0.988232    18A     -0.947119
      19A     -0.886677    20A     -0.825730    21A     -0.813928
      22A     -0.792296    23A     -0.752963    24A     -0.689335
      25A     -0.652663    26A     -0.634939    27A     -0.618681
      28A     -0.604032    29A     -0.587054    30A     -0.579333
      31A     -0.573719    32A     -0.554299    33A     -0.537748
      34A     -0.512984    35A     -0.509037    36A     -0.498285
      37A     -0.486930    38A     -0.467447    39A     -0.460488
      40A     -0.450891    41A     -0.440745    42A     -0.412376
      43A     -0.332097    44A     -0.318175

  @DF-RHF Final Energy:  -463.86399303811856

   => Energetics <=

    Nuclear Repulsion Energy =            673.8266631753124329
    One-Electron Energy =               -1963.5049937551436869
    Two-Electron Energy =                 825.8143375417126890
    Total Energy =                       -463.8639930381185650
  Basis Set: (AUG-CC-PVTZ AUX)
    Blend: AUG-CC-PVTZ-RI
    Molecular point group: c1

    Geometry (in Angstrom), charge = 0, multiplicity = 1:

       Center              X                  Y                   Z               Mass
    ------------   -----------------  -----------------  -----------------  -----------------
         C           -0.506392804139    -0.818993728917     0.215142631702    12.000000000000
         C           -2.920119504139    -0.341306928917    -0.279616768298    12.000000000000
         C           -1.436524804139    -0.324502728917    -0.916458368298    12.000000000000
         C           -1.209481804139    -0.361827728917     1.531985631702    12.000000000000
         C           -2.477714804139     0.386394271083     1.093129631702    12.000000000000
         C            0.912467195861    -0.332788728917     0.067607631702    12.000000000000
         C           -3.833437804139     0.575100271083    -1.080887368298    12.000000000000
         C            1.214735195861     1.033902271083     0.174593631702    12.000000000000
         C            1.958594195861    -1.224655728917    -0.197884368298    12.000000000000
         C            2.523093195861     1.492577271083     0.024339631702    12.000000000000
         C            3.270889195861    -0.770760728917    -0.351131368298    12.000000000000
         C            3.557145195861     0.590523271083    -0.241084368298    12.000000000000
         H           -0.487971804139    -1.916279728917     0.190366631702     1.007825032230
         H           -3.205257804139    -1.236364728917    -0.109144368298     1.007825032230
         H           -1.121133804139     0.673722271083    -1.249222368298     1.007825032230
         H           -1.408875804139    -0.981958728917    -1.793055368298     1.007825032230
         H           -0.549995804139     0.254107271083     2.150766631702     1.007825032230
         H           -1.476080804139    -1.239531728917     2.130973631702     1.007825032230
         H           -3.296185804139     0.308414271083     1.817657631702     1.007825032230
         H           -2.264649804139     1.455903271083     0.957499631702     1.007825032230
         H           -3.467565804139     1.593270271083    -1.253723368298     1.007825032230
         H           -4.014411804139     0.111380271083    -2.055892368298     1.007825032230
         H           -4.792703804139     0.644808271083    -0.557760368298     1.007825032230
         H            0.417444195861     1.747033271083     0.381073631702     1.007825032230
         H            1.742793195861    -2.288877728917    -0.281964368298     1.007825032230
         H            2.737244195861     2.555423271083     0.113156631702     1.007825032230
         H            4.068850195861    -1.481185728917    -0.555551368298     1.007825032230
         H            4.577602195861     0.947227271083    -0.358312368298     1.007825032230

  Basis Set: AUG-CC-PVTZ
    Blend: AUG-CC-PVTZ
  Basis Set: (AUG-CC-PVTZ AUX)
    Blend: AUG-CC-PVTZ-JKFIT
	 Reference Energy          =    -463.8639930381185650 [Eh]
	 Singles Energy            =      -0.0000000000000000 [Eh]
	 Same-Spin Energy          =      -0.5193189232750517 [Eh]
	 Opposite-Spin Energy      =      -1.7274697174252476 [Eh]
	 Correlation Energy        =      -2.2467886407002995 [Eh]
	 Total Energy              =    -466.1107816788188529 [Eh]

	 ================> DF-SCS-MP2 Energies <==================
	-----------------------------------------------------------
	 SCS Same-Spin Scale       =       0.3333333333333333 [-]
	 SCS Opposite-Spin Scale   =       1.2000000000000000 [-]
	 SCS Same-Spin Energy      =      -0.1731063077583506 [Eh]
	 SCS Opposite-Spin Energy  =      -2.0729636609102968 [Eh]
	 SCS Correlation Energy    =      -2.2460699686686474 [Eh]
	 SCS Total Energy          =    -466.1100630067871862 [Eh]
	-----------------------------------------------------------

  Dipole Moment: [D]
     X:    -0.6104      Y:    -0.2293      Z:     0.0240     Total:     0.6525

*** Psi4 exiting successfully. Buy a developer a beer!
