                               Psi4 1.4a3.dev225

  ==> Input File <==

--------------------------------------------------------------------------
#psi4
#
memory 32 gb

molecule  {
0 1
  C       -0.4426020    -0.8338200     0.2172010
  C       -2.7550300    -0.2335230    -0.2686280
  C       -1.3727340    -0.3393290    -0.9144000
  C       -1.1456910    -0.3766540     1.5340440
  C       -2.4139240     0.3715680     1.0951880
  C        0.9762580    -0.3476150     0.0696660
  C       -3.7696470     0.5602740    -1.0788290
  C        1.2785260     1.0190760     0.1766520
  C        1.9850261    -1.2076320    -0.1863449
  C        2.5868840     1.4777510     0.0263980
  C        3.3346800    -0.7855870    -0.3490730
  C        3.6209360     0.5756970    -0.2390260
  H       -0.4241810    -1.9311060     0.1924250
  H       -3.1414670    -1.2511910    -0.1070860
  H       -1.0573430     0.6588960    -1.2471640
  H       -1.3450850    -0.9967850    -1.7909970
  H       -0.4862050     0.2392810     2.1528250
  H       -1.4122900    -1.2543580     2.1330320
  H       -3.2323950     0.2935880     1.8197160
  H       -2.2008590     1.4410770     0.9595580
  H       -3.4037750     1.5784440    -1.2516650
  H       -3.9506210     0.0965540    -2.0538340
  H       -4.7289130     0.6299820    -0.5557020
  H        0.4812350     1.7322070     0.3831320
  H        1.8065840    -2.3037040    -0.2799060
  H        2.8010350     2.5405970     0.1152150
  H        4.1326410    -1.4960120    -0.5534930
  H        4.6413930     0.9324010    -0.3562540
units angstrom
no_reorient  #important for SAPT in psi4, default
symmetry c1  #important for SAPT in psi4, default
}

set PROPERTIES_ORIGIN ["COM"]
properties('MP2/aug-cc-pvtz', properties = ['dipole'])
--------------------------------------------------------------------------

    Molecular point group: c1
  Charge       = 0
  Multiplicity = 1
  Basis Set: AUG-CC-PVTZ
    Blend: AUG-CC-PVTZ
  Basis Set: (AUG-CC-PVTZ AUX)
    Blend: AUG-CC-PVTZ-JKFIT

    Orbital Energies [Eh]
    ---------------------

    Doubly Occupied:

       1A    -11.235302     2A    -11.233254     3A    -11.230657
       4A    -11.229374     5A    -11.229095     6A    -11.227739
       7A    -11.227155     8A    -11.221011     9A    -11.216445
      10A    -11.214732    11A    -11.214450    12A    -11.211454
      13A     -1.159061    14A     -1.124857    15A     -1.041926
      16A     -1.005176    17A     -0.989784    18A     -0.954643
      19A     -0.892319    20A     -0.829839    21A     -0.812750
      22A     -0.763395    23A     -0.759095    24A     -0.688445
      25A     -0.660261    26A     -0.633033    27A     -0.623371
      28A     -0.609741    29A     -0.586014    30A     -0.578591
      31A     -0.569874    32A     -0.556343    33A     -0.528105
      34A     -0.512274    35A     -0.511159    36A     -0.489525
      37A     -0.474132    38A     -0.463071    39A     -0.461467
      40A     -0.452707    41A     -0.450470    42A     -0.443329
      43A     -0.331292    44A     -0.322688

  @DF-RHF Final Energy:  -463.89155407027067

   => Energetics <=

    Nuclear Repulsion Energy =            676.7279717693933208
    One-Electron Energy =               -1969.3002409836674360
    Two-Electron Energy =                 828.6807151440033294
    Total Energy =                       -463.8915540702706721
  Basis Set: (AUG-CC-PVTZ AUX)
    Blend: AUG-CC-PVTZ-RI
    Molecular point group: c1

    Geometry (in Angstrom), charge = 0, multiplicity = 1:

       Center              X                  Y                   Z               Mass
    ------------   -----------------  -----------------  -----------------  -----------------
         C           -0.511184539590    -0.830569186084     0.213762848886    12.000000000000
         C           -2.823612539590    -0.230272186084    -0.272066151114    12.000000000000
         C           -1.441316539590    -0.336078186084    -0.917838151114    12.000000000000
         C           -1.214273539590    -0.373403186084     1.530605848886    12.000000000000
         C           -2.482506539590     0.374818813916     1.091749848886    12.000000000000
         C            0.907675460410    -0.344364186084     0.066227848886    12.000000000000
         C           -3.838229539590     0.563524813916    -1.082267151114    12.000000000000
         C            1.209943460410     1.022326813916     0.173213848886    12.000000000000
         C            1.916443560410    -1.204381186084    -0.189783051114    12.000000000000
         C            2.518301460410     1.481001813916     0.022959848886    12.000000000000
         C            3.266097460410    -0.782336186084    -0.352511151114    12.000000000000
         C            3.552353460410     0.578947813916    -0.242464151114    12.000000000000
         H           -0.492763539590    -1.927855186084     0.188986848886     1.007825032230
         H           -3.210049539590    -1.247940186084    -0.110524151114     1.007825032230
         H           -1.125925539590     0.662146813916    -1.250602151114     1.007825032230
         H           -1.413667539590    -0.993534186084    -1.794435151114     1.007825032230
         H           -0.554787539590     0.242531813916     2.149386848886     1.007825032230
         H           -1.480872539590    -1.251107186084     2.129593848886     1.007825032230
         H           -3.300977539590     0.296838813916     1.816277848886     1.007825032230
         H           -2.269441539590     1.444327813916     0.956119848886     1.007825032230
         H           -3.472357539590     1.581694813916    -1.255103151114     1.007825032230
         H           -4.019203539590     0.099804813916    -2.057272151114     1.007825032230
         H           -4.797495539590     0.633232813916    -0.559140151114     1.007825032230
         H            0.412652460410     1.735457813916     0.379693848886     1.007825032230
         H            1.738001460410    -2.300453186084    -0.283344151114     1.007825032230
         H            2.732452460410     2.543847813916     0.111776848886     1.007825032230
         H            4.064058460410    -1.492761186084    -0.556931151114     1.007825032230
         H            4.572810460410     0.935651813916    -0.359692151114     1.007825032230

  Basis Set: AUG-CC-PVTZ
    Blend: AUG-CC-PVTZ
  Basis Set: (AUG-CC-PVTZ AUX)
    Blend: AUG-CC-PVTZ-JKFIT
	 Reference Energy          =    -463.8915540702706721 [Eh]
	 Singles Energy            =      -0.0000000000000000 [Eh]
	 Same-Spin Energy          =      -0.5193974195564178 [Eh]
	 Opposite-Spin Energy      =      -1.7264827338052180 [Eh]
	 Correlation Energy        =      -2.2458801533616359 [Eh]
	 Total Energy              =    -466.1374342236322832 [Eh]

	 ================> DF-SCS-MP2 Energies <==================
	-----------------------------------------------------------
	 SCS Same-Spin Scale       =       0.3333333333333333 [-]
	 SCS Opposite-Spin Scale   =       1.2000000000000000 [-]
	 SCS Same-Spin Energy      =      -0.1731324731854726 [Eh]
	 SCS Opposite-Spin Energy  =      -2.0717792805662616 [Eh]
	 SCS Correlation Energy    =      -2.2449117537517340 [Eh]
	 SCS Total Energy          =    -466.1364658240224230 [Eh]
	-----------------------------------------------------------

  Dipole Moment: [D]
     X:    -0.5360      Y:    -0.1873      Z:     0.0347     Total:     0.5689

*** Psi4 exiting successfully. Buy a developer a beer!
