                               Psi4 1.4a3.dev225

  ==> Input File <==

--------------------------------------------------------------------------
#psi4
#
memory 32 gb

molecule  {
0 1
  C       -0.4400486    -0.8077246     0.2097867
  C       -2.7550300    -0.2335230    -0.2686280
  C       -1.3727340    -0.3393290    -0.9144000
  C       -1.1456910    -0.3766540     1.5340440
  C       -2.4139240     0.3715680     1.0951880
  C        0.9762580    -0.3476150     0.0696660
  C       -3.7696470     0.5602740    -1.0788290
  C        1.2785260     1.0190760     0.1766520
  C        2.0223850    -1.2394820    -0.1958260
  C        2.5868840     1.4777510     0.0263980
  C        3.3346800    -0.7855870    -0.3490730
  C        3.6209360     0.5756970    -0.2390260
  H       -0.4241810    -1.9311060     0.1924250
  H       -3.1414670    -1.2511910    -0.1070860
  H       -1.0573430     0.6588960    -1.2471640
  H       -1.3450850    -0.9967850    -1.7909970
  H       -0.4862050     0.2392810     2.1528250
  H       -1.4122900    -1.2543580     2.1330320
  H       -3.2323950     0.2935880     1.8197160
  H       -2.2008590     1.4410770     0.9595580
  H       -3.4037750     1.5784440    -1.2516650
  H       -3.9506210     0.0965540    -2.0538340
  H       -4.7289130     0.6299820    -0.5557020
  H        0.4812350     1.7322070     0.3831320
  H        1.8065840    -2.3037040    -0.2799060
  H        2.8010350     2.5405970     0.1152150
  H        4.1326410    -1.4960120    -0.5534930
  H        4.6413930     0.9324010    -0.3562540
units angstrom
no_reorient  #important for SAPT in psi4, default
symmetry c1  #important for SAPT in psi4, default
}

set PROPERTIES_ORIGIN ["COM"]
properties('MP2/aug-cc-pvtz', properties = ['dipole'])
--------------------------------------------------------------------------

    Molecular point group: c1
  Charge       = 0
  Multiplicity = 1
  Basis Set: AUG-CC-PVTZ
    Blend: AUG-CC-PVTZ
  Basis Set: (AUG-CC-PVTZ AUX)
    Blend: AUG-CC-PVTZ-JKFIT

    Orbital Energies [Eh]
    ---------------------

    Doubly Occupied:

       1A    -11.236064     2A    -11.233603     3A    -11.233094
       4A    -11.229254     5A    -11.229138     6A    -11.228668
       7A    -11.228366     8A    -11.221343     9A    -11.216871
      10A    -11.214886    11A    -11.214324    12A    -11.211689
      13A     -1.157052    14A     -1.125480    15A     -1.040411
      16A     -1.008653    17A     -0.988587    18A     -0.954825
      19A     -0.892381    20A     -0.826331    21A     -0.817241
      22A     -0.763971    23A     -0.755592    24A     -0.689704
      25A     -0.660725    26A     -0.636246    27A     -0.622034
      28A     -0.606693    29A     -0.585702    30A     -0.580210
      31A     -0.572546    32A     -0.556615    33A     -0.528446
      34A     -0.511246    35A     -0.510489    36A     -0.489950
      37A     -0.476838    38A     -0.464028    39A     -0.462626
      40A     -0.453772    41A     -0.445737    42A     -0.443740
      43A     -0.332504    44A     -0.319286

  @DF-RHF Final Energy:  -463.89322176128974

   => Energetics <=

    Nuclear Repulsion Energy =            676.2546770749535199
    One-Electron Energy =               -1968.3418787875700673
    Two-Electron Energy =                 828.1939799513269236
    Total Energy =                       -463.8932217612897375
  Basis Set: (AUG-CC-PVTZ AUX)
    Blend: AUG-CC-PVTZ-RI
    Molecular point group: c1

    Geometry (in Angstrom), charge = 0, multiplicity = 1:

       Center              X                  Y                   Z               Mass
    ------------   -----------------  -----------------  -----------------  -----------------
         C           -0.511622221559    -0.804042528545     0.207614713109    12.000000000000
         C           -2.826603621559    -0.229840928545    -0.270799986891    12.000000000000
         C           -1.444307621559    -0.335646928545    -0.916571986891    12.000000000000
         C           -1.217264621559    -0.372971928545     1.531872013109    12.000000000000
         C           -2.485497621559     0.375250071455     1.093016013109    12.000000000000
         C            0.904684378441    -0.343932928545     0.067494013109    12.000000000000
         C           -3.841220621559     0.563956071455    -1.081000986891    12.000000000000
         C            1.206952378441     1.022758071455     0.174480013109    12.000000000000
         C            1.950811378441    -1.235799928545    -0.197997986891    12.000000000000
         C            2.515310378441     1.481433071455     0.024226013109    12.000000000000
         C            3.263106378441    -0.781904928545    -0.351244986891    12.000000000000
         C            3.549362378441     0.579379071455    -0.241197986891    12.000000000000
         H           -0.495754621559    -1.927423928545     0.190253013109     1.007825032230
         H           -3.213040621559    -1.247508928545    -0.109257986891     1.007825032230
         H           -1.128916621559     0.662578071455    -1.249335986891     1.007825032230
         H           -1.416658621559    -0.993102928545    -1.793168986891     1.007825032230
         H           -0.557778621559     0.242963071455     2.150653013109     1.007825032230
         H           -1.483863621559    -1.250675928545     2.130860013109     1.007825032230
         H           -3.303968621559     0.297270071455     1.817544013109     1.007825032230
         H           -2.272432621559     1.444759071455     0.957386013109     1.007825032230
         H           -3.475348621559     1.582126071455    -1.253836986891     1.007825032230
         H           -4.022194621559     0.100236071455    -2.056005986891     1.007825032230
         H           -4.800486621559     0.633664071455    -0.557873986891     1.007825032230
         H            0.409661378441     1.735889071455     0.380960013109     1.007825032230
         H            1.735010378441    -2.300021928545    -0.282077986891     1.007825032230
         H            2.729461378441     2.544279071455     0.113043013109     1.007825032230
         H            4.061067378441    -1.492329928545    -0.555664986891     1.007825032230
         H            4.569819378441     0.936083071455    -0.358425986891     1.007825032230

  Basis Set: AUG-CC-PVTZ
    Blend: AUG-CC-PVTZ
  Basis Set: (AUG-CC-PVTZ AUX)
    Blend: AUG-CC-PVTZ-JKFIT
	 Reference Energy          =    -463.8932217612897375 [Eh]
	 Singles Energy            =      -0.0000000000000000 [Eh]
	 Same-Spin Energy          =      -0.5197213604302189 [Eh]
	 Opposite-Spin Energy      =      -1.7267413864489698 [Eh]
	 Correlation Energy        =      -2.2464627468791889 [Eh]
	 Total Energy              =    -466.1396845081688980 [Eh]

	 ================> DF-SCS-MP2 Energies <==================
	-----------------------------------------------------------
	 SCS Same-Spin Scale       =       0.3333333333333333 [-]
	 SCS Opposite-Spin Scale   =       1.2000000000000000 [-]
	 SCS Same-Spin Energy      =      -0.1732404534767396 [Eh]
	 SCS Opposite-Spin Energy  =      -2.0720896637387636 [Eh]
	 SCS Correlation Energy    =      -2.2453301172155031 [Eh]
	 SCS Total Energy          =    -466.1385518785052682 [Eh]
	-----------------------------------------------------------

  Dipole Moment: [D]
     X:    -0.5565      Y:    -0.1806      Z:     0.0349     Total:     0.5861

*** Psi4 exiting successfully. Buy a developer a beer!
