                               Psi4 1.4a3.dev225

  ==> Input File <==

--------------------------------------------------------------------------
#psi4
#
memory 32 gb

molecule  {
0 1
  C       -0.4426020    -0.8338200     0.2172010
  C       -2.7550300    -0.2335230    -0.2686280
  C       -1.3727340    -0.3393290    -0.9144000
  C       -1.1456910    -0.3766540     1.5340440
  C       -2.4139240     0.3715680     1.0951880
  C        0.9762580    -0.3476150     0.0696660
  C       -3.7696470     0.5602740    -1.0788290
  C        1.2785260     1.0190760     0.1766520
  C        2.0223850    -1.2394820    -0.1958260
  C        2.5868840     1.4777510     0.0263980
  C        3.3346800    -0.7855870    -0.3490730
  C        3.5799075     0.3805871    -0.2547988
  H       -0.4241810    -1.9311060     0.1924250
  H       -3.1414670    -1.2511910    -0.1070860
  H       -1.0573430     0.6588960    -1.2471640
  H       -1.3450850    -0.9967850    -1.7909970
  H       -0.4862050     0.2392810     2.1528250
  H       -1.4122900    -1.2543580     2.1330320
  H       -3.2323950     0.2935880     1.8197160
  H       -2.2008590     1.4410770     0.9595580
  H       -3.4037750     1.5784440    -1.2516650
  H       -3.9506210     0.0965540    -2.0538340
  H       -4.7289130     0.6299820    -0.5557020
  H        0.4812350     1.7322070     0.3831320
  H        1.8065840    -2.3037040    -0.2799060
  H        2.8010350     2.5405970     0.1152150
  H        4.1326410    -1.4960120    -0.5534930
  H        4.6413930     0.9324010    -0.3562540
units angstrom
no_reorient  #important for SAPT in psi4, default
symmetry c1  #important for SAPT in psi4, default
}

set PROPERTIES_ORIGIN ["COM"]
properties('MP2/aug-cc-pvtz', properties = ['dipole'])
--------------------------------------------------------------------------

    Molecular point group: c1
  Charge       = 0
  Multiplicity = 1
  Basis Set: AUG-CC-PVTZ
    Blend: AUG-CC-PVTZ
  Basis Set: (AUG-CC-PVTZ AUX)
    Blend: AUG-CC-PVTZ-JKFIT

    Orbital Energies [Eh]
    ---------------------

    Doubly Occupied:

       1A    -11.242725     2A    -11.235062     3A    -11.230244
       4A    -11.227997     5A    -11.227474     6A    -11.223917
       7A    -11.221089     8A    -11.216648     9A    -11.214849
      10A    -11.214479    11A    -11.211530    12A    -11.204208
      13A     -1.167210    14A     -1.131026    15A     -1.053850
      16A     -1.010273    17A     -0.987072    18A     -0.953056
      19A     -0.892291    20A     -0.832302    21A     -0.809877
      22A     -0.763624    23A     -0.755220    24A     -0.685653
      25A     -0.660778    26A     -0.630390    27A     -0.627730
      28A     -0.608373    29A     -0.596718    30A     -0.582666
      31A     -0.569933    32A     -0.552914    33A     -0.525309
      34A     -0.518529    35A     -0.505895    36A     -0.483581
      37A     -0.472930    38A     -0.468043    39A     -0.456501
      40A     -0.452040    41A     -0.448188    42A     -0.434587
      43A     -0.353715    44A     -0.312044

  @DF-RHF Final Energy:  -463.83242821076999

   => Energetics <=

    Nuclear Repulsion Energy =            678.1751964908461332
    One-Electron Energy =               -1972.0701713766347893
    Two-Electron Energy =                 830.0625466750185524
    Total Energy =                       -463.8324282107699901
  Basis Set: (AUG-CC-PVTZ AUX)
    Blend: AUG-CC-PVTZ-RI
    Molecular point group: c1

    Geometry (in Angstrom), charge = 0, multiplicity = 1:

       Center              X                  Y                   Z               Mass
    ------------   -----------------  -----------------  -----------------  -----------------
         C           -0.510909534782    -0.813560502934     0.215655410451    12.000000000000
         C           -2.823337534782    -0.213263502934    -0.270173589549    12.000000000000
         C           -1.441041534782    -0.319069502934    -0.915945589549    12.000000000000
         C           -1.213998534782    -0.356394502934     1.532498410451    12.000000000000
         C           -2.482231534782     0.391827497066     1.093642410451    12.000000000000
         C            0.907950465218    -0.327355502934     0.068120410451    12.000000000000
         C           -3.837954534782     0.580533497066    -1.080374589549    12.000000000000
         C            1.210218465218     1.039335497066     0.175106410451    12.000000000000
         C            1.954077465218    -1.219222502934    -0.197371589549    12.000000000000
         C            2.518576465218     1.498010497066     0.024852410451    12.000000000000
         C            3.266372465218    -0.765327502934    -0.350618589549    12.000000000000
         C            3.511599965218     0.400846597066    -0.256344389549    12.000000000000
         H           -0.492488534782    -1.910846502934     0.190879410451     1.007825032230
         H           -3.209774534782    -1.230931502934    -0.108631589549     1.007825032230
         H           -1.125650534782     0.679155497066    -1.248709589549     1.007825032230
         H           -1.413392534782    -0.976525502934    -1.792542589549     1.007825032230
         H           -0.554512534782     0.259540497066     2.151279410451     1.007825032230
         H           -1.480597534782    -1.234098502934     2.131486410451     1.007825032230
         H           -3.300702534782     0.313847497066     1.818170410451     1.007825032230
         H           -2.269166534782     1.461336497066     0.958012410451     1.007825032230
         H           -3.472082534782     1.598703497066    -1.253210589549     1.007825032230
         H           -4.018928534782     0.116813497066    -2.055379589549     1.007825032230
         H           -4.797220534782     0.650241497066    -0.557247589549     1.007825032230
         H            0.412927465218     1.752466497066     0.381586410451     1.007825032230
         H            1.738276465218    -2.283444502934    -0.281451589549     1.007825032230
         H            2.732727465218     2.560856497066     0.113669410451     1.007825032230
         H            4.064333465218    -1.475752502934    -0.555038589549     1.007825032230
         H            4.573085465218     0.952660497066    -0.357799589549     1.007825032230

  Basis Set: AUG-CC-PVTZ
    Blend: AUG-CC-PVTZ
  Basis Set: (AUG-CC-PVTZ AUX)
    Blend: AUG-CC-PVTZ-JKFIT
	 Reference Energy          =    -463.8324282107699901 [Eh]
	 Singles Energy            =      -0.0000000000000000 [Eh]
	 Same-Spin Energy          =      -0.5187568757657357 [Eh]
	 Opposite-Spin Energy      =      -1.7276477147185183 [Eh]
	 Correlation Energy        =      -2.2464045904842540 [Eh]
	 Total Energy              =    -466.0788328012542365 [Eh]

	 ================> DF-SCS-MP2 Energies <==================
	-----------------------------------------------------------
	 SCS Same-Spin Scale       =       0.3333333333333333 [-]
	 SCS Opposite-Spin Scale   =       1.2000000000000000 [-]
	 SCS Same-Spin Energy      =      -0.1729189585885786 [Eh]
	 SCS Opposite-Spin Energy  =      -2.0731772576622221 [Eh]
	 SCS Correlation Energy    =      -2.2460962162508005 [Eh]
	 SCS Total Energy          =    -466.0785244270207954 [Eh]
	-----------------------------------------------------------

  Dipole Moment: [D]
     X:    -0.6235      Y:    -0.1868      Z:     0.0503     Total:     0.6528

*** Psi4 exiting successfully. Buy a developer a beer!
