                               Psi4 1.4a3.dev225

  ==> Input File <==

--------------------------------------------------------------------------
#psi4
#
memory 32 gb

molecule  {
0 1
  C       -0.4426020    -0.8338200     0.2172010
  C       -2.7550300    -0.2335230    -0.2686280
  C       -1.3727340    -0.3393290    -0.9144000
  C       -1.1456910    -0.3766540     1.5340440
  C       -2.4139240     0.3715680     1.0951880
  C        0.9762580    -0.3476150     0.0696660
  C       -3.7696470     0.5602740    -1.0788290
  C        1.2785260     1.0190760     0.1766520
  C        2.0223850    -1.2394820    -0.1958260
  C        2.5868840     1.4777510     0.0263980
  C        3.3346800    -0.7855870    -0.3490730
  C        3.6209360     0.5756970    -0.2390260
  H       -0.4225029    -2.0310664     0.1901680
  H       -3.1414670    -1.2511910    -0.1070860
  H       -1.0573430     0.6588960    -1.2471640
  H       -1.3450850    -0.9967850    -1.7909970
  H       -0.4862050     0.2392810     2.1528250
  H       -1.4122900    -1.2543580     2.1330320
  H       -3.2323950     0.2935880     1.8197160
  H       -2.2008590     1.4410770     0.9595580
  H       -3.4037750     1.5784440    -1.2516650
  H       -3.9506210     0.0965540    -2.0538340
  H       -4.7289130     0.6299820    -0.5557020
  H        0.4812350     1.7322070     0.3831320
  H        1.8065840    -2.3037040    -0.2799060
  H        2.8010350     2.5405970     0.1152150
  H        4.1326410    -1.4960120    -0.5534930
  H        4.6413930     0.9324010    -0.3562540
units angstrom
no_reorient  #important for SAPT in psi4, default
symmetry c1  #important for SAPT in psi4, default
}

set PROPERTIES_ORIGIN ["COM"]
properties('MP2/aug-cc-pvtz', properties = ['dipole'])
--------------------------------------------------------------------------

    Molecular point group: c1
  Charge       = 0
  Multiplicity = 1
  Basis Set: AUG-CC-PVTZ
    Blend: AUG-CC-PVTZ
  Basis Set: (AUG-CC-PVTZ AUX)
    Blend: AUG-CC-PVTZ-JKFIT

    Orbital Energies [Eh]
    ---------------------

    Doubly Occupied:

       1A    -11.240593     2A    -11.237396     3A    -11.233949
       4A    -11.232904     5A    -11.229280     6A    -11.229128
       7A    -11.228159     8A    -11.221452     9A    -11.217586
      10A    -11.215721    11A    -11.215379    12A    -11.211855
      13A     -1.155781    14A     -1.124809    15A     -1.038621
      16A     -1.008663    17A     -0.988794    18A     -0.952997
      19A     -0.891441    20A     -0.825806    21A     -0.816639
      22A     -0.763823    23A     -0.752053    24A     -0.688344
      25A     -0.658859    26A     -0.635106    27A     -0.621452
      28A     -0.606340    29A     -0.585721    30A     -0.580195
      31A     -0.569901    32A     -0.556252    33A     -0.528500
      34A     -0.510894    35A     -0.510183    36A     -0.489902
      37A     -0.475902    38A     -0.463945    39A     -0.461943
      40A     -0.453641    41A     -0.445088    42A     -0.441513
      43A     -0.332544    44A     -0.319255

  @DF-RHF Final Energy:  -463.88759111079241

   => Energetics <=

    Nuclear Repulsion Energy =            675.4043443737658663
    One-Electron Energy =               -1966.6472533286180351
    Two-Electron Energy =                 827.3553178440598685
    Total Energy =                       -463.8875911107924139
  Basis Set: (AUG-CC-PVTZ AUX)
    Blend: AUG-CC-PVTZ-RI
    Molecular point group: c1

    Geometry (in Angstrom), charge = 0, multiplicity = 1:

       Center              X                  Y                   Z               Mass
    ------------   -----------------  -----------------  -----------------  -----------------
         C           -0.513994828225    -0.827553154930     0.214487580913    12.000000000000
         C           -2.826422828225    -0.227256154930    -0.271341419087    12.000000000000
         C           -1.444126828225    -0.333062154930    -0.917113419087    12.000000000000
         C           -1.217083828225    -0.370387154930     1.531330580913    12.000000000000
         C           -2.485316828225     0.377834845070     1.092474580913    12.000000000000
         C            0.904865171775    -0.341348154930     0.066952580913    12.000000000000
         C           -3.841039828225     0.566540845070    -1.081542419087    12.000000000000
         C            1.207133171775     1.025342845070     0.173938580913    12.000000000000
         C            1.950992171775    -1.233215154930    -0.198539419087    12.000000000000
         C            2.515491171775     1.484017845070     0.023684580913    12.000000000000
         C            3.263287171775    -0.779320154930    -0.351786419087    12.000000000000
         C            3.549543171775     0.581963845070    -0.241739419087    12.000000000000
         H           -0.493895728225    -2.024799554930     0.187454580913     1.007825032230
         H           -3.212859828225    -1.244924154930    -0.109799419087     1.007825032230
         H           -1.128735828225     0.665162845070    -1.249877419087     1.007825032230
         H           -1.416477828225    -0.990518154930    -1.793710419087     1.007825032230
         H           -0.557597828225     0.245547845070     2.150111580913     1.007825032230
         H           -1.483682828225    -1.248091154930     2.130318580913     1.007825032230
         H           -3.303787828225     0.299854845070     1.817002580913     1.007825032230
         H           -2.272251828225     1.447343845070     0.956844580913     1.007825032230
         H           -3.475167828225     1.584710845070    -1.254378419087     1.007825032230
         H           -4.022013828225     0.102820845070    -2.056547419087     1.007825032230
         H           -4.800305828225     0.636248845070    -0.558415419087     1.007825032230
         H            0.409842171775     1.738473845070     0.380418580913     1.007825032230
         H            1.735191171775    -2.297437154930    -0.282619419087     1.007825032230
         H            2.729642171775     2.546863845070     0.112501580913     1.007825032230
         H            4.061248171775    -1.489745154930    -0.556206419087     1.007825032230
         H            4.570000171775     0.938667845070    -0.358967419087     1.007825032230

  Basis Set: AUG-CC-PVTZ
    Blend: AUG-CC-PVTZ
  Basis Set: (AUG-CC-PVTZ AUX)
    Blend: AUG-CC-PVTZ-JKFIT
	 Reference Energy          =    -463.8875911107924139 [Eh]
	 Singles Energy            =      -0.0000000000000000 [Eh]
	 Same-Spin Energy          =      -0.5196826456747308 [Eh]
	 Opposite-Spin Energy      =      -1.7274015021871052 [Eh]
	 Correlation Energy        =      -2.2470841478618357 [Eh]
	 Total Energy              =    -466.1346752586542266 [Eh]

	 ================> DF-SCS-MP2 Energies <==================
	-----------------------------------------------------------
	 SCS Same-Spin Scale       =       0.3333333333333333 [-]
	 SCS Opposite-Spin Scale   =       1.2000000000000000 [-]
	 SCS Same-Spin Energy      =      -0.1732275485582436 [Eh]
	 SCS Opposite-Spin Energy  =      -2.0728818026245261 [Eh]
	 SCS Correlation Energy    =      -2.2461093511827697 [Eh]
	 SCS Total Energy          =    -466.1337004619751951 [Eh]
	-----------------------------------------------------------

  Dipole Moment: [D]
     X:    -0.5667      Y:    -0.1292      Z:     0.0384     Total:     0.5825

*** Psi4 exiting successfully. Buy a developer a beer!
