                               Psi4 1.4a3.dev225

  ==> Input File <==

--------------------------------------------------------------------------
#psi4
#
memory 32 gb

molecule  {
0 1
  C       -0.4426020    -0.8338200     0.2172010
  C       -2.7391994    -0.2122047    -0.2680014
  C       -1.3727340    -0.3393290    -0.9144000
  C       -1.1456910    -0.3766540     1.5340440
  C       -2.4139240     0.3715680     1.0951880
  C        0.9762580    -0.3476150     0.0696660
  C       -3.7696470     0.5602740    -1.0788290
  C        1.2785260     1.0190760     0.1766520
  C        2.0223850    -1.2394820    -0.1958260
  C        2.5868840     1.4777510     0.0263980
  C        3.3346800    -0.7855870    -0.3490730
  C        3.6209360     0.5756970    -0.2390260
  H       -0.4241810    -1.9311060     0.1924250
  H       -3.1414670    -1.2511910    -0.1070860
  H       -1.0573430     0.6588960    -1.2471640
  H       -1.3450850    -0.9967850    -1.7909970
  H       -0.4862050     0.2392810     2.1528250
  H       -1.4122900    -1.2543580     2.1330320
  H       -3.2323950     0.2935880     1.8197160
  H       -2.2008590     1.4410770     0.9595580
  H       -3.4037750     1.5784440    -1.2516650
  H       -3.9506210     0.0965540    -2.0538340
  H       -4.7289130     0.6299820    -0.5557020
  H        0.4812350     1.7322070     0.3831320
  H        1.8065840    -2.3037040    -0.2799060
  H        2.8010350     2.5405970     0.1152150
  H        4.1326410    -1.4960120    -0.5534930
  H        4.6413930     0.9324010    -0.3562540
units angstrom
no_reorient  #important for SAPT in psi4, default
symmetry c1  #important for SAPT in psi4, default
}

set PROPERTIES_ORIGIN ["COM"]
properties('MP2/aug-cc-pvtz', properties = ['dipole'])
--------------------------------------------------------------------------

    Molecular point group: c1
  Charge       = 0
  Multiplicity = 1
  Basis Set: AUG-CC-PVTZ
    Blend: AUG-CC-PVTZ
  Basis Set: (AUG-CC-PVTZ AUX)
    Blend: AUG-CC-PVTZ-JKFIT

    Orbital Energies [Eh]
    ---------------------

    Doubly Occupied:

       1A    -11.236587     2A    -11.233641     3A    -11.232907
       4A    -11.228996     5A    -11.228644     6A    -11.228479
       7A    -11.228198     8A    -11.222202     9A    -11.216955
      10A    -11.214679    11A    -11.214482    12A    -11.211817
      13A     -1.156611    14A     -1.126511    15A     -1.039910
      16A     -1.008505    17A     -0.988713    18A     -0.955032
      19A     -0.893886    20A     -0.826643    21A     -0.816631
      22A     -0.759805    23A     -0.757994    24A     -0.690064
      25A     -0.661648    26A     -0.635285    27A     -0.622477
      28A     -0.607012    29A     -0.586014    30A     -0.580067
      31A     -0.573450    32A     -0.556678    33A     -0.527864
      34A     -0.511254    35A     -0.510240    36A     -0.489955
      37A     -0.477325    38A     -0.462579    39A     -0.461883
      40A     -0.451502    41A     -0.447786    42A     -0.447352
      43A     -0.332404    44A     -0.318907

  @DF-RHF Final Energy:  -463.89337140001055

   => Energetics <=

    Nuclear Repulsion Energy =            676.2674736913686502
    One-Electron Energy =               -1968.3625497010614254
    Two-Electron Energy =                 828.2017046096822241
    Total Energy =                       -463.8933714000105510
  Basis Set: (AUG-CC-PVTZ AUX)
    Blend: AUG-CC-PVTZ-RI
    Molecular point group: c1

    Geometry (in Angstrom), charge = 0, multiplicity = 1:

       Center              X                  Y                   Z               Mass
    ------------   -----------------  -----------------  -----------------  -----------------
         C           -0.515170632959    -0.829779926183     0.214426417142    12.000000000000
         C           -2.811768032959    -0.208164626183    -0.270775982858    12.000000000000
         C           -1.445302632959    -0.335288926183    -0.917174582858    12.000000000000
         C           -1.218259632959    -0.372613926183     1.531269417142    12.000000000000
         C           -2.486492632959     0.375608073817     1.092413417142    12.000000000000
         C            0.903689367041    -0.343574926183     0.066891417142    12.000000000000
         C           -3.842215632959     0.564314073817    -1.081603582858    12.000000000000
         C            1.205957367041     1.023116073817     0.173877417142    12.000000000000
         C            1.949816367041    -1.235441926183    -0.198600582858    12.000000000000
         C            2.514315367041     1.481791073817     0.023623417142    12.000000000000
         C            3.262111367041    -0.781546926183    -0.351847582858    12.000000000000
         C            3.548367367041     0.579737073817    -0.241800582858    12.000000000000
         H           -0.496749632959    -1.927065926183     0.189650417142     1.007825032230
         H           -3.214035632959    -1.247150926183    -0.109860582858     1.007825032230
         H           -1.129911632959     0.662936073817    -1.249938582858     1.007825032230
         H           -1.417653632959    -0.992744926183    -1.793771582858     1.007825032230
         H           -0.558773632959     0.243321073817     2.150050417142     1.007825032230
         H           -1.484858632959    -1.250317926183     2.130257417142     1.007825032230
         H           -3.304963632959     0.297628073817     1.816941417142     1.007825032230
         H           -2.273427632959     1.445117073817     0.956783417142     1.007825032230
         H           -3.476343632959     1.582484073817    -1.254439582858     1.007825032230
         H           -4.023189632959     0.100594073817    -2.056608582858     1.007825032230
         H           -4.801481632959     0.634022073817    -0.558476582858     1.007825032230
         H            0.408666367041     1.736247073817     0.380357417142     1.007825032230
         H            1.734015367041    -2.299663926183    -0.282680582858     1.007825032230
         H            2.728466367041     2.544637073817     0.112440417142     1.007825032230
         H            4.060072367041    -1.491971926183    -0.556267582858     1.007825032230
         H            4.568824367041     0.936441073817    -0.359028582858     1.007825032230

  Basis Set: AUG-CC-PVTZ
    Blend: AUG-CC-PVTZ
  Basis Set: (AUG-CC-PVTZ AUX)
    Blend: AUG-CC-PVTZ-JKFIT
	 Reference Energy          =    -463.8933714000105510 [Eh]
	 Singles Energy            =      -0.0000000000000000 [Eh]
	 Same-Spin Energy          =      -0.5196634651222110 [Eh]
	 Opposite-Spin Energy      =      -1.7265985224655016 [Eh]
	 Correlation Energy        =      -2.2462619875877126 [Eh]
	 Total Energy              =    -466.1396333875982805 [Eh]

	 ================> DF-SCS-MP2 Energies <==================
	-----------------------------------------------------------
	 SCS Same-Spin Scale       =       0.3333333333333333 [-]
	 SCS Opposite-Spin Scale   =       1.2000000000000000 [-]
	 SCS Same-Spin Energy      =      -0.1732211550407370 [Eh]
	 SCS Opposite-Spin Energy  =      -2.0719182269586018 [Eh]
	 SCS Correlation Energy    =      -2.2451393819993388 [Eh]
	 SCS Total Energy          =    -466.1385107820099165 [Eh]
	-----------------------------------------------------------

  Dipole Moment: [D]
     X:    -0.5577      Y:    -0.1908      Z:     0.0383     Total:     0.5907

*** Psi4 exiting successfully. Buy a developer a beer!
