                               Psi4 1.4a3.dev225

  ==> Input File <==

--------------------------------------------------------------------------
#psi4
#
memory 32 gb

molecule  {
0 1
  C       -0.4426020    -0.8338200     0.2172010
  C       -2.7550300    -0.2335230    -0.2686280
  C       -1.3607014    -0.3457259    -0.8997611
  C       -1.1456910    -0.3766540     1.5340440
  C       -2.4139240     0.3715680     1.0951880
  C        0.9762580    -0.3476150     0.0696660
  C       -3.7696470     0.5602740    -1.0788290
  C        1.2785260     1.0190760     0.1766520
  C        2.0223850    -1.2394820    -0.1958260
  C        2.5868840     1.4777510     0.0263980
  C        3.3346800    -0.7855870    -0.3490730
  C        3.6209360     0.5756970    -0.2390260
  H       -0.4241810    -1.9311060     0.1924250
  H       -3.1414670    -1.2511910    -0.1070860
  H       -1.0573430     0.6588960    -1.2471640
  H       -1.3450850    -0.9967850    -1.7909970
  H       -0.4862050     0.2392810     2.1528250
  H       -1.4122900    -1.2543580     2.1330320
  H       -3.2323950     0.2935880     1.8197160
  H       -2.2008590     1.4410770     0.9595580
  H       -3.4037750     1.5784440    -1.2516650
  H       -3.9506210     0.0965540    -2.0538340
  H       -4.7289130     0.6299820    -0.5557020
  H        0.4812350     1.7322070     0.3831320
  H        1.8065840    -2.3037040    -0.2799060
  H        2.8010350     2.5405970     0.1152150
  H        4.1326410    -1.4960120    -0.5534930
  H        4.6413930     0.9324010    -0.3562540
units angstrom
no_reorient  #important for SAPT in psi4, default
symmetry c1  #important for SAPT in psi4, default
}

set PROPERTIES_ORIGIN ["COM"]
properties('MP2/aug-cc-pvtz', properties = ['dipole'])
--------------------------------------------------------------------------

    Molecular point group: c1
  Charge       = 0
  Multiplicity = 1
  Basis Set: AUG-CC-PVTZ
    Blend: AUG-CC-PVTZ
  Basis Set: (AUG-CC-PVTZ AUX)
    Blend: AUG-CC-PVTZ-JKFIT

    Orbital Energies [Eh]
    ---------------------

    Doubly Occupied:

       1A    -11.236592     2A    -11.233626     3A    -11.232888
       4A    -11.229011     5A    -11.228514     6A    -11.228228
       7A    -11.227685     8A    -11.221310     9A    -11.216746
      10A    -11.215234    11A    -11.214718    12A    -11.211907
      13A     -1.156731    14A     -1.125443    15A     -1.039802
      16A     -1.008504    17A     -0.988292    18A     -0.954956
      19A     -0.892468    20A     -0.826356    21A     -0.816213
      22A     -0.763204    23A     -0.757058    24A     -0.690344
      25A     -0.660223    26A     -0.635649    27A     -0.622150
      28A     -0.606807    29A     -0.586111    30A     -0.579648
      31A     -0.573539    32A     -0.555954    33A     -0.527817
      34A     -0.511842    35A     -0.510443    36A     -0.489889
      37A     -0.474839    38A     -0.465259    39A     -0.461267
      40A     -0.452296    41A     -0.450546    42A     -0.442797
      43A     -0.332384    44A     -0.319196

  @DF-RHF Final Energy:  -463.89386329622727

   => Energetics <=

    Nuclear Repulsion Energy =            676.1908813540387655
    One-Electron Energy =               -1968.2205153905172210
    Two-Electron Energy =                 828.1357707402511323
    Total Energy =                       -463.8938632962273232
  Basis Set: (AUG-CC-PVTZ AUX)
    Blend: AUG-CC-PVTZ-RI
    Molecular point group: c1

    Geometry (in Angstrom), charge = 0, multiplicity = 1:

       Center              X                  Y                   Z               Mass
    ------------   -----------------  -----------------  -----------------  -----------------
         C           -0.514886005681    -0.827702911453     0.213376316349    12.000000000000
         C           -2.827314005681    -0.227405911453    -0.272452683651    12.000000000000
         C           -1.432985405681    -0.339608811453    -0.903585783651    12.000000000000
         C           -1.217975005681    -0.370536911453     1.530219316349    12.000000000000
         C           -2.486208005681     0.377685088547     1.091363316349    12.000000000000
         C            0.903973994319    -0.341497911453     0.065841316349    12.000000000000
         C           -3.841931005681     0.566391088547    -1.082653683651    12.000000000000
         C            1.206241994319     1.025193088547     0.172827316349    12.000000000000
         C            1.950100994319    -1.233364911453    -0.199650683651    12.000000000000
         C            2.514599994319     1.483868088547     0.022573316349    12.000000000000
         C            3.262395994319    -0.779469911453    -0.352897683651    12.000000000000
         C            3.548651994319     0.581814088547    -0.242850683651    12.000000000000
         H           -0.496465005681    -1.924988911453     0.188600316349     1.007825032230
         H           -3.213751005681    -1.245073911453    -0.110910683651     1.007825032230
         H           -1.129627005681     0.665013088547    -1.250988683651     1.007825032230
         H           -1.417369005681    -0.990667911453    -1.794821683651     1.007825032230
         H           -0.558489005681     0.245398088547     2.149000316349     1.007825032230
         H           -1.484574005681    -1.248240911453     2.129207316349     1.007825032230
         H           -3.304679005681     0.299705088547     1.815891316349     1.007825032230
         H           -2.273143005681     1.447194088547     0.955733316349     1.007825032230
         H           -3.476059005681     1.584561088547    -1.255489683651     1.007825032230
         H           -4.022905005681     0.102671088547    -2.057658683651     1.007825032230
         H           -4.801197005681     0.636099088547    -0.559526683651     1.007825032230
         H            0.408950994319     1.738324088547     0.379307316349     1.007825032230
         H            1.734299994319    -2.297586911453    -0.283730683651     1.007825032230
         H            2.728750994319     2.546714088547     0.111390316349     1.007825032230
         H            4.060356994319    -1.489894911453    -0.557317683651     1.007825032230
         H            4.569108994319     0.938518088547    -0.360078683651     1.007825032230

  Basis Set: AUG-CC-PVTZ
    Blend: AUG-CC-PVTZ
  Basis Set: (AUG-CC-PVTZ AUX)
    Blend: AUG-CC-PVTZ-JKFIT
	 Reference Energy          =    -463.8938632962272663 [Eh]
	 Singles Energy            =      -0.0000000000000000 [Eh]
	 Same-Spin Energy          =      -0.5196222009288971 [Eh]
	 Opposite-Spin Energy      =      -1.7265380585588666 [Eh]
	 Correlation Energy        =      -2.2461602594877634 [Eh]
	 Total Energy              =    -466.1400235557150040 [Eh]

	 ================> DF-SCS-MP2 Energies <==================
	-----------------------------------------------------------
	 SCS Same-Spin Scale       =       0.3333333333333333 [-]
	 SCS Opposite-Spin Scale   =       1.2000000000000000 [-]
	 SCS Same-Spin Energy      =      -0.1732074003096324 [Eh]
	 SCS Opposite-Spin Energy  =      -2.0718456702706396 [Eh]
	 SCS Correlation Energy    =      -2.2450530705802718 [Eh]
	 SCS Total Energy          =    -466.1389163668075639 [Eh]
	-----------------------------------------------------------

  Dipole Moment: [D]
     X:    -0.5676      Y:    -0.1990      Z:     0.0395     Total:     0.6028

*** Psi4 exiting successfully. Buy a developer a beer!
