                               Psi4 1.4a3.dev225

  ==> Input File <==

--------------------------------------------------------------------------
#psi4
#
memory 32 gb

molecule  {
0 1
  C       -0.4426020    -0.8338200     0.2172010
  C       -2.7550300    -0.2335230    -0.2686280
  C       -1.3727340    -0.3393290    -0.9144000
  C       -1.1456910    -0.3766540     1.5340440
  C       -2.4139240     0.3715680     1.0951880
  C        0.9762580    -0.3476150     0.0696660
  C       -3.7696470     0.5602740    -1.0788290
  C        1.2785260     1.0190760     0.1766520
  C        2.0223850    -1.2394820    -0.1958260
  C        2.5868840     1.4777510     0.0263980
  C        3.3346800    -0.7855870    -0.3490730
  C        3.6209360     0.5756970    -0.2390260
  H       -0.4241810    -1.9311060     0.1924250
  H       -3.1414670    -1.2511910    -0.1070860
  H       -1.0573430     0.6588960    -1.2471640
  H       -1.3450850    -0.9967850    -1.7909970
  H       -0.4741504     0.2505396     2.1641356
  H       -1.4122900    -1.2543580     2.1330320
  H       -3.2323950     0.2935880     1.8197160
  H       -2.2008590     1.4410770     0.9595580
  H       -3.4037750     1.5784440    -1.2516650
  H       -3.9506210     0.0965540    -2.0538340
  H       -4.7289130     0.6299820    -0.5557020
  H        0.4812350     1.7322070     0.3831320
  H        1.8065840    -2.3037040    -0.2799060
  H        2.8010350     2.5405970     0.1152150
  H        4.1326410    -1.4960120    -0.5534930
  H        4.6413930     0.9324010    -0.3562540
units angstrom
no_reorient  #important for SAPT in psi4, default
symmetry c1  #important for SAPT in psi4, default
}

set PROPERTIES_ORIGIN ["COM"]
properties('MP2/aug-cc-pvtz', properties = ['dipole'])
--------------------------------------------------------------------------

    Molecular point group: c1
  Charge       = 0
  Multiplicity = 1
  Basis Set: AUG-CC-PVTZ
    Blend: AUG-CC-PVTZ
  Basis Set: (AUG-CC-PVTZ AUX)
    Blend: AUG-CC-PVTZ-JKFIT

    Orbital Energies [Eh]
    ---------------------

    Doubly Occupied:

       1A    -11.236485     2A    -11.233531     3A    -11.232801
       4A    -11.228886     5A    -11.228593     6A    -11.228362
       7A    -11.228088     8A    -11.221322     9A    -11.219077
      10A    -11.215102    11A    -11.214871    12A    -11.211703
      13A     -1.155956    14A     -1.124808    15A     -1.039487
      16A     -1.008391    17A     -0.988001    18A     -0.953694
      19A     -0.892385    20A     -0.826119    21A     -0.815923
      22A     -0.763715    23A     -0.756383    24A     -0.689607
      25A     -0.660559    26A     -0.634826    27A     -0.621723
      28A     -0.605984    29A     -0.585976    30A     -0.579925
      31A     -0.573504    32A     -0.555753    33A     -0.528558
      34A     -0.510683    35A     -0.509820    36A     -0.489914
      37A     -0.474953    38A     -0.463499    39A     -0.461400
      40A     -0.453838    41A     -0.449724    42A     -0.443705
      43A     -0.332288    44A     -0.318755

  @DF-RHF Final Energy:  -463.89382276061070

   => Energetics <=

    Nuclear Repulsion Energy =            675.8484456804316096
    One-Electron Energy =               -1967.5471816505742026
    Two-Electron Energy =                 827.8049132095318328
    Total Energy =                       -463.8938227606106466
  Basis Set: (AUG-CC-PVTZ AUX)
    Blend: AUG-CC-PVTZ-RI
    Molecular point group: c1

    Geometry (in Angstrom), charge = 0, multiplicity = 1:

       Center              X                  Y                   Z               Mass
    ------------   -----------------  -----------------  -----------------  -----------------
         C           -0.514060137723    -0.828253165246     0.214402186691    12.000000000000
         C           -2.826488137723    -0.227956165246    -0.271426813309    12.000000000000
         C           -1.444192137723    -0.333762165246    -0.917198813309    12.000000000000
         C           -1.217149137723    -0.371087165246     1.531245186691    12.000000000000
         C           -2.485382137723     0.377134834754     1.092389186691    12.000000000000
         C            0.904799862277    -0.342048165246     0.066867186691    12.000000000000
         C           -3.841105137723     0.565840834754    -1.081627813309    12.000000000000
         C            1.207067862277     1.024642834754     0.173853186691    12.000000000000
         C            1.950926862277    -1.233915165246    -0.198624813309    12.000000000000
         C            2.515425862277     1.483317834754     0.023599186691    12.000000000000
         C            3.263221862277    -0.780020165246    -0.351871813309    12.000000000000
         C            3.549477862277     0.581263834754    -0.241824813309    12.000000000000
         H           -0.495639137723    -1.925539165246     0.189626186691     1.007825032230
         H           -3.212925137723    -1.245624165246    -0.109884813309     1.007825032230
         H           -1.128801137723     0.664462834754    -1.249962813309     1.007825032230
         H           -1.416543137723    -0.991218165246    -1.793795813309     1.007825032230
         H           -0.545608537723     0.256106434754     2.161336786691     1.007825032230
         H           -1.483748137723    -1.248791165246     2.130233186691     1.007825032230
         H           -3.303853137723     0.299154834754     1.816917186691     1.007825032230
         H           -2.272317137723     1.446643834754     0.956759186691     1.007825032230
         H           -3.475233137723     1.584010834754    -1.254463813309     1.007825032230
         H           -4.022079137723     0.102120834754    -2.056632813309     1.007825032230
         H           -4.800371137723     0.635548834754    -0.558500813309     1.007825032230
         H            0.409776862277     1.737773834754     0.380333186691     1.007825032230
         H            1.735125862277    -2.298137165246    -0.282704813309     1.007825032230
         H            2.729576862277     2.546163834754     0.112416186691     1.007825032230
         H            4.061182862277    -1.490445165246    -0.556291813309     1.007825032230
         H            4.569934862277     0.937967834754    -0.359052813309     1.007825032230

  Basis Set: AUG-CC-PVTZ
    Blend: AUG-CC-PVTZ
  Basis Set: (AUG-CC-PVTZ AUX)
    Blend: AUG-CC-PVTZ-JKFIT
	 Reference Energy          =    -463.8938227606107034 [Eh]
	 Singles Energy            =      -0.0000000000000000 [Eh]
	 Same-Spin Energy          =      -0.5195372525864238 [Eh]
	 Opposite-Spin Energy      =      -1.7266071571570933 [Eh]
	 Correlation Energy        =      -2.2461444097435170 [Eh]
	 Total Energy              =    -466.1399671703542253 [Eh]

	 ================> DF-SCS-MP2 Energies <==================
	-----------------------------------------------------------
	 SCS Same-Spin Scale       =       0.3333333333333333 [-]
	 SCS Opposite-Spin Scale   =       1.2000000000000000 [-]
	 SCS Same-Spin Energy      =      -0.1731790841954746 [Eh]
	 SCS Opposite-Spin Energy  =      -2.0719285885885119 [Eh]
	 SCS Correlation Energy    =      -2.2451076727839867 [Eh]
	 SCS Total Energy          =    -466.1389304333947052 [Eh]
	-----------------------------------------------------------

  Dipole Moment: [D]
     X:    -0.5785      Y:    -0.2058      Z:     0.0273     Total:     0.6146

*** Psi4 exiting successfully. Buy a developer a beer!
