                               Psi4 1.4a3.dev225

  ==> Input File <==

--------------------------------------------------------------------------
#psi4
#
memory 32 gb

molecule  {
0 1
  C       -0.4426020    -0.8338200     0.2172010
  C       -2.7550300    -0.2335230    -0.2686280
  C       -1.3727340    -0.3393290    -0.9144000
  C       -1.1456910    -0.3766540     1.5340440
  C       -2.4139240     0.3715680     1.0951880
  C        0.8821124    -0.3798761     0.0794554
  C       -3.7696470     0.5602740    -1.0788290
  C        1.2785260     1.0190760     0.1766520
  C        2.0223850    -1.2394820    -0.1958260
  C        2.5868840     1.4777510     0.0263980
  C        3.3346800    -0.7855870    -0.3490730
  C        3.6209360     0.5756970    -0.2390260
  H       -0.4241810    -1.9311060     0.1924250
  H       -3.1414670    -1.2511910    -0.1070860
  H       -1.0573430     0.6588960    -1.2471640
  H       -1.3450850    -0.9967850    -1.7909970
  H       -0.4862050     0.2392810     2.1528250
  H       -1.4122900    -1.2543580     2.1330320
  H       -3.2323950     0.2935880     1.8197160
  H       -2.2008590     1.4410770     0.9595580
  H       -3.4037750     1.5784440    -1.2516650
  H       -3.9506210     0.0965540    -2.0538340
  H       -4.7289130     0.6299820    -0.5557020
  H        0.4812350     1.7322070     0.3831320
  H        1.8065840    -2.3037040    -0.2799060
  H        2.8010350     2.5405970     0.1152150
  H        4.1326410    -1.4960120    -0.5534930
  H        4.6413930     0.9324010    -0.3562540
units angstrom
no_reorient  #important for SAPT in psi4, default
symmetry c1  #important for SAPT in psi4, default
}

set PROPERTIES_ORIGIN ["COM"]
properties('MP2/aug-cc-pvtz', properties = ['dipole'])
--------------------------------------------------------------------------

    Molecular point group: c1
  Charge       = 0
  Multiplicity = 1
  Basis Set: AUG-CC-PVTZ
    Blend: AUG-CC-PVTZ
  Basis Set: (AUG-CC-PVTZ AUX)
    Blend: AUG-CC-PVTZ-JKFIT

    Orbital Energies [Eh]
    ---------------------

    Doubly Occupied:

       1A    -11.244282     2A    -11.233751     3A    -11.233581
       4A    -11.232525     5A    -11.231985     6A    -11.228826
       7A    -11.224747     8A    -11.222862     9A    -11.219406
      10A    -11.217721    11A    -11.216568    12A    -11.212828
      13A     -1.156937    14A     -1.122818    15A     -1.049090
      16A     -1.003373    17A     -0.987687    18A     -0.953424
      19A     -0.897949    20A     -0.828533    21A     -0.814734
      22A     -0.765722    23A     -0.757295    24A     -0.687499
      25A     -0.664285    26A     -0.643223    27A     -0.622110
      28A     -0.605153    29A     -0.585545    30A     -0.575264
      31A     -0.572963    32A     -0.558972    33A     -0.529474
      34A     -0.513638    35A     -0.510390    36A     -0.485372
      37A     -0.481118    38A     -0.466950    39A     -0.464039
      40A     -0.457038    41A     -0.449393    42A     -0.443198
      43A     -0.330465    44A     -0.307877

  @DF-RHF Final Energy:  -463.87796263812140

   => Energetics <=

    Nuclear Repulsion Energy =            676.0314775172518011
    One-Electron Energy =               -1967.7976551472818301
    Two-Electron Energy =                 827.8882149919087396
    Total Energy =                       -463.8779626381214030
  Basis Set: (AUG-CC-PVTZ AUX)
    Blend: AUG-CC-PVTZ-RI
    Molecular point group: c1

    Geometry (in Angstrom), charge = 0, multiplicity = 1:

       Center              X                  Y                   Z               Mass
    ------------   -----------------  -----------------  -----------------  -----------------
         C           -0.506928867168    -0.825764613178     0.213739744466    12.000000000000
         C           -2.819356867168    -0.225467613178    -0.272089255534    12.000000000000
         C           -1.437060867168    -0.331273613178    -0.917861255534    12.000000000000
         C           -1.210017867168    -0.368598613178     1.530582744466    12.000000000000
         C           -2.478250867168     0.379623386822     1.091726744466    12.000000000000
         C            0.817785532832    -0.371820713178     0.075994144466    12.000000000000
         C           -3.833973867168     0.568329386822    -1.082290255534    12.000000000000
         C            1.214199132832     1.027131386822     0.173190744466    12.000000000000
         C            1.958058132832    -1.231426613178    -0.199287255534    12.000000000000
         C            2.522557132832     1.485806386822     0.022936744466    12.000000000000
         C            3.270353132832    -0.777531613178    -0.352534255534    12.000000000000
         C            3.556609132832     0.583752386822    -0.242487255534    12.000000000000
         H           -0.488507867168    -1.923050613178     0.188963744466     1.007825032230
         H           -3.205793867168    -1.243135613178    -0.110547255534     1.007825032230
         H           -1.121669867168     0.666951386822    -1.250625255534     1.007825032230
         H           -1.409411867168    -0.988729613178    -1.794458255534     1.007825032230
         H           -0.550531867168     0.247336386822     2.149363744466     1.007825032230
         H           -1.476616867168    -1.246302613178     2.129570744466     1.007825032230
         H           -3.296721867168     0.301643386822     1.816254744466     1.007825032230
         H           -2.265185867168     1.449132386822     0.956096744466     1.007825032230
         H           -3.468101867168     1.586499386822    -1.255126255534     1.007825032230
         H           -4.014947867168     0.104609386822    -2.057295255534     1.007825032230
         H           -4.793239867168     0.638037386822    -0.559163255534     1.007825032230
         H            0.416908132832     1.740262386822     0.379670744466     1.007825032230
         H            1.742257132832    -2.295648613178    -0.283367255534     1.007825032230
         H            2.736708132832     2.548652386822     0.111753744466     1.007825032230
         H            4.068314132832    -1.487956613178    -0.556954255534     1.007825032230
         H            4.577066132832     0.940456386822    -0.359715255534     1.007825032230

  Basis Set: AUG-CC-PVTZ
    Blend: AUG-CC-PVTZ
  Basis Set: (AUG-CC-PVTZ AUX)
    Blend: AUG-CC-PVTZ-JKFIT
	 Reference Energy          =    -463.8779626381214030 [Eh]
	 Singles Energy            =      -0.0000000000000000 [Eh]
	 Same-Spin Energy          =      -0.5212935699579071 [Eh]
	 Opposite-Spin Energy      =      -1.7293669347123508 [Eh]
	 Correlation Energy        =      -2.2506605046702579 [Eh]
	 Total Energy              =    -466.1286231427916391 [Eh]

	 ================> DF-SCS-MP2 Energies <==================
	-----------------------------------------------------------
	 SCS Same-Spin Scale       =       0.3333333333333333 [-]
	 SCS Opposite-Spin Scale   =       1.2000000000000000 [-]
	 SCS Same-Spin Energy      =      -0.1737645233193024 [Eh]
	 SCS Opposite-Spin Energy  =      -2.0752403216548210 [Eh]
	 SCS Correlation Energy    =      -2.2490048449741233 [Eh]
	 SCS Total Energy          =    -466.1269674830955410 [Eh]
	-----------------------------------------------------------

  Dipole Moment: [D]
     X:    -0.7953      Y:    -0.2175      Z:     0.0535     Total:     0.8263

*** Psi4 exiting successfully. Buy a developer a beer!
