                               Psi4 1.4a3.dev225

  ==> Input File <==

--------------------------------------------------------------------------
#psi4
#
memory 32 gb

molecule  {
0 1
  C       -0.4426020    -0.8338200     0.2172010
  C       -2.7550300    -0.2335230    -0.2686280
  C       -1.3727340    -0.3393290    -0.9144000
  C       -1.1456910    -0.3766540     1.5340440
  C       -2.4139240     0.3715680     1.0951880
  C        1.0704036    -0.3153539     0.0598766
  C       -3.7696470     0.5602740    -1.0788290
  C        1.2785260     1.0190760     0.1766520
  C        2.0223850    -1.2394820    -0.1958260
  C        2.5868840     1.4777510     0.0263980
  C        3.3346800    -0.7855870    -0.3490730
  C        3.6209360     0.5756970    -0.2390260
  H       -0.4241810    -1.9311060     0.1924250
  H       -3.1414670    -1.2511910    -0.1070860
  H       -1.0573430     0.6588960    -1.2471640
  H       -1.3450850    -0.9967850    -1.7909970
  H       -0.4862050     0.2392810     2.1528250
  H       -1.4122900    -1.2543580     2.1330320
  H       -3.2323950     0.2935880     1.8197160
  H       -2.2008590     1.4410770     0.9595580
  H       -3.4037750     1.5784440    -1.2516650
  H       -3.9506210     0.0965540    -2.0538340
  H       -4.7289130     0.6299820    -0.5557020
  H        0.4812350     1.7322070     0.3831320
  H        1.8065840    -2.3037040    -0.2799060
  H        2.8010350     2.5405970     0.1152150
  H        4.1326410    -1.4960120    -0.5534930
  H        4.6413930     0.9324010    -0.3562540
units angstrom
no_reorient  #important for SAPT in psi4, default
symmetry c1  #important for SAPT in psi4, default
}

set PROPERTIES_ORIGIN ["COM"]
properties('MP2/aug-cc-pvtz', properties = ['dipole'])
--------------------------------------------------------------------------

    Molecular point group: c1
  Charge       = 0
  Multiplicity = 1
  Basis Set: AUG-CC-PVTZ
    Blend: AUG-CC-PVTZ
  Basis Set: (AUG-CC-PVTZ AUX)
    Blend: AUG-CC-PVTZ-JKFIT

    Orbital Energies [Eh]
    ---------------------

    Doubly Occupied:

       1A    -11.234183     2A    -11.233424     3A    -11.230444
       4A    -11.229828     5A    -11.228380     6A    -11.224016
       7A    -11.223383     8A    -11.219783     9A    -11.214618
      10A    -11.213477    11A    -11.212493    12A    -11.210567
      13A     -1.161563    14A     -1.124464    15A     -1.032774
      16A     -1.014867    17A     -0.989493    18A     -0.952728
      19A     -0.888323    20A     -0.830507    21A     -0.812794
      22A     -0.761869    23A     -0.755948    24A     -0.692731
      25A     -0.657402    26A     -0.630255    27A     -0.624799
      28A     -0.605748    29A     -0.592433    30A     -0.581027
      31A     -0.571477    32A     -0.553529    33A     -0.528089
      34A     -0.513356    35A     -0.508513    36A     -0.499015
      37A     -0.471592    38A     -0.461872    39A     -0.459488
      40A     -0.450074    41A     -0.447286    42A     -0.428489
      43A     -0.334583    44A     -0.327726

  @DF-RHF Final Energy:  -463.88539952238102

   => Energetics <=

    Nuclear Repulsion Energy =            676.0199131737144853
    One-Electron Energy =               -1967.9318045789332245
    Two-Electron Energy =                 828.0264918828377176
    Total Energy =                       -463.8853995223810216
  Basis Set: (AUG-CC-PVTZ AUX)
    Blend: AUG-CC-PVTZ-RI
    Molecular point group: c1

    Geometry (in Angstrom), charge = 0, multiplicity = 1:

       Center              X                  Y                   Z               Mass
    ------------   -----------------  -----------------  -----------------  -----------------
         C           -0.521039665422    -0.830599994477     0.215207006329    12.000000000000
         C           -2.833467665422    -0.230302994477    -0.270621993671    12.000000000000
         C           -1.451171665422    -0.336108994477    -0.916393993671    12.000000000000
         C           -1.224128665422    -0.373433994477     1.532050006329    12.000000000000
         C           -2.492361665422     0.374788005523     1.093194006329    12.000000000000
         C            0.991965934578    -0.312133894477     0.057882606329    12.000000000000
         C           -3.848084665422     0.563494005523    -1.080822993671    12.000000000000
         C            1.200088334578     1.022296005523     0.174658006329    12.000000000000
         C            1.943947334578    -1.236261994477    -0.197819993671    12.000000000000
         C            2.508446334578     1.480971005523     0.024404006329    12.000000000000
         C            3.256242334578    -0.782366994477    -0.351066993671    12.000000000000
         C            3.542498334578     0.578917005523    -0.241019993671    12.000000000000
         H           -0.502618665422    -1.927885994477     0.190431006329     1.007825032230
         H           -3.219904665422    -1.247970994477    -0.109079993671     1.007825032230
         H           -1.135780665422     0.662116005523    -1.249157993671     1.007825032230
         H           -1.423522665422    -0.993564994477    -1.792990993671     1.007825032230
         H           -0.564642665422     0.242501005523     2.150831006329     1.007825032230
         H           -1.490727665422    -1.251137994477     2.131038006329     1.007825032230
         H           -3.310832665422     0.296808005523     1.817722006329     1.007825032230
         H           -2.279296665422     1.444297005523     0.957564006329     1.007825032230
         H           -3.482212665422     1.581664005523    -1.253658993671     1.007825032230
         H           -4.029058665422     0.099774005523    -2.055827993671     1.007825032230
         H           -4.807350665422     0.633202005523    -0.557695993671     1.007825032230
         H            0.402797334578     1.735427005523     0.381138006329     1.007825032230
         H            1.728146334578    -2.300483994477    -0.281899993671     1.007825032230
         H            2.722597334578     2.543817005523     0.113221006329     1.007825032230
         H            4.054203334578    -1.492791994477    -0.555486993671     1.007825032230
         H            4.562955334578     0.935621005523    -0.358247993671     1.007825032230

  Basis Set: AUG-CC-PVTZ
    Blend: AUG-CC-PVTZ
  Basis Set: (AUG-CC-PVTZ AUX)
    Blend: AUG-CC-PVTZ-JKFIT
	 Reference Energy          =    -463.8853995223810216 [Eh]
	 Singles Energy            =      -0.0000000000000000 [Eh]
	 Same-Spin Energy          =      -0.5189880195326760 [Eh]
	 Opposite-Spin Energy      =      -1.7256321783513706 [Eh]
	 Correlation Energy        =      -2.2446201978840468 [Eh]
	 Total Energy              =    -466.1300197202650679 [Eh]

	 ================> DF-SCS-MP2 Energies <==================
	-----------------------------------------------------------
	 SCS Same-Spin Scale       =       0.3333333333333333 [-]
	 SCS Opposite-Spin Scale   =       1.2000000000000000 [-]
	 SCS Same-Spin Energy      =      -0.1729960065108920 [Eh]
	 SCS Opposite-Spin Energy  =      -2.0707586140216447 [Eh]
	 SCS Correlation Energy    =      -2.2437546205325369 [Eh]
	 SCS Total Energy          =    -466.1291541429135350 [Eh]
	-----------------------------------------------------------

  Dipole Moment: [D]
     X:    -0.3911      Y:    -0.1906      Z:     0.0241     Total:     0.4358

*** Psi4 exiting successfully. Buy a developer a beer!
