                               Psi4 1.4a3.dev225

  ==> Input File <==

--------------------------------------------------------------------------
#psi4
#
memory 32 gb

molecule  {
0 1
  C       -0.4426020    -0.8338200     0.2172010
  C       -2.7550300    -0.2335230    -0.2686280
  C       -1.3727340    -0.3393290    -0.9144000
  C       -1.1456910    -0.3766540     1.5340440
  C       -2.4139240     0.3715680     1.0951880
  C        0.9762580    -0.3476150     0.0696660
  C       -3.7696470     0.5602740    -1.0788290
  C        1.2785260     1.0190760     0.1766520
  C        2.0223850    -1.2394820    -0.1958260
  C        2.5868840     1.4777510     0.0263980
  C        3.3346800    -0.7855870    -0.3490730
  C        3.6209360     0.5756970    -0.2390260
  H       -0.4241810    -1.9311060     0.1924250
  H       -3.1414670    -1.2511910    -0.1070860
  H       -1.0573430     0.6588960    -1.2471640
  H       -1.3450850    -0.9967850    -1.7909970
  H       -0.4862050     0.2392810     2.1528250
  H       -1.4122900    -1.2543580     2.1330320
  H       -3.2323950     0.2935880     1.8197160
  H       -2.2008590     1.4410770     0.9595580
  H       -3.4037750     1.5784440    -1.2516650
  H       -3.9506210     0.0965540    -2.0538340
  H       -4.7289130     0.6299820    -0.5557020
  H        0.4812350     1.7322070     0.3831320
  H        1.8065840    -2.3037040    -0.2799060
  H        2.8010350     2.5405970     0.1152150
  H        4.0959621    -1.4633567    -0.5440967
  H        4.6413930     0.9324010    -0.3562540
units angstrom
no_reorient  #important for SAPT in psi4, default
symmetry c1  #important for SAPT in psi4, default
}

set PROPERTIES_ORIGIN ["COM"]
properties('MP2/aug-cc-pvtz', properties = ['dipole'])
--------------------------------------------------------------------------

    Molecular point group: c1
  Charge       = 0
  Multiplicity = 1
  Basis Set: AUG-CC-PVTZ
    Blend: AUG-CC-PVTZ
  Basis Set: (AUG-CC-PVTZ AUX)
    Blend: AUG-CC-PVTZ-JKFIT

    Orbital Energies [Eh]
    ---------------------

    Doubly Occupied:

       1A    -11.236165     2A    -11.233245     3A    -11.228793
       4A    -11.228249     5A    -11.228176     6A    -11.227965
       7A    -11.226281     8A    -11.221076     9A    -11.216572
      10A    -11.214790    11A    -11.214619    12A    -11.211515
      13A     -1.155920    14A     -1.124824    15A     -1.039616
      16A     -1.009637    17A     -0.988487    18A     -0.953669
      19A     -0.892529    20A     -0.829079    21A     -0.815977
      22A     -0.763495    23A     -0.759322    24A     -0.690601
      25A     -0.660372    26A     -0.637883    27A     -0.621743
      28A     -0.608544    29A     -0.586919    30A     -0.581492
      31A     -0.573400    32A     -0.556025    33A     -0.528444
      34A     -0.511488    35A     -0.509783    36A     -0.491010
      37A     -0.475179    38A     -0.463254    39A     -0.461389
      40A     -0.453627    41A     -0.450216    42A     -0.443829
      43A     -0.332102    44A     -0.318537

  @DF-RHF Final Energy:  -463.89363222359805

   => Energetics <=

    Nuclear Repulsion Energy =            676.2086283154897046
    One-Electron Energy =               -1968.2528495414444478
    Two-Electron Energy =                 828.1505890023566963
    Total Energy =                       -463.8936322235980469
  Basis Set: (AUG-CC-PVTZ AUX)
    Blend: AUG-CC-PVTZ-RI
    Molecular point group: c1

    Geometry (in Angstrom), charge = 0, multiplicity = 1:

       Center              X                  Y                   Z               Mass
    ------------   -----------------  -----------------  -----------------  -----------------
         C           -0.513753409981    -0.828387835678     0.214414235260    12.000000000000
         C           -2.826181409981    -0.228090835678    -0.271414764740    12.000000000000
         C           -1.443885409981    -0.333896835678    -0.917186764740    12.000000000000
         C           -1.216842409981    -0.371221835678     1.531257235260    12.000000000000
         C           -2.485075409981     0.377000164322     1.092401235260    12.000000000000
         C            0.905106590019    -0.342182835678     0.066879235260    12.000000000000
         C           -3.840798409981     0.565706164322    -1.081615764740    12.000000000000
         C            1.207374590019     1.024508164322     0.173865235260    12.000000000000
         C            1.951233590019    -1.234049835678    -0.198612764740    12.000000000000
         C            2.515732590019     1.483183164322     0.023611235260    12.000000000000
         C            3.263528590019    -0.780154835678    -0.351859764740    12.000000000000
         C            3.549784590019     0.581129164322    -0.241812764740    12.000000000000
         H           -0.495332409981    -1.925673835678     0.189638235260     1.007825032230
         H           -3.212618409981    -1.245758835678    -0.109872764740     1.007825032230
         H           -1.128494409981     0.664328164322    -1.249950764740     1.007825032230
         H           -1.416236409981    -0.991352835678    -1.793783764740     1.007825032230
         H           -0.557356409981     0.244713164322     2.150038235260     1.007825032230
         H           -1.483441409981    -1.248925835678     2.130245235260     1.007825032230
         H           -3.303546409981     0.299020164322     1.816929235260     1.007825032230
         H           -2.272010409981     1.446509164322     0.956771235260     1.007825032230
         H           -3.474926409981     1.583876164322    -1.254451764740     1.007825032230
         H           -4.021772409981     0.101986164322    -2.056620764740     1.007825032230
         H           -4.800064409981     0.635414164322    -0.558488764740     1.007825032230
         H            0.410083590019     1.737639164322     0.380345235260     1.007825032230
         H            1.735432590019    -2.298271835678    -0.282692764740     1.007825032230
         H            2.729883590019     2.546029164322     0.112428235260     1.007825032230
         H            4.024810690019    -1.457924535678    -0.546883464740     1.007825032230
         H            4.570241590019     0.937833164322    -0.359040764740     1.007825032230

  Basis Set: AUG-CC-PVTZ
    Blend: AUG-CC-PVTZ
  Basis Set: (AUG-CC-PVTZ AUX)
    Blend: AUG-CC-PVTZ-JKFIT
	 Reference Energy          =    -463.8936322235980469 [Eh]
	 Singles Energy            =      -0.0000000000000000 [Eh]
	 Same-Spin Energy          =      -0.5194292258416369 [Eh]
	 Opposite-Spin Energy      =      -1.7261065761378178 [Eh]
	 Correlation Energy        =      -2.2455358019794547 [Eh]
	 Total Energy              =    -466.1391680255774759 [Eh]

	 ================> DF-SCS-MP2 Energies <==================
	-----------------------------------------------------------
	 SCS Same-Spin Scale       =       0.3333333333333333 [-]
	 SCS Opposite-Spin Scale   =       1.2000000000000000 [-]
	 SCS Same-Spin Energy      =      -0.1731430752805456 [Eh]
	 SCS Opposite-Spin Energy  =      -2.0713278913653812 [Eh]
	 SCS Correlation Energy    =      -2.2444709666459266 [Eh]
	 SCS Total Energy          =    -466.1381031902439531 [Eh]
	-----------------------------------------------------------

  Dipole Moment: [D]
     X:    -0.5505      Y:    -0.2149      Z:     0.0334     Total:     0.5919

*** Psi4 exiting successfully. Buy a developer a beer!
