                               Psi4 1.4a3.dev225

  ==> Input File <==

--------------------------------------------------------------------------
#psi4
#
memory 32 gb

molecule  {
0 1
  C       -0.4426020    -0.8338200     0.2172010
  C       -2.7550300    -0.2335230    -0.2686280
  C       -1.3518937    -0.3262718    -0.9255024
  C       -1.1456910    -0.3766540     1.5340440
  C       -2.4139240     0.3715680     1.0951880
  C        0.9762580    -0.3476150     0.0696660
  C       -3.7696470     0.5602740    -1.0788290
  C        1.2785260     1.0190760     0.1766520
  C        2.0223850    -1.2394820    -0.1958260
  C        2.5868840     1.4777510     0.0263980
  C        3.3346800    -0.7855870    -0.3490730
  C        3.6209360     0.5756970    -0.2390260
  H       -0.4241810    -1.9311060     0.1924250
  H       -3.1414670    -1.2511910    -0.1070860
  H       -1.0573430     0.6588960    -1.2471640
  H       -1.3450850    -0.9967850    -1.7909970
  H       -0.4862050     0.2392810     2.1528250
  H       -1.4122900    -1.2543580     2.1330320
  H       -3.2323950     0.2935880     1.8197160
  H       -2.2008590     1.4410770     0.9595580
  H       -3.4037750     1.5784440    -1.2516650
  H       -3.9506210     0.0965540    -2.0538340
  H       -4.7289130     0.6299820    -0.5557020
  H        0.4812350     1.7322070     0.3831320
  H        1.8065840    -2.3037040    -0.2799060
  H        2.8010350     2.5405970     0.1152150
  H        4.1326410    -1.4960120    -0.5534930
  H        4.6413930     0.9324010    -0.3562540
units angstrom
no_reorient  #important for SAPT in psi4, default
symmetry c1  #important for SAPT in psi4, default
}

set PROPERTIES_ORIGIN ["COM"]
properties('MP2/aug-cc-pvtz', properties = ['dipole'])
--------------------------------------------------------------------------

    Molecular point group: c1
  Charge       = 0
  Multiplicity = 1
  Basis Set: AUG-CC-PVTZ
    Blend: AUG-CC-PVTZ
  Basis Set: (AUG-CC-PVTZ AUX)
    Blend: AUG-CC-PVTZ-JKFIT

    Orbital Energies [Eh]
    ---------------------

    Doubly Occupied:

       1A    -11.236244     2A    -11.233536     3A    -11.232746
       4A    -11.228685     5A    -11.228524     6A    -11.228225
       7A    -11.227826     8A    -11.222079     9A    -11.216770
      10A    -11.214785    11A    -11.213939    12A    -11.211328
      13A     -1.155606    14A     -1.123152    15A     -1.038991
      16A     -1.008303    17A     -0.987989    18A     -0.954042
      19A     -0.891912    20A     -0.826440    21A     -0.816017
      22A     -0.764481    23A     -0.757032    24A     -0.689662
      25A     -0.659680    26A     -0.634806    27A     -0.621378
      28A     -0.605934    29A     -0.586334    30A     -0.580512
      31A     -0.574223    32A     -0.556146    33A     -0.529778
      34A     -0.511092    35A     -0.510342    36A     -0.490289
      37A     -0.473854    38A     -0.464999    39A     -0.461485
      40A     -0.455566    41A     -0.450346    42A     -0.439584
      43A     -0.332286    44A     -0.318386

  @DF-RHF Final Energy:  -463.89389812621960

   => Energetics <=

    Nuclear Repulsion Energy =            675.8164080994247342
    One-Electron Energy =               -1967.4899436743917249
    Two-Electron Energy =                 827.7796374487473940
    Total Energy =                       -463.8938981262195966
  Basis Set: (AUG-CC-PVTZ AUX)
    Blend: AUG-CC-PVTZ-RI
    Molecular point group: c1

    Geometry (in Angstrom), charge = 0, multiplicity = 1:

       Center              X                  Y                   Z               Mass
    ------------   -----------------  -----------------  -----------------  -----------------
         C           -0.515546066681    -0.829160828129     0.215305404332    12.000000000000
         C           -2.827974066681    -0.228863828129    -0.270523595668    12.000000000000
         C           -1.424837766681    -0.321612628129    -0.927397995668    12.000000000000
         C           -1.218635066681    -0.371994828129     1.532148404332    12.000000000000
         C           -2.486868066681     0.376227171871     1.093292404332    12.000000000000
         C            0.903313933319    -0.342955828129     0.067770404332    12.000000000000
         C           -3.842591066681     0.564933171871    -1.080724595668    12.000000000000
         C            1.205581933319     1.023735171871     0.174756404332    12.000000000000
         C            1.949440933319    -1.234822828129    -0.197721595668    12.000000000000
         C            2.513939933319     1.482410171871     0.024502404332    12.000000000000
         C            3.261735933319    -0.780927828129    -0.350968595668    12.000000000000
         C            3.547991933319     0.580356171871    -0.240921595668    12.000000000000
         H           -0.497125066681    -1.926446828129     0.190529404332     1.007825032230
         H           -3.214411066681    -1.246531828129    -0.108981595668     1.007825032230
         H           -1.130287066681     0.663555171871    -1.249059595668     1.007825032230
         H           -1.418029066681    -0.992125828129    -1.792892595668     1.007825032230
         H           -0.559149066681     0.243940171871     2.150929404332     1.007825032230
         H           -1.485234066681    -1.249698828129     2.131136404332     1.007825032230
         H           -3.305339066681     0.298247171871     1.817820404332     1.007825032230
         H           -2.273803066681     1.445736171871     0.957662404332     1.007825032230
         H           -3.476719066681     1.583103171871    -1.253560595668     1.007825032230
         H           -4.023565066681     0.101213171871    -2.055729595668     1.007825032230
         H           -4.801857066681     0.634641171871    -0.557597595668     1.007825032230
         H            0.408290933319     1.736866171871     0.381236404332     1.007825032230
         H            1.733639933319    -2.299044828129    -0.281801595668     1.007825032230
         H            2.728090933319     2.545256171871     0.113319404332     1.007825032230
         H            4.059696933319    -1.491352828129    -0.555388595668     1.007825032230
         H            4.568448933319     0.937060171871    -0.358149595668     1.007825032230

  Basis Set: AUG-CC-PVTZ
    Blend: AUG-CC-PVTZ
  Basis Set: (AUG-CC-PVTZ AUX)
    Blend: AUG-CC-PVTZ-JKFIT
	 Reference Energy          =    -463.8938981262195966 [Eh]
	 Singles Energy            =      -0.0000000000000000 [Eh]
	 Same-Spin Energy          =      -0.5193879462323405 [Eh]
	 Opposite-Spin Energy      =      -1.7263900868746394 [Eh]
	 Correlation Energy        =      -2.2457780331069799 [Eh]
	 Total Energy              =    -466.1396761593265978 [Eh]

	 ================> DF-SCS-MP2 Energies <==================
	-----------------------------------------------------------
	 SCS Same-Spin Scale       =       0.3333333333333333 [-]
	 SCS Opposite-Spin Scale   =       1.2000000000000000 [-]
	 SCS Same-Spin Energy      =      -0.1731293154107802 [Eh]
	 SCS Opposite-Spin Energy  =      -2.0716681042495670 [Eh]
	 SCS Correlation Energy    =      -2.2447974196603471 [Eh]
	 SCS Total Energy          =    -466.1386955458799548 [Eh]
	-----------------------------------------------------------

  Dipole Moment: [D]
     X:    -0.5802      Y:    -0.2023      Z:     0.0351     Total:     0.6155

*** Psi4 exiting successfully. Buy a developer a beer!
