                               Psi4 1.4a3.dev225

  ==> Input File <==

--------------------------------------------------------------------------
#psi4
#
memory 32 gb

molecule  {
0 1
  C       -0.4426020    -0.8338200     0.2172010
  C       -2.7550300    -0.2335230    -0.2686280
  C       -1.3727340    -0.3393290    -0.9144000
  C       -1.1456910    -0.3766540     1.5340440
  C       -2.4139240     0.3715680     1.0951880
  C        0.9762580    -0.3476150     0.0696660
  C       -3.7563129     0.5498419    -1.0681813
  C        1.2785260     1.0190760     0.1766520
  C        2.0223850    -1.2394820    -0.1958260
  C        2.5868840     1.4777510     0.0263980
  C        3.3346800    -0.7855870    -0.3490730
  C        3.6209360     0.5756970    -0.2390260
  H       -0.4241810    -1.9311060     0.1924250
  H       -3.1414670    -1.2511910    -0.1070860
  H       -1.0573430     0.6588960    -1.2471640
  H       -1.3450850    -0.9967850    -1.7909970
  H       -0.4862050     0.2392810     2.1528250
  H       -1.4122900    -1.2543580     2.1330320
  H       -3.2323950     0.2935880     1.8197160
  H       -2.2008590     1.4410770     0.9595580
  H       -3.4037750     1.5784440    -1.2516650
  H       -3.9506210     0.0965540    -2.0538340
  H       -4.7289130     0.6299820    -0.5557020
  H        0.4812350     1.7322070     0.3831320
  H        1.8065840    -2.3037040    -0.2799060
  H        2.8010350     2.5405970     0.1152150
  H        4.1326410    -1.4960120    -0.5534930
  H        4.6413930     0.9324010    -0.3562540
units angstrom
no_reorient  #important for SAPT in psi4, default
symmetry c1  #important for SAPT in psi4, default
}

set PROPERTIES_ORIGIN ["COM"]
properties('MP2/aug-cc-pvtz', properties = ['dipole'])
--------------------------------------------------------------------------

    Molecular point group: c1
  Charge       = 0
  Multiplicity = 1
  Basis Set: AUG-CC-PVTZ
    Blend: AUG-CC-PVTZ
  Basis Set: (AUG-CC-PVTZ AUX)
    Blend: AUG-CC-PVTZ-JKFIT

    Orbital Energies [Eh]
    ---------------------

    Doubly Occupied:

       1A    -11.236519     2A    -11.233606     3A    -11.232867
       4A    -11.228949     5A    -11.228455     6A    -11.228398
       7A    -11.228137     8A    -11.220284     9A    -11.216729
      10A    -11.214968    11A    -11.214820    12A    -11.212586
      13A     -1.156186    14A     -1.125643    15A     -1.040626
      16A     -1.008471    17A     -0.989554    18A     -0.953959
      19A     -0.891615    20A     -0.826389    21A     -0.816245
      22A     -0.764011    23A     -0.757360    24A     -0.690015
      25A     -0.660687    26A     -0.635539    27A     -0.622442
      28A     -0.607286    29A     -0.586215    30A     -0.579889
      31A     -0.573280    32A     -0.554602    33A     -0.527605
      34A     -0.510487    35A     -0.509628    36A     -0.490203
      37A     -0.475946    38A     -0.466315    39A     -0.461448
      40A     -0.453171    41A     -0.450101    42A     -0.442397
      43A     -0.332367    44A     -0.318841

  @DF-RHF Final Energy:  -463.89382993007558

   => Energetics <=

    Nuclear Repulsion Energy =            676.2920343863444259
    One-Electron Energy =               -1968.4220496031712173
    Two-Electron Energy =                 828.2361852867513790
    Total Energy =                       -463.8938299300755261
  Basis Set: (AUG-CC-PVTZ AUX)
    Blend: AUG-CC-PVTZ-RI
    Molecular point group: c1

    Geometry (in Angstrom), charge = 0, multiplicity = 1:

       Center              X                  Y                   Z               Mass
    ------------   -----------------  -----------------  -----------------  -----------------
         C           -0.514983541859    -0.827400508085     0.213675422298    12.000000000000
         C           -2.827411541859    -0.227103508085    -0.272153577702    12.000000000000
         C           -1.445115541859    -0.332909508085    -0.917925577702    12.000000000000
         C           -1.218072541859    -0.370234508085     1.530518422298    12.000000000000
         C           -2.486305541859     0.377987491915     1.091662422298    12.000000000000
         C            0.903876458141    -0.341195508085     0.066140422298    12.000000000000
         C           -3.828694441859     0.556261391915    -1.071706877702    12.000000000000
         C            1.206144458141     1.025495491915     0.173126422298    12.000000000000
         C            1.950003458141    -1.233062508085    -0.199351577702    12.000000000000
         C            2.514502458141     1.484170491915     0.022872422298    12.000000000000
         C            3.262298458141    -0.779167508085    -0.352598577702    12.000000000000
         C            3.548554458141     0.582116491915    -0.242551577702    12.000000000000
         H           -0.496562541859    -1.924686508085     0.188899422298     1.007825032230
         H           -3.213848541859    -1.244771508085    -0.110611577702     1.007825032230
         H           -1.129724541859     0.665315491915    -1.250689577702     1.007825032230
         H           -1.417466541859    -0.990365508085    -1.794522577702     1.007825032230
         H           -0.558586541859     0.245700491915     2.149299422298     1.007825032230
         H           -1.484671541859    -1.247938508085     2.129506422298     1.007825032230
         H           -3.304776541859     0.300007491915     1.816190422298     1.007825032230
         H           -2.273240541859     1.447496491915     0.956032422298     1.007825032230
         H           -3.476156541859     1.584863491915    -1.255190577702     1.007825032230
         H           -4.023002541859     0.102973491915    -2.057359577702     1.007825032230
         H           -4.801294541859     0.636401491915    -0.559227577702     1.007825032230
         H            0.408853458141     1.738626491915     0.379606422298     1.007825032230
         H            1.734202458141    -2.297284508085    -0.283431577702     1.007825032230
         H            2.728653458141     2.547016491915     0.111689422298     1.007825032230
         H            4.060259458141    -1.489592508085    -0.557018577702     1.007825032230
         H            4.569011458141     0.938820491915    -0.359779577702     1.007825032230

  Basis Set: AUG-CC-PVTZ
    Blend: AUG-CC-PVTZ
  Basis Set: (AUG-CC-PVTZ AUX)
    Blend: AUG-CC-PVTZ-JKFIT
	 Reference Energy          =    -463.8938299300755830 [Eh]
	 Singles Energy            =      -0.0000000000000000 [Eh]
	 Same-Spin Energy          =      -0.5196509302385424 [Eh]
	 Opposite-Spin Energy      =      -1.7265690003044305 [Eh]
	 Correlation Energy        =      -2.2462199305429729 [Eh]
	 Total Energy              =    -466.1400498606185465 [Eh]

	 ================> DF-SCS-MP2 Energies <==================
	-----------------------------------------------------------
	 SCS Same-Spin Scale       =       0.3333333333333333 [-]
	 SCS Opposite-Spin Scale   =       1.2000000000000000 [-]
	 SCS Same-Spin Energy      =      -0.1732169767461808 [Eh]
	 SCS Opposite-Spin Energy  =      -2.0718828003653167 [Eh]
	 SCS Correlation Energy    =      -2.2450997771114976 [Eh]
	 SCS Total Energy          =    -466.1389297071870601 [Eh]
	-----------------------------------------------------------

  Dipole Moment: [D]
     X:    -0.5678      Y:    -0.2034      Z:     0.0377     Total:     0.6043

*** Psi4 exiting successfully. Buy a developer a beer!
