                               Psi4 1.4a3.dev225

  ==> Input File <==

--------------------------------------------------------------------------
#psi4
#
memory 32 gb

molecule  {
0 1
  C       -0.4579065    -0.7915032     0.2469858
  C       -2.7550300    -0.2335230    -0.2686280
  C       -1.3727340    -0.3393290    -0.9144000
  C       -1.1456910    -0.3766540     1.5340440
  C       -2.4139240     0.3715680     1.0951880
  C        0.9762580    -0.3476150     0.0696660
  C       -3.7696470     0.5602740    -1.0788290
  C        1.2785260     1.0190760     0.1766520
  C        2.0223850    -1.2394820    -0.1958260
  C        2.5868840     1.4777510     0.0263980
  C        3.3346800    -0.7855870    -0.3490730
  C        3.6209360     0.5756970    -0.2390260
  H       -0.4241810    -1.9311060     0.1924250
  H       -3.1414670    -1.2511910    -0.1070860
  H       -1.0573430     0.6588960    -1.2471640
  H       -1.3450850    -0.9967850    -1.7909970
  H       -0.4862050     0.2392810     2.1528250
  H       -1.4122900    -1.2543580     2.1330320
  H       -3.2323950     0.2935880     1.8197160
  H       -2.2008590     1.4410770     0.9595580
  H       -3.4037750     1.5784440    -1.2516650
  H       -3.9506210     0.0965540    -2.0538340
  H       -4.7289130     0.6299820    -0.5557020
  H        0.4812350     1.7322070     0.3831320
  H        1.8065840    -2.3037040    -0.2799060
  H        2.8010350     2.5405970     0.1152150
  H        4.1326410    -1.4960120    -0.5534930
  H        4.6413930     0.9324010    -0.3562540
units angstrom
no_reorient  #important for SAPT in psi4, default
symmetry c1  #important for SAPT in psi4, default
}

set PROPERTIES_ORIGIN ["COM"]
properties('MP2/aug-cc-pvtz', properties = ['dipole'])
--------------------------------------------------------------------------

    Molecular point group: c1
  Charge       = 0
  Multiplicity = 1
  Basis Set: AUG-CC-PVTZ
    Blend: AUG-CC-PVTZ
  Basis Set: (AUG-CC-PVTZ AUX)
    Blend: AUG-CC-PVTZ-JKFIT

    Orbital Energies [Eh]
    ---------------------

    Doubly Occupied:

       1A    -11.236732     2A    -11.233398     3A    -11.233170
       4A    -11.230308     5A    -11.229226     6A    -11.228967
       7A    -11.227994     8A    -11.221058     9A    -11.215560
      10A    -11.214965    11A    -11.214799    12A    -11.211552
      13A     -1.157275    14A     -1.127215    15A     -1.039447
      16A     -1.008520    17A     -0.991334    18A     -0.952817
      19A     -0.894371    20A     -0.825371    21A     -0.817324
      22A     -0.764220    23A     -0.754048    24A     -0.689318
      25A     -0.662324    26A     -0.636216    27A     -0.621080
      28A     -0.607515    29A     -0.586611    30A     -0.580037
      31A     -0.570993    32A     -0.555451    33A     -0.529148
      34A     -0.512321    35A     -0.510474    36A     -0.489979
      37A     -0.478142    38A     -0.468635    39A     -0.463409
      40A     -0.453789    41A     -0.442945    42A     -0.438910
      43A     -0.332417    44A     -0.319843

  @DF-RHF Final Energy:  -463.89081742221458

   => Energetics <=

    Nuclear Repulsion Energy =            676.4078786082442321
    One-Electron Energy =               -1968.6389311114671727
    Two-Electron Energy =                 828.3402350810084727
    Total Energy =                       -463.8908174222145817
  Basis Set: (AUG-CC-PVTZ AUX)
    Blend: AUG-CC-PVTZ-RI
    Molecular point group: c1

    Geometry (in Angstrom), charge = 0, multiplicity = 1:

       Center              X                  Y                   Z               Mass
    ------------   -----------------  -----------------  -----------------  -----------------
         C           -0.528141826279    -0.789036782292     0.242026062033    12.000000000000
         C           -2.825265326279    -0.231056582292    -0.273587737967    12.000000000000
         C           -1.442969326279    -0.336862582292    -0.919359737967    12.000000000000
         C           -1.215926326279    -0.374187582292     1.529084262033    12.000000000000
         C           -2.484159326279     0.374034417708     1.090228262033    12.000000000000
         C            0.906022673721    -0.345148582292     0.064706262033    12.000000000000
         C           -3.839882326279     0.562740417708    -1.083788737967    12.000000000000
         C            1.208290673721     1.021542417708     0.171692262033    12.000000000000
         C            1.952149673721    -1.237015582292    -0.200785737967    12.000000000000
         C            2.516648673721     1.480217417708     0.021438262033    12.000000000000
         C            3.264444673721    -0.783120582292    -0.354032737967    12.000000000000
         C            3.550700673721     0.578163417708    -0.243985737967    12.000000000000
         H           -0.494416326279    -1.928639582292     0.187465262033     1.007825032230
         H           -3.211702326279    -1.248724582292    -0.112045737967     1.007825032230
         H           -1.127578326279     0.661362417708    -1.252123737967     1.007825032230
         H           -1.415320326279    -0.994318582292    -1.795956737967     1.007825032230
         H           -0.556440326279     0.241747417708     2.147865262033     1.007825032230
         H           -1.482525326279    -1.251891582292     2.128072262033     1.007825032230
         H           -3.302630326279     0.296054417708     1.814756262033     1.007825032230
         H           -2.271094326279     1.443543417708     0.954598262033     1.007825032230
         H           -3.474010326279     1.580910417708    -1.256624737967     1.007825032230
         H           -4.020856326279     0.099020417708    -2.058793737967     1.007825032230
         H           -4.799148326279     0.632448417708    -0.560661737967     1.007825032230
         H            0.410999673721     1.734673417708     0.378172262033     1.007825032230
         H            1.736348673721    -2.301237582292    -0.284865737967     1.007825032230
         H            2.730799673721     2.543063417708     0.110255262033     1.007825032230
         H            4.062405673721    -1.493545582292    -0.558452737967     1.007825032230
         H            4.571157673721     0.934867417708    -0.361213737967     1.007825032230

  Basis Set: AUG-CC-PVTZ
    Blend: AUG-CC-PVTZ
  Basis Set: (AUG-CC-PVTZ AUX)
    Blend: AUG-CC-PVTZ-JKFIT
	 Reference Energy          =    -463.8908174222145817 [Eh]
	 Singles Energy            =      -0.0000000000000000 [Eh]
	 Same-Spin Energy          =      -0.5198506661350396 [Eh]
	 Opposite-Spin Energy      =      -1.7269832954023840 [Eh]
	 Correlation Energy        =      -2.2468339615374235 [Eh]
	 Total Energy              =    -466.1376513837520292 [Eh]

	 ================> DF-SCS-MP2 Energies <==================
	-----------------------------------------------------------
	 SCS Same-Spin Scale       =       0.3333333333333333 [-]
	 SCS Opposite-Spin Scale   =       1.2000000000000000 [-]
	 SCS Same-Spin Energy      =      -0.1732835553783465 [Eh]
	 SCS Opposite-Spin Energy  =      -2.0723799544828609 [Eh]
	 SCS Correlation Energy    =      -2.2456635098612074 [Eh]
	 SCS Total Energy          =    -466.1364809320758127 [Eh]
	-----------------------------------------------------------

  Dipole Moment: [D]
     X:    -0.5574      Y:    -0.1706      Z:     0.0502     Total:     0.5851

*** Psi4 exiting successfully. Buy a developer a beer!
