                               Psi4 1.4a3.dev225

  ==> Input File <==

--------------------------------------------------------------------------
#psi4
#
memory 32 gb

molecule  {
0 1
  C       -0.3868270    -0.9790018     0.1908093
  C       -2.7550300    -0.2335230    -0.2686280
  C       -1.3727340    -0.3393290    -0.9144000
  C       -1.1456910    -0.3766540     1.5340440
  C       -2.4139240     0.3715680     1.0951880
  C        0.9762580    -0.3476150     0.0696660
  C       -3.7696470     0.5602740    -1.0788290
  C        1.2785260     1.0190760     0.1766520
  C        2.0223850    -1.2394820    -0.1958260
  C        2.5868840     1.4777510     0.0263980
  C        3.3346800    -0.7855870    -0.3490730
  C        3.6209360     0.5756970    -0.2390260
  H       -0.4241810    -1.9311060     0.1924250
  H       -3.1414670    -1.2511910    -0.1070860
  H       -1.0573430     0.6588960    -1.2471640
  H       -1.3450850    -0.9967850    -1.7909970
  H       -0.4862050     0.2392810     2.1528250
  H       -1.4122900    -1.2543580     2.1330320
  H       -3.2323950     0.2935880     1.8197160
  H       -2.2008590     1.4410770     0.9595580
  H       -3.4037750     1.5784440    -1.2516650
  H       -3.9506210     0.0965540    -2.0538340
  H       -4.7289130     0.6299820    -0.5557020
  H        0.4812350     1.7322070     0.3831320
  H        1.8065840    -2.3037040    -0.2799060
  H        2.8010350     2.5405970     0.1152150
  H        4.1326410    -1.4960120    -0.5534930
  H        4.6413930     0.9324010    -0.3562540
units angstrom
no_reorient  #important for SAPT in psi4, default
symmetry c1  #important for SAPT in psi4, default
}

set PROPERTIES_ORIGIN ["COM"]
properties('MP2/aug-cc-pvtz', properties = ['dipole'])
--------------------------------------------------------------------------

    Molecular point group: c1
  Charge       = 0
  Multiplicity = 1
  Basis Set: AUG-CC-PVTZ
    Blend: AUG-CC-PVTZ
  Basis Set: (AUG-CC-PVTZ AUX)
    Blend: AUG-CC-PVTZ-JKFIT

    Orbital Energies [Eh]
    ---------------------

    Doubly Occupied:

       1A    -11.238348     2A    -11.234372     3A    -11.231712
       4A    -11.229890     5A    -11.227692     6A    -11.225662
       7A    -11.225189     8A    -11.221350     9A    -11.219985
      10A    -11.218672    11A    -11.215076    12A    -11.211728
      13A     -1.153071    14A     -1.117300    15A     -1.040517
      16A     -1.008090    17A     -0.983647    18A     -0.951352
      19A     -0.892956    20A     -0.829917    21A     -0.813198
      22A     -0.773073    23A     -0.760062    24A     -0.693540
      25A     -0.655891    26A     -0.634673    27A     -0.622181
      28A     -0.603211    29A     -0.590364    30A     -0.580634
      31A     -0.578382    32A     -0.556493    33A     -0.529557
      34A     -0.512384    35A     -0.507050    36A     -0.491509
      37A     -0.480151    38A     -0.469330    39A     -0.458483
      40A     -0.448902    41A     -0.441785    42A     -0.435897
      43A     -0.332124    44A     -0.313565

  @DF-RHF Final Energy:  -463.86463499389561

   => Energetics <=

    Nuclear Repulsion Energy =            674.1828241610206760
    One-Electron Energy =               -1964.1769895115742202
    Two-Electron Energy =                 826.1295303566578241
    Total Energy =                       -463.8646349938956064
  Basis Set: (AUG-CC-PVTZ AUX)
    Blend: AUG-CC-PVTZ-RI
    Molecular point group: c1

    Geometry (in Angstrom), charge = 0, multiplicity = 1:

       Center              X                  Y                   Z               Mass
    ------------   -----------------  -----------------  -----------------  -----------------
         C           -0.462389120546    -0.962483982557     0.190059505239    12.000000000000
         C           -2.830592120546    -0.217005182557    -0.269377794761    12.000000000000
         C           -1.448296120546    -0.322811182557    -0.915149794761    12.000000000000
         C           -1.221253120546    -0.360136182557     1.533294205239    12.000000000000
         C           -2.489486120546     0.388085817443     1.094438205239    12.000000000000
         C            0.900695879454    -0.331097182557     0.068916205239    12.000000000000
         C           -3.845209120546     0.576791817443    -1.079578794761    12.000000000000
         C            1.202963879454     1.035593817443     0.175902205239    12.000000000000
         C            1.946822879454    -1.222964182557    -0.196575794761    12.000000000000
         C            2.511321879454     1.494268817443     0.025648205239    12.000000000000
         C            3.259117879454    -0.769069182557    -0.349822794761    12.000000000000
         C            3.545373879454     0.592214817443    -0.239775794761    12.000000000000
         H           -0.499743120546    -1.914588182557     0.191675205239     1.007825032230
         H           -3.217029120546    -1.234673182557    -0.107835794761     1.007825032230
         H           -1.132905120546     0.675413817443    -1.247913794761     1.007825032230
         H           -1.420647120546    -0.980267182557    -1.791746794761     1.007825032230
         H           -0.561767120546     0.255798817443     2.152075205239     1.007825032230
         H           -1.487852120546    -1.237840182557     2.132282205239     1.007825032230
         H           -3.307957120546     0.310105817443     1.818966205239     1.007825032230
         H           -2.276421120546     1.457594817443     0.958808205239     1.007825032230
         H           -3.479337120546     1.594961817443    -1.252414794761     1.007825032230
         H           -4.026183120546     0.113071817443    -2.054583794761     1.007825032230
         H           -4.804475120546     0.646499817443    -0.556451794761     1.007825032230
         H            0.405672879454     1.748724817443     0.382382205239     1.007825032230
         H            1.731021879454    -2.287186182557    -0.280655794761     1.007825032230
         H            2.725472879454     2.557114817443     0.114465205239     1.007825032230
         H            4.057078879454    -1.479494182557    -0.554242794761     1.007825032230
         H            4.565830879454     0.948918817443    -0.357003794761     1.007825032230

  Basis Set: AUG-CC-PVTZ
    Blend: AUG-CC-PVTZ
  Basis Set: (AUG-CC-PVTZ AUX)
    Blend: AUG-CC-PVTZ-JKFIT
	 Reference Energy          =    -463.8646349938956064 [Eh]
	 Singles Energy            =      -0.0000000000000000 [Eh]
	 Same-Spin Energy          =      -0.5194297597726749 [Eh]
	 Opposite-Spin Energy      =      -1.7272197914046523 [Eh]
	 Correlation Energy        =      -2.2466495511773275 [Eh]
	 Total Energy              =    -466.1112845450729196 [Eh]

	 ================> DF-SCS-MP2 Energies <==================
	-----------------------------------------------------------
	 SCS Same-Spin Scale       =       0.3333333333333333 [-]
	 SCS Opposite-Spin Scale   =       1.2000000000000000 [-]
	 SCS Same-Spin Energy      =      -0.1731432532575583 [Eh]
	 SCS Opposite-Spin Energy  =      -2.0726637496855829 [Eh]
	 SCS Correlation Energy    =      -2.2458070029431410 [Eh]
	 SCS Total Energy          =    -466.1104419968387447 [Eh]
	-----------------------------------------------------------

  Dipole Moment: [D]
     X:    -0.6343      Y:    -0.2766      Z:     0.0226     Total:     0.6924

*** Psi4 exiting successfully. Buy a developer a beer!
