                               Psi4 1.4a3.dev225

  ==> Input File <==

--------------------------------------------------------------------------
#psi4
#
memory 32 gb

molecule  {
0 1
  C       -0.4426020    -0.8338200     0.2172010
  C       -2.7550300    -0.2335230    -0.2686280
  C       -1.3426526    -0.3553214    -0.8778028
  C       -1.1456910    -0.3766540     1.5340440
  C       -2.4139240     0.3715680     1.0951880
  C        0.9762580    -0.3476150     0.0696660
  C       -3.7696470     0.5602740    -1.0788290
  C        1.2785260     1.0190760     0.1766520
  C        2.0223850    -1.2394820    -0.1958260
  C        2.5868840     1.4777510     0.0263980
  C        3.3346800    -0.7855870    -0.3490730
  C        3.6209360     0.5756970    -0.2390260
  H       -0.4241810    -1.9311060     0.1924250
  H       -3.1414670    -1.2511910    -0.1070860
  H       -1.0573430     0.6588960    -1.2471640
  H       -1.3450850    -0.9967850    -1.7909970
  H       -0.4862050     0.2392810     2.1528250
  H       -1.4122900    -1.2543580     2.1330320
  H       -3.2323950     0.2935880     1.8197160
  H       -2.2008590     1.4410770     0.9595580
  H       -3.4037750     1.5784440    -1.2516650
  H       -3.9506210     0.0965540    -2.0538340
  H       -4.7289130     0.6299820    -0.5557020
  H        0.4812350     1.7322070     0.3831320
  H        1.8065840    -2.3037040    -0.2799060
  H        2.8010350     2.5405970     0.1152150
  H        4.1326410    -1.4960120    -0.5534930
  H        4.6413930     0.9324010    -0.3562540
units angstrom
no_reorient  #important for SAPT in psi4, default
symmetry c1  #important for SAPT in psi4, default
}

set PROPERTIES_ORIGIN ["COM"]
properties('MP2/aug-cc-pvtz', properties = ['dipole'])
--------------------------------------------------------------------------

    Molecular point group: c1
  Charge       = 0
  Multiplicity = 1
  Basis Set: AUG-CC-PVTZ
    Blend: AUG-CC-PVTZ
  Basis Set: (AUG-CC-PVTZ AUX)
    Blend: AUG-CC-PVTZ-JKFIT

    Orbital Energies [Eh]
    ---------------------

    Doubly Occupied:

       1A    -11.236759     2A    -11.233688     3A    -11.232952
       4A    -11.229135     5A    -11.228660     6A    -11.228390
       7A    -11.226578     8A    -11.221606     9A    -11.216869
      10A    -11.216161    11A    -11.214496    12A    -11.212412
      13A     -1.158001    14A     -1.126470    15A     -1.040362
      16A     -1.008604    17A     -0.988137    18A     -0.956817
      19A     -0.892147    20A     -0.826353    21A     -0.816260
      22A     -0.763070    23A     -0.756412    24A     -0.691086
      25A     -0.660035    26A     -0.636411    27A     -0.622626
      28A     -0.607260    29A     -0.586219    30A     -0.579222
      31A     -0.573613    32A     -0.555820    33A     -0.526750
      34A     -0.514015    35A     -0.510626    36A     -0.489767
      37A     -0.475355    38A     -0.467671    39A     -0.461275
      40A     -0.451717    41A     -0.448611    42A     -0.440059
      43A     -0.332443    44A     -0.319727

  @DF-RHF Final Energy:  -463.89155665410078

   => Energetics <=

    Nuclear Repulsion Energy =            676.5729130531647115
    One-Electron Energy =               -1968.9676421520221083
    Two-Electron Energy =                 828.5031724447566148
    Total Energy =                       -463.8915566541007820
  Basis Set: (AUG-CC-PVTZ AUX)
    Blend: AUG-CC-PVTZ-RI
    Molecular point group: c1

    Geometry (in Angstrom), charge = 0, multiplicity = 1:

       Center              X                  Y                   Z               Mass
    ------------   -----------------  -----------------  -----------------  -----------------
         C           -0.516238607266    -0.826983811651     0.211730731525    12.000000000000
         C           -2.828666607266    -0.226686811651    -0.274098268475    12.000000000000
         C           -1.416289207266    -0.348485211651    -0.883273068475    12.000000000000
         C           -1.219327607266    -0.369817811651     1.528573731525    12.000000000000
         C           -2.487560607266     0.378404188349     1.089717731525    12.000000000000
         C            0.902621392734    -0.340778811651     0.064195731525    12.000000000000
         C           -3.843283607266     0.567110188349    -1.084299268475    12.000000000000
         C            1.204889392734     1.025912188349     0.171181731525    12.000000000000
         C            1.948748392734    -1.232645811651    -0.201296268475    12.000000000000
         C            2.513247392734     1.484587188349     0.020927731525    12.000000000000
         C            3.261043392734    -0.778750811651    -0.354543268475    12.000000000000
         C            3.547299392734     0.582533188349    -0.244496268475    12.000000000000
         H           -0.497817607266    -1.924269811651     0.186954731525     1.007825032230
         H           -3.215103607266    -1.244354811651    -0.112556268475     1.007825032230
         H           -1.130979607266     0.665732188349    -1.252634268475     1.007825032230
         H           -1.418721607266    -0.989948811651    -1.796467268475     1.007825032230
         H           -0.559841607266     0.246117188349     2.147354731525     1.007825032230
         H           -1.485926607266    -1.247521811651     2.127561731525     1.007825032230
         H           -3.306031607266     0.300424188349     1.814245731525     1.007825032230
         H           -2.274495607266     1.447913188349     0.954087731525     1.007825032230
         H           -3.477411607266     1.585280188349    -1.257135268475     1.007825032230
         H           -4.024257607266     0.103390188349    -2.059304268475     1.007825032230
         H           -4.802549607266     0.636818188349    -0.561172268475     1.007825032230
         H            0.407598392734     1.739043188349     0.377661731525     1.007825032230
         H            1.732947392734    -2.296867811651    -0.285376268475     1.007825032230
         H            2.727398392734     2.547433188349     0.109744731525     1.007825032230
         H            4.059004392734    -1.489175811651    -0.558963268475     1.007825032230
         H            4.567756392734     0.939237188349    -0.361724268475     1.007825032230

  Basis Set: AUG-CC-PVTZ
    Blend: AUG-CC-PVTZ
  Basis Set: (AUG-CC-PVTZ AUX)
    Blend: AUG-CC-PVTZ-JKFIT
	 Reference Energy          =    -463.8915566541007820 [Eh]
	 Singles Energy            =      -0.0000000000000000 [Eh]
	 Same-Spin Energy          =      -0.5198656092273193 [Eh]
	 Opposite-Spin Energy      =      -1.7268092711684255 [Eh]
	 Correlation Energy        =      -2.2466748803957448 [Eh]
	 Total Energy              =    -466.1382315344965264 [Eh]

	 ================> DF-SCS-MP2 Energies <==================
	-----------------------------------------------------------
	 SCS Same-Spin Scale       =       0.3333333333333333 [-]
	 SCS Opposite-Spin Scale   =       1.2000000000000000 [-]
	 SCS Same-Spin Energy      =      -0.1732885364091064 [Eh]
	 SCS Opposite-Spin Energy  =      -2.0721711254021105 [Eh]
	 SCS Correlation Energy    =      -2.2454596618112168 [Eh]
	 SCS Total Energy          =    -466.1370163159119784 [Eh]
	-----------------------------------------------------------

  Dipole Moment: [D]
     X:    -0.5656      Y:    -0.1937      Z:     0.0446     Total:     0.5995

*** Psi4 exiting successfully. Buy a developer a beer!
