                               Psi4 1.4a3.dev225

  ==> Input File <==

--------------------------------------------------------------------------
#psi4
#
memory 32 gb

molecule  {
0 1
  C       -0.4426020    -0.8338200     0.2172010
  C       -2.7550300    -0.2335230    -0.2686280
  C       -1.3727340    -0.3393290    -0.9144000
  C       -1.1456910    -0.3766540     1.5340440
  C       -2.4139240     0.3715680     1.0951880
  C        0.9762580    -0.3476150     0.0696660
  C       -3.7696470     0.5602740    -1.0788290
  C        1.2785260     1.0190760     0.1766520
  C        2.0223850    -1.2394820    -0.1958260
  C        2.5868840     1.4777510     0.0263980
  C        3.3346800    -0.7855870    -0.3490730
  C        3.6209360     0.5756970    -0.2390260
  H       -0.4241810    -1.9311060     0.1924250
  H       -3.1414670    -1.2511910    -0.1070860
  H       -1.0573430     0.6588960    -1.2471640
  H       -1.3450850    -0.9967850    -1.7909970
  H       -0.4862050     0.2392810     2.1528250
  H       -1.4122900    -1.2543580     2.1330320
  H       -3.2323950     0.2935880     1.8197160
  H       -2.2008590     1.4410770     0.9595580
  H       -3.4065038     1.5723153    -1.2893147
  H       -3.9506210     0.0965540    -2.0538340
  H       -4.7289130     0.6299820    -0.5557020
  H        0.4812350     1.7322070     0.3831320
  H        1.8065840    -2.3037040    -0.2799060
  H        2.8010350     2.5405970     0.1152150
  H        4.1326410    -1.4960120    -0.5534930
  H        4.6413930     0.9324010    -0.3562540
units angstrom
no_reorient  #important for SAPT in psi4, default
symmetry c1  #important for SAPT in psi4, default
}

set PROPERTIES_ORIGIN ["COM"]
properties('MP2/aug-cc-pvtz', properties = ['dipole'])
--------------------------------------------------------------------------

    Molecular point group: c1
  Charge       = 0
  Multiplicity = 1
  Basis Set: AUG-CC-PVTZ
    Blend: AUG-CC-PVTZ
  Basis Set: (AUG-CC-PVTZ AUX)
    Blend: AUG-CC-PVTZ-JKFIT

    Orbital Energies [Eh]
    ---------------------

    Doubly Occupied:

       1A    -11.236495     2A    -11.233583     3A    -11.232846
       4A    -11.228926     5A    -11.228425     6A    -11.228364
       7A    -11.228112     8A    -11.221402     9A    -11.216664
      10A    -11.214826    11A    -11.214767    12A    -11.211517
      13A     -1.155991    14A     -1.124778    15A     -1.039410
      16A     -1.008436    17A     -0.988413    18A     -0.953740
      19A     -0.892847    20A     -0.826392    21A     -0.816211
      22A     -0.763786    23A     -0.757196    24A     -0.689901
      25A     -0.660299    26A     -0.635276    27A     -0.621694
      28A     -0.606720    29A     -0.585406    30A     -0.579831
      31A     -0.573816    32A     -0.556483    33A     -0.527809
      34A     -0.511085    35A     -0.510003    36A     -0.490078
      37A     -0.475270    38A     -0.463872    39A     -0.461354
      40A     -0.453571    41A     -0.450091    42A     -0.443829
      43A     -0.332344    44A     -0.318797

  @DF-RHF Final Energy:  -463.89431825930069

   => Energetics <=

    Nuclear Repulsion Energy =            675.9014483580450587
    One-Electron Energy =               -1967.6502232198945421
    Two-Electron Energy =                 827.8544566025489075
    Total Energy =                       -463.8943182593006895
  Basis Set: (AUG-CC-PVTZ AUX)
    Blend: AUG-CC-PVTZ-RI
    Molecular point group: c1

    Geometry (in Angstrom), charge = 0, multiplicity = 1:

       Center              X                  Y                   Z               Mass
    ------------   -----------------  -----------------  -----------------  -----------------
         C           -0.513967091279    -0.828143729904     0.214710341908    12.000000000000
         C           -2.826395091279    -0.227846729904    -0.271118658092    12.000000000000
         C           -1.444099091279    -0.333652729904    -0.916890658092    12.000000000000
         C           -1.217056091279    -0.370977729904     1.531553341908    12.000000000000
         C           -2.485289091279     0.377244270096     1.092697341908    12.000000000000
         C            0.904892908721    -0.341938729904     0.067175341908    12.000000000000
         C           -3.841012091279     0.565950270096    -1.081319658092    12.000000000000
         C            1.207160908721     1.024752270096     0.174161341908    12.000000000000
         C            1.951019908721    -1.233805729904    -0.198316658092    12.000000000000
         C            2.515518908721     1.483427270096     0.023907341908    12.000000000000
         C            3.263314908721    -0.779910729904    -0.351563658092    12.000000000000
         C            3.549570908721     0.581373270096    -0.241516658092    12.000000000000
         H           -0.495546091279    -1.925429729904     0.189934341908     1.007825032230
         H           -3.212832091279    -1.245514729904    -0.109576658092     1.007825032230
         H           -1.128708091279     0.664572270096    -1.249654658092     1.007825032230
         H           -1.416450091279    -0.991108729904    -1.793487658092     1.007825032230
         H           -0.557570091279     0.244957270096     2.150334341908     1.007825032230
         H           -1.483655091279    -1.248681729904     2.130541341908     1.007825032230
         H           -3.303760091279     0.299264270096     1.817225341908     1.007825032230
         H           -2.272224091279     1.446753270096     0.957067341908     1.007825032230
         H           -3.477868891279     1.577991570096    -1.291805358092     1.007825032230
         H           -4.021986091279     0.102230270096    -2.056324658092     1.007825032230
         H           -4.800278091279     0.635658270096    -0.558192658092     1.007825032230
         H            0.409869908721     1.737883270096     0.380641341908     1.007825032230
         H            1.735218908721    -2.298027729904    -0.282396658092     1.007825032230
         H            2.729669908721     2.546273270096     0.112724341908     1.007825032230
         H            4.061275908721    -1.490335729904    -0.555983658092     1.007825032230
         H            4.570027908721     0.938077270096    -0.358744658092     1.007825032230

  Basis Set: AUG-CC-PVTZ
    Blend: AUG-CC-PVTZ
  Basis Set: (AUG-CC-PVTZ AUX)
    Blend: AUG-CC-PVTZ-JKFIT
	 Reference Energy          =    -463.8943182593006895 [Eh]
	 Singles Energy            =      -0.0000000000000000 [Eh]
	 Same-Spin Energy          =      -0.5194905422883924 [Eh]
	 Opposite-Spin Energy      =      -1.7264037595826198 [Eh]
	 Correlation Energy        =      -2.2458943018710125 [Eh]
	 Total Energy              =    -466.1402125611717224 [Eh]

	 ================> DF-SCS-MP2 Energies <==================
	-----------------------------------------------------------
	 SCS Same-Spin Scale       =       0.3333333333333333 [-]
	 SCS Opposite-Spin Scale   =       1.2000000000000000 [-]
	 SCS Same-Spin Energy      =      -0.1731635140961308 [Eh]
	 SCS Opposite-Spin Energy  =      -2.0716845114991438 [Eh]
	 SCS Correlation Energy    =      -2.2448480255952745 [Eh]
	 SCS Total Energy          =    -466.1391662848959641 [Eh]
	-----------------------------------------------------------

  Dipole Moment: [D]
     X:    -0.5663      Y:    -0.2002      Z:     0.0278     Total:     0.6013

*** Psi4 exiting successfully. Buy a developer a beer!
