                               Psi4 1.4a3.dev225

  ==> Input File <==

--------------------------------------------------------------------------
#psi4
#
memory 32 gb

molecule  {
0 1
  C       -0.4623882    -0.9871926     0.2700226
  C       -2.7550300    -0.2335230    -0.2686280
  C       -1.3727340    -0.3393290    -0.9144000
  C       -1.1456910    -0.3766540     1.5340440
  C       -2.4139240     0.3715680     1.0951880
  C        0.9762580    -0.3476150     0.0696660
  C       -3.7696470     0.5602740    -1.0788290
  C        1.2785260     1.0190760     0.1766520
  C        2.0223850    -1.2394820    -0.1958260
  C        2.5868840     1.4777510     0.0263980
  C        3.3346800    -0.7855870    -0.3490730
  C        3.6209360     0.5756970    -0.2390260
  H       -0.4241810    -1.9311060     0.1924250
  H       -3.1414670    -1.2511910    -0.1070860
  H       -1.0573430     0.6588960    -1.2471640
  H       -1.3450850    -0.9967850    -1.7909970
  H       -0.4862050     0.2392810     2.1528250
  H       -1.4122900    -1.2543580     2.1330320
  H       -3.2323950     0.2935880     1.8197160
  H       -2.2008590     1.4410770     0.9595580
  H       -3.4037750     1.5784440    -1.2516650
  H       -3.9506210     0.0965540    -2.0538340
  H       -4.7289130     0.6299820    -0.5557020
  H        0.4812350     1.7322070     0.3831320
  H        1.8065840    -2.3037040    -0.2799060
  H        2.8010350     2.5405970     0.1152150
  H        4.1326410    -1.4960120    -0.5534930
  H        4.6413930     0.9324010    -0.3562540
units angstrom
no_reorient  #important for SAPT in psi4, default
symmetry c1  #important for SAPT in psi4, default
}

set PROPERTIES_ORIGIN ["COM"]
properties('MP2/aug-cc-pvtz', properties = ['dipole'])
--------------------------------------------------------------------------

    Molecular point group: c1
  Charge       = 0
  Multiplicity = 1
  Basis Set: AUG-CC-PVTZ
    Blend: AUG-CC-PVTZ
  Basis Set: (AUG-CC-PVTZ AUX)
    Blend: AUG-CC-PVTZ-JKFIT

    Orbital Energies [Eh]
    ---------------------

    Doubly Occupied:

       1A    -11.240191     2A    -11.233543     3A    -11.231385
       4A    -11.228739     5A    -11.227027     6A    -11.226985
       7A    -11.225108     8A    -11.220552     9A    -11.218655
      10A    -11.217693    11A    -11.215455    12A    -11.211146
      13A     -1.150566    14A     -1.121342    15A     -1.034919
      16A     -1.007197    17A     -0.988257    18A     -0.949456
      19A     -0.895963    20A     -0.827515    21A     -0.810489
      22A     -0.774712    23A     -0.760134    24A     -0.691269
      25A     -0.659027    26A     -0.630225    27A     -0.620747
      28A     -0.606192    29A     -0.590704    30A     -0.579549
      31A     -0.576968    32A     -0.553238    33A     -0.529714
      34A     -0.515144    35A     -0.504436    36A     -0.493085
      37A     -0.481918    38A     -0.469970    39A     -0.460053
      40A     -0.449829    41A     -0.445798    42A     -0.427935
      43A     -0.331426    44A     -0.315575

  @DF-RHF Final Energy:  -463.86271406392962

   => Energetics <=

    Nuclear Repulsion Energy =            673.9650237856051262
    One-Electron Energy =               -1963.7558170084046196
    Two-Electron Energy =                 825.9280791588698776
    Total Energy =                       -463.8627140639296158
  Basis Set: (AUG-CC-PVTZ AUX)
    Blend: AUG-CC-PVTZ-RI
    Molecular point group: c1

    Geometry (in Angstrom), charge = 0, multiplicity = 1:

       Center              X                  Y                   Z               Mass
    ------------   -----------------  -----------------  -----------------  -----------------
         C           -0.532287661594    -0.970060952881     0.263336452954    12.000000000000
         C           -2.824929461594    -0.216391352881    -0.275314147046    12.000000000000
         C           -1.442633461594    -0.322197352881    -0.921086147046    12.000000000000
         C           -1.215590461594    -0.359522352881     1.527357852954    12.000000000000
         C           -2.483823461594     0.388699647119     1.088501852954    12.000000000000
         C            0.906358538406    -0.330483352881     0.062979852954    12.000000000000
         C           -3.839546461594     0.577405647119    -1.085515147046    12.000000000000
         C            1.208626538406     1.036207647119     0.169965852954    12.000000000000
         C            1.952485538406    -1.222350352881    -0.202512147046    12.000000000000
         C            2.516984538406     1.494882647119     0.019711852954    12.000000000000
         C            3.264780538406    -0.768455352881    -0.355759147046    12.000000000000
         C            3.551036538406     0.592828647119    -0.245712147046    12.000000000000
         H           -0.494080461594    -1.913974352881     0.185738852954     1.007825032230
         H           -3.211366461594    -1.234059352881    -0.113772147046     1.007825032230
         H           -1.127242461594     0.676027647119    -1.253850147046     1.007825032230
         H           -1.414984461594    -0.979653352881    -1.797683147046     1.007825032230
         H           -0.556104461594     0.256412647119     2.146138852954     1.007825032230
         H           -1.482189461594    -1.237226352881     2.126345852954     1.007825032230
         H           -3.302294461594     0.310719647119     1.813029852954     1.007825032230
         H           -2.270758461594     1.458208647119     0.952871852954     1.007825032230
         H           -3.473674461594     1.595575647119    -1.258351147046     1.007825032230
         H           -4.020520461594     0.113685647119    -2.060520147046     1.007825032230
         H           -4.798812461594     0.647113647119    -0.562388147046     1.007825032230
         H            0.411335538406     1.749338647119     0.376445852954     1.007825032230
         H            1.736684538406    -2.286572352881    -0.286592147046     1.007825032230
         H            2.731135538406     2.557728647119     0.108528852954     1.007825032230
         H            4.062741538406    -1.478880352881    -0.560179147046     1.007825032230
         H            4.571493538406     0.949532647119    -0.362940147046     1.007825032230

  Basis Set: AUG-CC-PVTZ
    Blend: AUG-CC-PVTZ
  Basis Set: (AUG-CC-PVTZ AUX)
    Blend: AUG-CC-PVTZ-JKFIT
	 Reference Energy          =    -463.8627140639296158 [Eh]
	 Singles Energy            =      -0.0000000000000000 [Eh]
	 Same-Spin Energy          =      -0.5191720469429650 [Eh]
	 Opposite-Spin Energy      =      -1.7269437412862065 [Eh]
	 Correlation Energy        =      -2.2461157882291714 [Eh]
	 Total Energy              =    -466.1088298521588058 [Eh]

	 ================> DF-SCS-MP2 Energies <==================
	-----------------------------------------------------------
	 SCS Same-Spin Scale       =       0.3333333333333333 [-]
	 SCS Opposite-Spin Scale   =       1.2000000000000000 [-]
	 SCS Same-Spin Energy      =      -0.1730573489809883 [Eh]
	 SCS Opposite-Spin Energy  =      -2.0723324895434478 [Eh]
	 SCS Correlation Energy    =      -2.2453898385244360 [Eh]
	 SCS Total Energy          =    -466.1081039024540473 [Eh]
	-----------------------------------------------------------

  Dipole Moment: [D]
     X:    -0.6462      Y:    -0.2890      Z:     0.0562     Total:     0.7101

*** Psi4 exiting successfully. Buy a developer a beer!
