                               Psi4 1.4a3.dev225

  ==> Input File <==

--------------------------------------------------------------------------
#psi4
#
memory 32 gb

molecule  {
0 1
  C       -0.4426020    -0.8338200     0.2172010
  C       -2.7550300    -0.2335230    -0.2686280
  C       -1.3727340    -0.3393290    -0.9144000
  C       -1.1456910    -0.3766540     1.5340440
  C       -2.4139240     0.3715680     1.0951880
  C        0.9762580    -0.3476150     0.0696660
  C       -3.7696470     0.5602740    -1.0788290
  C        1.2785260     1.0190760     0.1766520
  C        2.0223850    -1.2394820    -0.1958260
  C        2.5868840     1.4777510     0.0263980
  C        3.3816482    -0.7693417    -0.3545578
  C        3.6209360     0.5756970    -0.2390260
  H       -0.4241810    -1.9311060     0.1924250
  H       -3.1414670    -1.2511910    -0.1070860
  H       -1.0573430     0.6588960    -1.2471640
  H       -1.3450850    -0.9967850    -1.7909970
  H       -0.4862050     0.2392810     2.1528250
  H       -1.4122900    -1.2543580     2.1330320
  H       -3.2323950     0.2935880     1.8197160
  H       -2.2008590     1.4410770     0.9595580
  H       -3.4037750     1.5784440    -1.2516650
  H       -3.9506210     0.0965540    -2.0538340
  H       -4.7289130     0.6299820    -0.5557020
  H        0.4812350     1.7322070     0.3831320
  H        1.8065840    -2.3037040    -0.2799060
  H        2.8010350     2.5405970     0.1152150
  H        4.1326410    -1.4960120    -0.5534930
  H        4.6413930     0.9324010    -0.3562540
units angstrom
no_reorient  #important for SAPT in psi4, default
symmetry c1  #important for SAPT in psi4, default
}

set PROPERTIES_ORIGIN ["COM"]
properties('MP2/aug-cc-pvtz', properties = ['dipole'])
--------------------------------------------------------------------------

    Molecular point group: c1
  Charge       = 0
  Multiplicity = 1
  Basis Set: AUG-CC-PVTZ
    Blend: AUG-CC-PVTZ
  Basis Set: (AUG-CC-PVTZ AUX)
    Blend: AUG-CC-PVTZ-JKFIT

    Orbital Energies [Eh]
    ---------------------

    Doubly Occupied:

       1A    -11.236221     2A    -11.233908     3A    -11.233502
       4A    -11.232450     5A    -11.229571     6A    -11.228292
       7A    -11.227062     8A    -11.221135     9A    -11.216679
      10A    -11.214882    11A    -11.214647    12A    -11.211556
      13A     -1.154537    14A     -1.124288    15A     -1.041362
      16A     -1.003821    17A     -0.989305    18A     -0.953893
      19A     -0.892216    20A     -0.828968    21A     -0.814659
      22A     -0.763567    23A     -0.757871    24A     -0.689389
      25A     -0.659973    26A     -0.638586    27A     -0.620619
      28A     -0.608211    29A     -0.587707    30A     -0.580814
      31A     -0.569969    32A     -0.556006    33A     -0.527387
      34A     -0.510024    35A     -0.508252    36A     -0.495410
      37A     -0.474595    38A     -0.463292    39A     -0.460476
      40A     -0.453139    41A     -0.450374    42A     -0.443159
      43A     -0.327799    44A     -0.322028

  @DF-RHF Final Energy:  -463.89144167058754

   => Energetics <=

    Nuclear Repulsion Energy =            675.3287545454579686
    One-Electron Energy =               -1966.4971889175960769
    Two-Electron Energy =                 827.2769927015506255
    Total Energy =                       -463.8914416705874828
  Basis Set: (AUG-CC-PVTZ AUX)
    Blend: AUG-CC-PVTZ-RI
    Molecular point group: c1

    Geometry (in Angstrom), charge = 0, multiplicity = 1:

       Center              X                  Y                   Z               Mass
    ------------   -----------------  -----------------  -----------------  -----------------
         C           -0.517504126993    -0.829399748673     0.214884413758    12.000000000000
         C           -2.829932126993    -0.229102748673    -0.270944586242    12.000000000000
         C           -1.447636126993    -0.334908748673    -0.916716586242    12.000000000000
         C           -1.220593126993    -0.372233748673     1.531727413758    12.000000000000
         C           -2.488826126993     0.375988251327     1.092871413758    12.000000000000
         C            0.901355873007    -0.343194748673     0.067349413758    12.000000000000
         C           -3.844549126993     0.564694251327    -1.081145586242    12.000000000000
         C            1.203623873007     1.023496251327     0.174335413758    12.000000000000
         C            1.947482873007    -1.235061748673    -0.198142586242    12.000000000000
         C            2.511981873007     1.482171251327     0.024081413758    12.000000000000
         C            3.306746073007    -0.764921448673    -0.356874386242    12.000000000000
         C            3.546033873007     0.580117251327    -0.241342586242    12.000000000000
         H           -0.499083126993    -1.926685748673     0.190108413758     1.007825032230
         H           -3.216369126993    -1.246770748673    -0.109402586242     1.007825032230
         H           -1.132245126993     0.663316251327    -1.249480586242     1.007825032230
         H           -1.419987126993    -0.992364748673    -1.793313586242     1.007825032230
         H           -0.561107126993     0.243701251327     2.150508413758     1.007825032230
         H           -1.487192126993    -1.249937748673     2.130715413758     1.007825032230
         H           -3.307297126993     0.298008251327     1.817399413758     1.007825032230
         H           -2.275761126993     1.445497251327     0.957241413758     1.007825032230
         H           -3.478677126993     1.582864251327    -1.253981586242     1.007825032230
         H           -4.025523126993     0.100974251327    -2.056150586242     1.007825032230
         H           -4.803815126993     0.634402251327    -0.558018586242     1.007825032230
         H            0.406332873007     1.736627251327     0.380815413758     1.007825032230
         H            1.731681873007    -2.299283748673    -0.282222586242     1.007825032230
         H            2.726132873007     2.545017251327     0.112898413758     1.007825032230
         H            4.057738873007    -1.491591748673    -0.555809586242     1.007825032230
         H            4.566490873007     0.936821251327    -0.358570586242     1.007825032230

  Basis Set: AUG-CC-PVTZ
    Blend: AUG-CC-PVTZ
  Basis Set: (AUG-CC-PVTZ AUX)
    Blend: AUG-CC-PVTZ-JKFIT
	 Reference Energy          =    -463.8914416705875396 [Eh]
	 Singles Energy            =      -0.0000000000000000 [Eh]
	 Same-Spin Energy          =      -0.5193503205319133 [Eh]
	 Opposite-Spin Energy      =      -1.7266450181007753 [Eh]
	 Correlation Energy        =      -2.2459953386326887 [Eh]
	 Total Energy              =    -466.1374370092202071 [Eh]

	 ================> DF-SCS-MP2 Energies <==================
	-----------------------------------------------------------
	 SCS Same-Spin Scale       =       0.3333333333333333 [-]
	 SCS Opposite-Spin Scale   =       1.2000000000000000 [-]
	 SCS Same-Spin Energy      =      -0.1731167735106378 [Eh]
	 SCS Opposite-Spin Energy  =      -2.0719740217209304 [Eh]
	 SCS Correlation Energy    =      -2.2450907952315680 [Eh]
	 SCS Total Energy          =    -466.1365324658191298 [Eh]
	-----------------------------------------------------------

  Dipole Moment: [D]
     X:    -0.5675      Y:    -0.2126      Z:     0.0361     Total:     0.6071

*** Psi4 exiting successfully. Buy a developer a beer!
