                               Psi4 1.4a3.dev225

  ==> Input File <==

--------------------------------------------------------------------------
#psi4
#
memory 32 gb

molecule  {
0 1
  C       -0.4426020    -0.8338200     0.2172010
  C       -2.6936097    -0.1468642    -0.2676039
  C       -1.3727340    -0.3393290    -0.9144000
  C       -1.1456910    -0.3766540     1.5340440
  C       -2.4139240     0.3715680     1.0951880
  C        0.9762580    -0.3476150     0.0696660
  C       -3.7696470     0.5602740    -1.0788290
  C        1.2785260     1.0190760     0.1766520
  C        2.0223850    -1.2394820    -0.1958260
  C        2.5868840     1.4777510     0.0263980
  C        3.3346800    -0.7855870    -0.3490730
  C        3.6209360     0.5756970    -0.2390260
  H       -0.4241810    -1.9311060     0.1924250
  H       -3.1414670    -1.2511910    -0.1070860
  H       -1.0573430     0.6588960    -1.2471640
  H       -1.3450850    -0.9967850    -1.7909970
  H       -0.4862050     0.2392810     2.1528250
  H       -1.4122900    -1.2543580     2.1330320
  H       -3.2323950     0.2935880     1.8197160
  H       -2.2008590     1.4410770     0.9595580
  H       -3.4037750     1.5784440    -1.2516650
  H       -3.9506210     0.0965540    -2.0538340
  H       -4.7289130     0.6299820    -0.5557020
  H        0.4812350     1.7322070     0.3831320
  H        1.8065840    -2.3037040    -0.2799060
  H        2.8010350     2.5405970     0.1152150
  H        4.1326410    -1.4960120    -0.5534930
  H        4.6413930     0.9324010    -0.3562540
units angstrom
no_reorient  #important for SAPT in psi4, default
symmetry c1  #important for SAPT in psi4, default
}

set PROPERTIES_ORIGIN ["COM"]
properties('MP2/aug-cc-pvtz', properties = ['dipole'])
--------------------------------------------------------------------------

    Molecular point group: c1
  Charge       = 0
  Multiplicity = 1
  Basis Set: AUG-CC-PVTZ
    Blend: AUG-CC-PVTZ
  Basis Set: (AUG-CC-PVTZ AUX)
    Blend: AUG-CC-PVTZ-JKFIT

    Orbital Energies [Eh]
    ---------------------

    Doubly Occupied:

       1A    -11.236931     2A    -11.233868     3A    -11.233148
       4A    -11.229576     5A    -11.229263     6A    -11.228752
       7A    -11.228515     8A    -11.226432     9A    -11.217895
      10A    -11.214624    11A    -11.214292    12A    -11.213153
      13A     -1.158959    14A     -1.131431    15A     -1.041402
      16A     -1.008770    17A     -0.989931    18A     -0.959013
      19A     -0.897817    20A     -0.827754    21A     -0.817956
      22A     -0.760541    23A     -0.750335    24A     -0.690864
      25A     -0.664969    26A     -0.635958    27A     -0.624375
      28A     -0.608703    29A     -0.585630    30A     -0.580335
      31A     -0.573348    32A     -0.558917    33A     -0.526481
      34A     -0.513275    35A     -0.510800    36A     -0.490275
      37A     -0.485496    38A     -0.468232    39A     -0.462946
      40A     -0.455293    41A     -0.451698    42A     -0.422759
      43A     -0.332630    44A     -0.319280

  @DF-RHF Final Energy:  -463.88176216574908

   => Energetics <=

    Nuclear Repulsion Energy =            677.1901707272389785
    One-Electron Energy =               -1970.1186218191996886
    Two-Electron Energy =                 829.0466889262115728
    Total Energy =                       -463.8817621657490236
  Basis Set: (AUG-CC-PVTZ AUX)
    Blend: AUG-CC-PVTZ-RI
    Molecular point group: c1

    Geometry (in Angstrom), charge = 0, multiplicity = 1:

       Center              X                  Y                   Z               Mass
    ------------   -----------------  -----------------  -----------------  -----------------
         C           -0.518587186995    -0.834676631995     0.214396627952    12.000000000000
         C           -2.769594886995    -0.147720831995    -0.270408272048    12.000000000000
         C           -1.448719186995    -0.340185631995    -0.917204372048    12.000000000000
         C           -1.221676186995    -0.377510631995     1.531239627952    12.000000000000
         C           -2.489909186995     0.370711368005     1.092383627952    12.000000000000
         C            0.900272813005    -0.348471631995     0.066861627952    12.000000000000
         C           -3.845632186995     0.559417368005    -1.081633372048    12.000000000000
         C            1.202540813005     1.018219368005     0.173847627952    12.000000000000
         C            1.946399813005    -1.240338631995    -0.198630372048    12.000000000000
         C            2.510898813005     1.476894368005     0.023593627952    12.000000000000
         C            3.258694813005    -0.786443631995    -0.351877372048    12.000000000000
         C            3.544950813005     0.574840368005    -0.241830372048    12.000000000000
         H           -0.500166186995    -1.931962631995     0.189620627952     1.007825032230
         H           -3.217452186995    -1.252047631995    -0.109890372048     1.007825032230
         H           -1.133328186995     0.658039368005    -1.249968372048     1.007825032230
         H           -1.421070186995    -0.997641631995    -1.793801372048     1.007825032230
         H           -0.562190186995     0.238424368005     2.150020627952     1.007825032230
         H           -1.488275186995    -1.255214631995     2.130227627952     1.007825032230
         H           -3.308380186995     0.292731368005     1.816911627952     1.007825032230
         H           -2.276844186995     1.440220368005     0.956753627952     1.007825032230
         H           -3.479760186995     1.577587368005    -1.254469372048     1.007825032230
         H           -4.026606186995     0.095697368005    -2.056638372048     1.007825032230
         H           -4.804898186995     0.629125368005    -0.558506372048     1.007825032230
         H            0.405249813005     1.731350368005     0.380327627952     1.007825032230
         H            1.730598813005    -2.304560631995    -0.282710372048     1.007825032230
         H            2.725049813005     2.539740368005     0.112410627952     1.007825032230
         H            4.056655813005    -1.496868631995    -0.556297372048     1.007825032230
         H            4.565407813005     0.931544368005    -0.359058372048     1.007825032230

  Basis Set: AUG-CC-PVTZ
    Blend: AUG-CC-PVTZ
  Basis Set: (AUG-CC-PVTZ AUX)
    Blend: AUG-CC-PVTZ-JKFIT
	 Reference Energy          =    -463.8817621657490804 [Eh]
	 Singles Energy            =      -0.0000000000000000 [Eh]
	 Same-Spin Energy          =      -0.5203113595311710 [Eh]
	 Opposite-Spin Energy      =      -1.7275630025904731 [Eh]
	 Correlation Energy        =      -2.2478743621216442 [Eh]
	 Total Energy              =    -466.1296365278707299 [Eh]

	 ================> DF-SCS-MP2 Energies <==================
	-----------------------------------------------------------
	 SCS Same-Spin Scale       =       0.3333333333333333 [-]
	 SCS Opposite-Spin Scale   =       1.2000000000000000 [-]
	 SCS Same-Spin Energy      =      -0.1734371198437237 [Eh]
	 SCS Opposite-Spin Energy  =      -2.0730756031085678 [Eh]
	 SCS Correlation Energy    =      -2.2465127229522914 [Eh]
	 SCS Total Energy          =    -466.1282748887013554 [Eh]
	-----------------------------------------------------------

  Dipole Moment: [D]
     X:    -0.5140      Y:    -0.1407      Z:     0.0389     Total:     0.5344

*** Psi4 exiting successfully. Buy a developer a beer!
