                               Psi4 1.4a3.dev225

  ==> Input File <==

--------------------------------------------------------------------------
#psi4
#
memory 32 gb

molecule  {
0 1
  C       -0.3648037    -0.8787757     0.2788551
  C       -2.7550300    -0.2335230    -0.2686280
  C       -1.3727340    -0.3393290    -0.9144000
  C       -1.1456910    -0.3766540     1.5340440
  C       -2.4139240     0.3715680     1.0951880
  C        0.9762580    -0.3476150     0.0696660
  C       -3.7696470     0.5602740    -1.0788290
  C        1.2785260     1.0190760     0.1766520
  C        2.0223850    -1.2394820    -0.1958260
  C        2.5868840     1.4777510     0.0263980
  C        3.3346800    -0.7855870    -0.3490730
  C        3.6209360     0.5756970    -0.2390260
  H       -0.4241810    -1.9311060     0.1924250
  H       -3.1414670    -1.2511910    -0.1070860
  H       -1.0573430     0.6588960    -1.2471640
  H       -1.3450850    -0.9967850    -1.7909970
  H       -0.4862050     0.2392810     2.1528250
  H       -1.4122900    -1.2543580     2.1330320
  H       -3.2323950     0.2935880     1.8197160
  H       -2.2008590     1.4410770     0.9595580
  H       -3.4037750     1.5784440    -1.2516650
  H       -3.9506210     0.0965540    -2.0538340
  H       -4.7289130     0.6299820    -0.5557020
  H        0.4812350     1.7322070     0.3831320
  H        1.8065840    -2.3037040    -0.2799060
  H        2.8010350     2.5405970     0.1152150
  H        4.1326410    -1.4960120    -0.5534930
  H        4.6413930     0.9324010    -0.3562540
units angstrom
no_reorient  #important for SAPT in psi4, default
symmetry c1  #important for SAPT in psi4, default
}

set PROPERTIES_ORIGIN ["COM"]
properties('MP2/aug-cc-pvtz', properties = ['dipole'])
--------------------------------------------------------------------------

    Molecular point group: c1
  Charge       = 0
  Multiplicity = 1
  Basis Set: AUG-CC-PVTZ
    Blend: AUG-CC-PVTZ
  Basis Set: (AUG-CC-PVTZ AUX)
    Blend: AUG-CC-PVTZ-JKFIT

    Orbital Energies [Eh]
    ---------------------

    Doubly Occupied:

       1A    -11.235186     2A    -11.234023     3A    -11.232570
       4A    -11.228975     5A    -11.228460     6A    -11.227370
       7A    -11.227070     8A    -11.221242     9A    -11.218956
      10A    -11.217732    11A    -11.215858    12A    -11.211937
      13A     -1.156447    14A     -1.119302    15A     -1.044602
      16A     -1.008665    17A     -0.988651    18A     -0.944229
      19A     -0.895919    20A     -0.830167    21A     -0.818044
      22A     -0.762580    23A     -0.759017    24A     -0.690527
      25A     -0.658341    26A     -0.637095    27A     -0.621450
      28A     -0.605381    29A     -0.586750    30A     -0.579594
      31A     -0.574293    32A     -0.556978    33A     -0.529735
      34A     -0.514662    35A     -0.507857    36A     -0.491937
      37A     -0.473945    38A     -0.465710    39A     -0.462813
      40A     -0.456742    41A     -0.448727    42A     -0.434135
      43A     -0.332452    44A     -0.313817

  @DF-RHF Final Energy:  -463.88446901451499

   => Energetics <=

    Nuclear Repulsion Energy =            675.3542722056650973
    One-Electron Energy =               -1966.5376010651832530
    Two-Electron Energy =                 827.2988598450031077
    Total Energy =                       -463.8844690145149343
  Basis Set: (AUG-CC-PVTZ AUX)
    Blend: AUG-CC-PVTZ-RI
    Molecular point group: c1

    Geometry (in Angstrom), charge = 0, multiplicity = 1:

       Center              X                  Y                   Z               Mass
    ------------   -----------------  -----------------  -----------------  -----------------
         C           -0.442016276558    -0.869768962613     0.271507033408    12.000000000000
         C           -2.832242576558    -0.224516262613    -0.275976066592    12.000000000000
         C           -1.449946576558    -0.330322262613    -0.921748066592    12.000000000000
         C           -1.222903576558    -0.367647262613     1.526695933408    12.000000000000
         C           -2.491136576558     0.380574737387     1.087839933408    12.000000000000
         C            0.899045423442    -0.338608262613     0.062317933408    12.000000000000
         C           -3.846859576558     0.569280737387    -1.086177066592    12.000000000000
         C            1.201313423442     1.028082737387     0.169303933408    12.000000000000
         C            1.945172423442    -1.230475262613    -0.203174066592    12.000000000000
         C            2.509671423442     1.486757737387     0.019049933408    12.000000000000
         C            3.257467423442    -0.776580262613    -0.356421066592    12.000000000000
         C            3.543723423442     0.584703737387    -0.246374066592    12.000000000000
         H           -0.501393576558    -1.922099262613     0.185076933408     1.007825032230
         H           -3.218679576558    -1.242184262613    -0.114434066592     1.007825032230
         H           -1.134555576558     0.667902737387    -1.254512066592     1.007825032230
         H           -1.422297576558    -0.987778262613    -1.798345066592     1.007825032230
         H           -0.563417576558     0.248287737387     2.145476933408     1.007825032230
         H           -1.489502576558    -1.245351262613     2.125683933408     1.007825032230
         H           -3.309607576558     0.302594737387     1.812367933408     1.007825032230
         H           -2.278071576558     1.450083737387     0.952209933408     1.007825032230
         H           -3.480987576558     1.587450737387    -1.259013066592     1.007825032230
         H           -4.027833576558     0.105560737387    -2.061182066592     1.007825032230
         H           -4.806125576558     0.638988737387    -0.563050066592     1.007825032230
         H            0.404022423442     1.741213737387     0.375783933408     1.007825032230
         H            1.729371423442    -2.294697262613    -0.287254066592     1.007825032230
         H            2.723822423442     2.549603737387     0.107866933408     1.007825032230
         H            4.055428423442    -1.487005262613    -0.560841066592     1.007825032230
         H            4.564180423442     0.941407737387    -0.363602066592     1.007825032230

  Basis Set: AUG-CC-PVTZ
    Blend: AUG-CC-PVTZ
  Basis Set: (AUG-CC-PVTZ AUX)
    Blend: AUG-CC-PVTZ-JKFIT
	 Reference Energy          =    -463.8844690145149912 [Eh]
	 Singles Energy            =      -0.0000000000000000 [Eh]
	 Same-Spin Energy          =      -0.5199576637724257 [Eh]
	 Opposite-Spin Energy      =      -1.7273767226752383 [Eh]
	 Correlation Energy        =      -2.2473343864476640 [Eh]
	 Total Energy              =    -466.1318034009626672 [Eh]

	 ================> DF-SCS-MP2 Energies <==================
	-----------------------------------------------------------
	 SCS Same-Spin Scale       =       0.3333333333333333 [-]
	 SCS Opposite-Spin Scale   =       1.2000000000000000 [-]
	 SCS Same-Spin Energy      =      -0.1733192212574752 [Eh]
	 SCS Opposite-Spin Energy  =      -2.0728520672102859 [Eh]
	 SCS Correlation Energy    =      -2.2461712884677612 [Eh]
	 SCS Total Energy          =    -466.1306403029827266 [Eh]
	-----------------------------------------------------------

  Dipole Moment: [D]
     X:    -0.6237      Y:    -0.2299      Z:     0.0513     Total:     0.6667

*** Psi4 exiting successfully. Buy a developer a beer!
