                               Psi4 1.4a3.dev225

  ==> Input File <==

--------------------------------------------------------------------------
#psi4
#
memory 32 gb

molecule  {
0 1
  C       -0.4426020    -0.8338200     0.2172010
  C       -2.7324041    -0.0871981    -0.3297985
  C       -1.3727340    -0.3393290    -0.9144000
  C       -1.1456910    -0.3766540     1.5340440
  C       -2.4139240     0.3715680     1.0951880
  C        0.9762580    -0.3476150     0.0696660
  C       -3.7696470     0.5602740    -1.0788290
  C        1.2785260     1.0190760     0.1766520
  C        2.0223850    -1.2394820    -0.1958260
  C        2.5868840     1.4777510     0.0263980
  C        3.3346800    -0.7855870    -0.3490730
  C        3.6209360     0.5756970    -0.2390260
  H       -0.4241810    -1.9311060     0.1924250
  H       -3.1414670    -1.2511910    -0.1070860
  H       -1.0573430     0.6588960    -1.2471640
  H       -1.3450850    -0.9967850    -1.7909970
  H       -0.4862050     0.2392810     2.1528250
  H       -1.4122900    -1.2543580     2.1330320
  H       -3.2323950     0.2935880     1.8197160
  H       -2.2008590     1.4410770     0.9595580
  H       -3.4037750     1.5784440    -1.2516650
  H       -3.9506210     0.0965540    -2.0538340
  H       -4.7289130     0.6299820    -0.5557020
  H        0.4812350     1.7322070     0.3831320
  H        1.8065840    -2.3037040    -0.2799060
  H        2.8010350     2.5405970     0.1152150
  H        4.1326410    -1.4960120    -0.5534930
  H        4.6413930     0.9324010    -0.3562540
units angstrom
no_reorient  #important for SAPT in psi4, default
symmetry c1  #important for SAPT in psi4, default
}

set PROPERTIES_ORIGIN ["COM"]
properties('MP2/aug-cc-pvtz', properties = ['dipole'])
--------------------------------------------------------------------------

    Molecular point group: c1
  Charge       = 0
  Multiplicity = 1
  Basis Set: AUG-CC-PVTZ
    Blend: AUG-CC-PVTZ
  Basis Set: (AUG-CC-PVTZ AUX)
    Blend: AUG-CC-PVTZ-JKFIT

    Orbital Energies [Eh]
    ---------------------

    Doubly Occupied:

       1A    -11.237582     2A    -11.234161     3A    -11.233480
       4A    -11.231100     5A    -11.230957     6A    -11.229771
       7A    -11.229249     8A    -11.229103     9A    -11.219019
      10A    -11.217581    11A    -11.216494    12A    -11.211922
      13A     -1.157765    14A     -1.129299    15A     -1.047613
      16A     -1.009282    17A     -0.998180    18A     -0.957463
      19A     -0.900171    20A     -0.827536    21A     -0.817843
      22A     -0.761193    23A     -0.744068    24A     -0.691998
      25A     -0.662830    26A     -0.637291    27A     -0.626629
      28A     -0.610203    29A     -0.588383    30A     -0.581703
      31A     -0.575767    32A     -0.562528    33A     -0.527985
      34A     -0.518882    35A     -0.511664    36A     -0.492493
      37A     -0.487115    38A     -0.471949    39A     -0.464049
      40A     -0.455376    41A     -0.445446    42A     -0.403379
      43A     -0.332924    44A     -0.320116

  @DF-RHF Final Energy:  -463.86734843089721

   => Energetics <=

    Nuclear Repulsion Energy =            676.7022016885862286
    One-Electron Energy =               -1969.0600170774257549
    Two-Electron Energy =                 828.4904669579423171
    Total Energy =                       -463.8673484308972093
  Basis Set: (AUG-CC-PVTZ AUX)
    Blend: AUG-CC-PVTZ-RI
    Molecular point group: c1

    Geometry (in Angstrom), charge = 0, multiplicity = 1:

       Center              X                  Y                   Z               Mass
    ------------   -----------------  -----------------  -----------------  -----------------
         C           -0.515679881970    -0.839148090564     0.219057575746    12.000000000000
         C           -2.805481981970    -0.092526190564    -0.327941924254    12.000000000000
         C           -1.445811881970    -0.344657090564    -0.912543424254    12.000000000000
         C           -1.218768881970    -0.381982090564     1.535900575746    12.000000000000
         C           -2.487001881970     0.366239909436     1.097044575746    12.000000000000
         C            0.903180118030    -0.352943090564     0.071522575746    12.000000000000
         C           -3.842724881970     0.554945909436    -1.076972424254    12.000000000000
         C            1.205448118030     1.013747909436     0.178508575746    12.000000000000
         C            1.949307118030    -1.244810090564    -0.193969424254    12.000000000000
         C            2.513806118030     1.472422909436     0.028254575746    12.000000000000
         C            3.261602118030    -0.790915090564    -0.347216424254    12.000000000000
         C            3.547858118030     0.570368909436    -0.237169424254    12.000000000000
         H           -0.497258881970    -1.936434090564     0.194281575746     1.007825032230
         H           -3.214544881970    -1.256519090564    -0.105229424254     1.007825032230
         H           -1.130420881970     0.653567909436    -1.245307424254     1.007825032230
         H           -1.418162881970    -1.002113090564    -1.789140424254     1.007825032230
         H           -0.559282881970     0.233952909436     2.154681575746     1.007825032230
         H           -1.485367881970    -1.259686090564     2.134888575746     1.007825032230
         H           -3.305472881970     0.288259909436     1.821572575746     1.007825032230
         H           -2.273936881970     1.435748909436     0.961414575746     1.007825032230
         H           -3.476852881970     1.573115909436    -1.249808424254     1.007825032230
         H           -4.023698881970     0.091225909436    -2.051977424254     1.007825032230
         H           -4.801990881970     0.624653909436    -0.553845424254     1.007825032230
         H            0.408157118030     1.726878909436     0.384988575746     1.007825032230
         H            1.733506118030    -2.309032090564    -0.278049424254     1.007825032230
         H            2.727957118030     2.535268909436     0.117071575746     1.007825032230
         H            4.059563118030    -1.501340090564    -0.551636424254     1.007825032230
         H            4.568315118030     0.927072909436    -0.354397424254     1.007825032230

  Basis Set: AUG-CC-PVTZ
    Blend: AUG-CC-PVTZ
  Basis Set: (AUG-CC-PVTZ AUX)
    Blend: AUG-CC-PVTZ-JKFIT
	 Reference Energy          =    -463.8673484308972093 [Eh]
	 Singles Energy            =      -0.0000000000000000 [Eh]
	 Same-Spin Energy          =      -0.5208244396661335 [Eh]
	 Opposite-Spin Energy      =      -1.7286651903815744 [Eh]
	 Correlation Energy        =      -2.2494896300477079 [Eh]
	 Total Energy              =    -466.1168380609449287 [Eh]

	 ================> DF-SCS-MP2 Energies <==================
	-----------------------------------------------------------
	 SCS Same-Spin Scale       =       0.3333333333333333 [-]
	 SCS Opposite-Spin Scale   =       1.2000000000000000 [-]
	 SCS Same-Spin Energy      =      -0.1736081465553778 [Eh]
	 SCS Opposite-Spin Energy  =      -2.0743982284578890 [Eh]
	 SCS Correlation Energy    =      -2.2480063750132668 [Eh]
	 SCS Total Energy          =    -466.1153548059104992 [Eh]
	-----------------------------------------------------------

  Dipole Moment: [D]
     X:    -0.4972      Y:    -0.0663      Z:    -0.0050     Total:     0.5016

*** Psi4 exiting successfully. Buy a developer a beer!
