                               Psi4 1.4a3.dev225

  ==> Input File <==

--------------------------------------------------------------------------
#psi4
#
memory 32 gb

molecule  {
0 1
  C       -0.4426020    -0.8338200     0.2172010
  C       -2.7550300    -0.2335230    -0.2686280
  C       -1.3727340    -0.3393290    -0.9144000
  C       -1.1456910    -0.3766540     1.5340440
  C       -2.4139240     0.3715680     1.0951880
  C        0.9762580    -0.3476150     0.0696660
  C       -3.7696470     0.5602740    -1.0788290
  C        1.2785260     1.0190760     0.1766520
  C        2.0223850    -1.2394820    -0.1958260
  C        2.5868840     1.4777510     0.0263980
  C        3.3346800    -0.7855870    -0.3490730
  C        3.6209360     0.5756970    -0.2390260
  H       -0.4241810    -1.9311060     0.1924250
  H       -3.1414670    -1.2511910    -0.1070860
  H       -1.0573430     0.6588960    -1.2471640
  H       -1.3450850    -0.9967850    -1.7909970
  H       -0.4862050     0.2392810     2.1528250
  H       -1.4122900    -1.2543580     2.1330320
  H       -3.2282458     0.2175826     1.8121852
  H       -2.2008590     1.4410770     0.9595580
  H       -3.4037750     1.5784440    -1.2516650
  H       -3.9506210     0.0965540    -2.0538340
  H       -4.7289130     0.6299820    -0.5557020
  H        0.4812350     1.7322070     0.3831320
  H        1.8065840    -2.3037040    -0.2799060
  H        2.8010350     2.5405970     0.1152150
  H        4.1326410    -1.4960120    -0.5534930
  H        4.6413930     0.9324010    -0.3562540
units angstrom
no_reorient  #important for SAPT in psi4, default
symmetry c1  #important for SAPT in psi4, default
}

set PROPERTIES_ORIGIN ["COM"]
properties('MP2/aug-cc-pvtz', properties = ['dipole'])
--------------------------------------------------------------------------

    Molecular point group: c1
  Charge       = 0
  Multiplicity = 1
  Basis Set: AUG-CC-PVTZ
    Blend: AUG-CC-PVTZ
  Basis Set: (AUG-CC-PVTZ AUX)
    Blend: AUG-CC-PVTZ-JKFIT

    Orbital Energies [Eh]
    ---------------------

    Doubly Occupied:

       1A    -11.236414     2A    -11.233572     3A    -11.232804
       4A    -11.228864     5A    -11.228406     6A    -11.228050
       7A    -11.227976     8A    -11.220750     9A    -11.216264
      10A    -11.214927    11A    -11.214450    12A    -11.211617
      13A     -1.155954    14A     -1.124915    15A     -1.039459
      16A     -1.008399    17A     -0.988550    18A     -0.953814
      19A     -0.892592    20A     -0.826284    21A     -0.815936
      22A     -0.762404    23A     -0.756869    24A     -0.689854
      25A     -0.661196    26A     -0.634958    27A     -0.622605
      28A     -0.606029    29A     -0.586494    30A     -0.580434
      31A     -0.573438    32A     -0.557186    33A     -0.528342
      34A     -0.511661    35A     -0.510059    36A     -0.490075
      37A     -0.473373    38A     -0.463755    39A     -0.460951
      40A     -0.453734    41A     -0.450191    42A     -0.443559
      43A     -0.332314    44A     -0.318674

  @DF-RHF Final Energy:  -463.89381292794349

   => Energetics <=

    Nuclear Repulsion Energy =            675.9964434143616927
    One-Electron Energy =               -1967.8442050887936148
    Two-Electron Energy =                 827.9539487464884360
    Total Energy =                       -463.8938129279434861
  Basis Set: (AUG-CC-PVTZ AUX)
    Blend: AUG-CC-PVTZ-RI
    Molecular point group: c1

    Geometry (in Angstrom), charge = 0, multiplicity = 1:

       Center              X                  Y                   Z               Mass
    ------------   -----------------  -----------------  -----------------  -----------------
         C           -0.514010381283    -0.827703927254     0.214520774112    12.000000000000
         C           -2.826438381283    -0.227406927254    -0.271308225888    12.000000000000
         C           -1.444142381283    -0.333212927254    -0.917080225888    12.000000000000
         C           -1.217099381283    -0.370537927254     1.531363774112    12.000000000000
         C           -2.485332381283     0.377684072746     1.092507774112    12.000000000000
         C            0.904849618717    -0.341498927254     0.066985774112    12.000000000000
         C           -3.841055381283     0.566390072746    -1.081509225888    12.000000000000
         C            1.207117618717     1.025192072746     0.173971774112    12.000000000000
         C            1.950976618717    -1.233365927254    -0.198506225888    12.000000000000
         C            2.515475618717     1.483867072746     0.023717774112    12.000000000000
         C            3.263271618717    -0.779470927254    -0.351753225888    12.000000000000
         C            3.549527618717     0.581813072746    -0.241706225888    12.000000000000
         H           -0.495589381283    -1.924989927254     0.189744774112     1.007825032230
         H           -3.212875381283    -1.245074927254    -0.109766225888     1.007825032230
         H           -1.128751381283     0.665012072746    -1.249844225888     1.007825032230
         H           -1.416493381283    -0.990668927254    -1.793677225888     1.007825032230
         H           -0.557613381283     0.245397072746     2.150144774112     1.007825032230
         H           -1.483698381283    -1.248241927254     2.130351774112     1.007825032230
         H           -3.299654181283     0.223698672746     1.809504974112     1.007825032230
         H           -2.272267381283     1.447193072746     0.956877774112     1.007825032230
         H           -3.475183381283     1.584560072746    -1.254345225888     1.007825032230
         H           -4.022029381283     0.102670072746    -2.056514225888     1.007825032230
         H           -4.800321381283     0.636098072746    -0.558382225888     1.007825032230
         H            0.409826618717     1.738323072746     0.380451774112     1.007825032230
         H            1.735175618717    -2.297587927254    -0.282586225888     1.007825032230
         H            2.729626618717     2.546713072746     0.112534774112     1.007825032230
         H            4.061232618717    -1.489895927254    -0.556173225888     1.007825032230
         H            4.569984618717     0.938517072746    -0.358934225888     1.007825032230

  Basis Set: AUG-CC-PVTZ
    Blend: AUG-CC-PVTZ
  Basis Set: (AUG-CC-PVTZ AUX)
    Blend: AUG-CC-PVTZ-JKFIT
	 Reference Energy          =    -463.8938129279434861 [Eh]
	 Singles Energy            =      -0.0000000000000000 [Eh]
	 Same-Spin Energy          =      -0.5195584995564568 [Eh]
	 Opposite-Spin Energy      =      -1.7265907261340163 [Eh]
	 Correlation Energy        =      -2.2461492256904734 [Eh]
	 Total Energy              =    -466.1399621536339737 [Eh]

	 ================> DF-SCS-MP2 Energies <==================
	-----------------------------------------------------------
	 SCS Same-Spin Scale       =       0.3333333333333333 [-]
	 SCS Opposite-Spin Scale   =       1.2000000000000000 [-]
	 SCS Same-Spin Energy      =      -0.1731861665188189 [Eh]
	 SCS Opposite-Spin Energy  =      -2.0719088713608196 [Eh]
	 SCS Correlation Energy    =      -2.2450950378796386 [Eh]
	 SCS Total Energy          =    -466.1389079658231367 [Eh]
	-----------------------------------------------------------

  Dipole Moment: [D]
     X:    -0.5727      Y:    -0.2215      Z:     0.0349     Total:     0.6151

*** Psi4 exiting successfully. Buy a developer a beer!
