                               Psi4 1.4a3.dev225

  ==> Input File <==

--------------------------------------------------------------------------
#psi4
#
memory 32 gb

molecule  {
0 1
  C       -0.4426020    -0.8338200     0.2172010
  C       -2.7550300    -0.2335230    -0.2686280
  C       -1.3727340    -0.3393290    -0.9144000
  C       -1.1456910    -0.3766540     1.5340440
  C       -2.4139240     0.3715680     1.0951880
  C        0.9762580    -0.3476150     0.0696660
  C       -3.8029823     0.5863542    -1.1054482
  C        1.2785260     1.0190760     0.1766520
  C        2.0223850    -1.2394820    -0.1958260
  C        2.5868840     1.4777510     0.0263980
  C        3.3346800    -0.7855870    -0.3490730
  C        3.6209360     0.5756970    -0.2390260
  H       -0.4241810    -1.9311060     0.1924250
  H       -3.1414670    -1.2511910    -0.1070860
  H       -1.0573430     0.6588960    -1.2471640
  H       -1.3450850    -0.9967850    -1.7909970
  H       -0.4862050     0.2392810     2.1528250
  H       -1.4122900    -1.2543580     2.1330320
  H       -3.2323950     0.2935880     1.8197160
  H       -2.2008590     1.4410770     0.9595580
  H       -3.4037750     1.5784440    -1.2516650
  H       -3.9506210     0.0965540    -2.0538340
  H       -4.7289130     0.6299820    -0.5557020
  H        0.4812350     1.7322070     0.3831320
  H        1.8065840    -2.3037040    -0.2799060
  H        2.8010350     2.5405970     0.1152150
  H        4.1326410    -1.4960120    -0.5534930
  H        4.6413930     0.9324010    -0.3562540
units angstrom
no_reorient  #important for SAPT in psi4, default
symmetry c1  #important for SAPT in psi4, default
}

set PROPERTIES_ORIGIN ["COM"]
properties('MP2/aug-cc-pvtz', properties = ['dipole'])
--------------------------------------------------------------------------

    Molecular point group: c1
  Charge       = 0
  Multiplicity = 1
  Basis Set: AUG-CC-PVTZ
    Blend: AUG-CC-PVTZ
  Basis Set: (AUG-CC-PVTZ AUX)
    Blend: AUG-CC-PVTZ-JKFIT

    Orbital Energies [Eh]
    ---------------------

    Doubly Occupied:

       1A    -11.236447     2A    -11.233544     3A    -11.232804
       4A    -11.228882     5A    -11.228378     6A    -11.228303
       7A    -11.228062     8A    -11.223252     9A    -11.216634
      10A    -11.214761    11A    -11.214602    12A    -11.209575
      13A     -1.155625    14A     -1.123057    15A     -1.037033
      16A     -1.008370    17A     -0.985839    18A     -0.953393
      19A     -0.895224    20A     -0.826321    21A     -0.816089
      22A     -0.762565    23A     -0.756870    24A     -0.689602
      25A     -0.659877    26A     -0.634497    27A     -0.620773
      28A     -0.604633    29A     -0.586322    30A     -0.580494
      31A     -0.574441    32A     -0.559899    33A     -0.531819
      34A     -0.513036    35A     -0.509321    36A     -0.489702
      37A     -0.474491    38A     -0.461574    39A     -0.456122
      40A     -0.452636    41A     -0.449949    42A     -0.446610
      43A     -0.332301    44A     -0.318688

  @DF-RHF Final Energy:  -463.89267762354791

   => Energetics <=

    Nuclear Repulsion Energy =            675.0774443591092222
    One-Electron Energy =               -1966.0154028006159024
    Two-Electron Energy =                 827.0452808179587691
    Total Energy =                       -463.8926776235479110
  Basis Set: (AUG-CC-PVTZ AUX)
    Blend: AUG-CC-PVTZ-RI
    Molecular point group: c1

    Geometry (in Angstrom), charge = 0, multiplicity = 1:

       Center              X                  Y                   Z               Mass
    ------------   -----------------  -----------------  -----------------  -----------------
         C           -0.511486073639    -0.830136789436     0.216468254398    12.000000000000
         C           -2.823914073639    -0.229839789436    -0.269360745602    12.000000000000
         C           -1.441618073639    -0.335645789436    -0.915132745602    12.000000000000
         C           -1.214575073639    -0.372970789436     1.533311254398    12.000000000000
         C           -2.482808073639     0.375251210564     1.094455254398    12.000000000000
         C            0.907373926361    -0.343931789436     0.068933254398    12.000000000000
         C           -3.871866373639     0.590037410564    -1.106180945602    12.000000000000
         C            1.209641926361     1.022759210564     0.175919254398    12.000000000000
         C            1.953500926361    -1.235798789436    -0.196558745602    12.000000000000
         C            2.517999926361     1.481434210564     0.025665254398    12.000000000000
         C            3.265795926361    -0.781903789436    -0.349805745602    12.000000000000
         C            3.552051926361     0.579380210564    -0.239758745602    12.000000000000
         H           -0.493065073639    -1.927422789436     0.191692254398     1.007825032230
         H           -3.210351073639    -1.247507789436    -0.107818745602     1.007825032230
         H           -1.126227073639     0.662579210564    -1.247896745602     1.007825032230
         H           -1.413969073639    -0.993101789436    -1.791729745602     1.007825032230
         H           -0.555089073639     0.242964210564     2.152092254398     1.007825032230
         H           -1.481174073639    -1.250674789436     2.132299254398     1.007825032230
         H           -3.301279073639     0.297271210564     1.818983254398     1.007825032230
         H           -2.269743073639     1.444760210564     0.958825254398     1.007825032230
         H           -3.472659073639     1.582127210564    -1.252397745602     1.007825032230
         H           -4.019505073639     0.100237210564    -2.054566745602     1.007825032230
         H           -4.797797073639     0.633665210564    -0.556434745602     1.007825032230
         H            0.412350926361     1.735890210564     0.382399254398     1.007825032230
         H            1.737699926361    -2.300020789436    -0.280638745602     1.007825032230
         H            2.732150926361     2.544280210564     0.114482254398     1.007825032230
         H            4.063756926361    -1.492328789436    -0.554225745602     1.007825032230
         H            4.572508926361     0.936084210564    -0.356986745602     1.007825032230

  Basis Set: AUG-CC-PVTZ
    Blend: AUG-CC-PVTZ
  Basis Set: (AUG-CC-PVTZ AUX)
    Blend: AUG-CC-PVTZ-JKFIT
	 Reference Energy          =    -463.8926776235479110 [Eh]
	 Singles Energy            =      -0.0000000000000000 [Eh]
	 Same-Spin Energy          =      -0.5192857363876837 [Eh]
	 Opposite-Spin Energy      =      -1.7263356100078786 [Eh]
	 Correlation Energy        =      -2.2456213463955623 [Eh]
	 Total Energy              =    -466.1382989699434916 [Eh]

	 ================> DF-SCS-MP2 Energies <==================
	-----------------------------------------------------------
	 SCS Same-Spin Scale       =       0.3333333333333333 [-]
	 SCS Opposite-Spin Scale   =       1.2000000000000000 [-]
	 SCS Same-Spin Energy      =      -0.1730952454625612 [Eh]
	 SCS Opposite-Spin Energy  =      -2.0716027320094543 [Eh]
	 SCS Correlation Energy    =      -2.2446979774720157 [Eh]
	 SCS Total Energy          =    -466.1373756010199259 [Eh]
	-----------------------------------------------------------

  Dipole Moment: [D]
     X:    -0.5657      Y:    -0.2043      Z:     0.0407     Total:     0.6028

*** Psi4 exiting successfully. Buy a developer a beer!
