                               Psi4 1.4a3.dev225

  ==> Input File <==

--------------------------------------------------------------------------
#psi4
#
memory 32 gb

molecule  {
0 1
  C       -0.4426020    -0.8338200     0.2172010
  C       -2.7550300    -0.2335230    -0.2686280
  C       -1.4328969    -0.3073443    -0.9875943
  C       -1.1456910    -0.3766540     1.5340440
  C       -2.4139240     0.3715680     1.0951880
  C        0.9762580    -0.3476150     0.0696660
  C       -3.7696470     0.5602740    -1.0788290
  C        1.2785260     1.0190760     0.1766520
  C        2.0223850    -1.2394820    -0.1958260
  C        2.5868840     1.4777510     0.0263980
  C        3.3346800    -0.7855870    -0.3490730
  C        3.6209360     0.5756970    -0.2390260
  H       -0.4241810    -1.9311060     0.1924250
  H       -3.1414670    -1.2511910    -0.1070860
  H       -1.0573430     0.6588960    -1.2471640
  H       -1.3450850    -0.9967850    -1.7909970
  H       -0.4862050     0.2392810     2.1528250
  H       -1.4122900    -1.2543580     2.1330320
  H       -3.2323950     0.2935880     1.8197160
  H       -2.2008590     1.4410770     0.9595580
  H       -3.4037750     1.5784440    -1.2516650
  H       -3.9506210     0.0965540    -2.0538340
  H       -4.7289130     0.6299820    -0.5557020
  H        0.4812350     1.7322070     0.3831320
  H        1.8065840    -2.3037040    -0.2799060
  H        2.8010350     2.5405970     0.1152150
  H        4.1326410    -1.4960120    -0.5534930
  H        4.6413930     0.9324010    -0.3562540
units angstrom
no_reorient  #important for SAPT in psi4, default
symmetry c1  #important for SAPT in psi4, default
}

set PROPERTIES_ORIGIN ["COM"]
properties('MP2/aug-cc-pvtz', properties = ['dipole'])
--------------------------------------------------------------------------

    Molecular point group: c1
  Charge       = 0
  Multiplicity = 1
  Basis Set: AUG-CC-PVTZ
    Blend: AUG-CC-PVTZ
  Basis Set: (AUG-CC-PVTZ AUX)
    Blend: AUG-CC-PVTZ-JKFIT

    Orbital Energies [Eh]
    ---------------------

    Doubly Occupied:

       1A    -11.236080     2A    -11.233334     3A    -11.232585
       4A    -11.231030     5A    -11.228428     6A    -11.227880
       7A    -11.227519     8A    -11.221135     9A    -11.216698
      10A    -11.215828    11A    -11.213872    12A    -11.210204
      13A     -1.153225    14A     -1.122294    15A     -1.038370
      16A     -1.008060    17A     -0.989794    18A     -0.948638
      19A     -0.893277    20A     -0.826475    21A     -0.816148
      22A     -0.767204    23A     -0.756286    24A     -0.687926
      25A     -0.662193    26A     -0.633333    27A     -0.620855
      28A     -0.604895    29A     -0.587823    30A     -0.581406
      31A     -0.573311    32A     -0.557814    33A     -0.532085
      34A     -0.510428    35A     -0.505953    36A     -0.491030
      37A     -0.479776    38A     -0.465481    39A     -0.459973
      40A     -0.457868    41A     -0.449352    42A     -0.431912
      43A     -0.332097    44A     -0.316049

  @DF-RHF Final Energy:  -463.88709165325912

   => Energetics <=

    Nuclear Repulsion Energy =            674.7125264986057118
    One-Electron Energy =               -1965.2873869517852654
    Two-Electron Energy =                 826.6877687999203772
    Total Energy =                       -463.8870916532591764
  Basis Set: (AUG-CC-PVTZ AUX)
    Blend: AUG-CC-PVTZ-RI
    Molecular point group: c1

    Geometry (in Angstrom), charge = 0, multiplicity = 1:

       Center              X                  Y                   Z               Mass
    ------------   -----------------  -----------------  -----------------  -----------------
         C           -0.509475576859    -0.830579280685     0.219958655648    12.000000000000
         C           -2.821903576859    -0.230282280685    -0.265870344352    12.000000000000
         C           -1.499770476859    -0.304103580685    -0.984836644352    12.000000000000
         C           -1.212564576859    -0.373413280685     1.536801655648    12.000000000000
         C           -2.480797576859     0.374808719315     1.097945655648    12.000000000000
         C            0.909384423141    -0.344374280685     0.072423655648    12.000000000000
         C           -3.836520576859     0.563514719315    -1.076071344352    12.000000000000
         C            1.211652423141     1.022316719315     0.179409655648    12.000000000000
         C            1.955511423141    -1.236241280685    -0.193068344352    12.000000000000
         C            2.520010423141     1.480991719315     0.029155655648    12.000000000000
         C            3.267806423141    -0.782346280685    -0.346315344352    12.000000000000
         C            3.554062423141     0.578937719315    -0.236268344352    12.000000000000
         H           -0.491054576859    -1.927865280685     0.195182655648     1.007825032230
         H           -3.208340576859    -1.247950280685    -0.104328344352     1.007825032230
         H           -1.124216576859     0.662136719315    -1.244406344352     1.007825032230
         H           -1.411958576859    -0.993544280685    -1.788239344352     1.007825032230
         H           -0.553078576859     0.242521719315     2.155582655648     1.007825032230
         H           -1.479163576859    -1.251117280685     2.135789655648     1.007825032230
         H           -3.299268576859     0.296828719315     1.822473655648     1.007825032230
         H           -2.267732576859     1.444317719315     0.962315655648     1.007825032230
         H           -3.470648576859     1.581684719315    -1.248907344352     1.007825032230
         H           -4.017494576859     0.099794719315    -2.051076344352     1.007825032230
         H           -4.795786576859     0.633222719315    -0.552944344352     1.007825032230
         H            0.414361423141     1.735447719315     0.385889655648     1.007825032230
         H            1.739710423141    -2.300463280685    -0.277148344352     1.007825032230
         H            2.734161423141     2.543837719315     0.117972655648     1.007825032230
         H            4.065767423141    -1.492771280685    -0.550735344352     1.007825032230
         H            4.574519423141     0.935641719315    -0.353496344352     1.007825032230

  Basis Set: AUG-CC-PVTZ
    Blend: AUG-CC-PVTZ
  Basis Set: (AUG-CC-PVTZ AUX)
    Blend: AUG-CC-PVTZ-JKFIT
	 Reference Energy          =    -463.8870916532591195 [Eh]
	 Singles Energy            =      -0.0000000000000000 [Eh]
	 Same-Spin Energy          =      -0.5194836927756294 [Eh]
	 Opposite-Spin Energy      =      -1.7268280263820464 [Eh]
	 Correlation Energy        =      -2.2463117191576760 [Eh]
	 Total Energy              =    -466.1334033724168080 [Eh]

	 ================> DF-SCS-MP2 Energies <==================
	-----------------------------------------------------------
	 SCS Same-Spin Scale       =       0.3333333333333333 [-]
	 SCS Opposite-Spin Scale   =       1.2000000000000000 [-]
	 SCS Same-Spin Energy      =      -0.1731612309252098 [Eh]
	 SCS Opposite-Spin Energy  =      -2.0721936316584557 [Eh]
	 SCS Correlation Energy    =      -2.2453548625836657 [Eh]
	 SCS Total Energy          =    -466.1324465158427870 [Eh]
	-----------------------------------------------------------

  Dipole Moment: [D]
     X:    -0.5800      Y:    -0.2214      Z:     0.0399     Total:     0.6221

*** Psi4 exiting successfully. Buy a developer a beer!
