                               Psi4 1.4a3.dev225

  ==> Input File <==

--------------------------------------------------------------------------
#psi4
#
memory 32 gb

molecule  {
0 1
  C       -0.4426020    -0.8338200     0.2172010
  C       -2.7550300    -0.2335230    -0.2686280
  C       -1.3727340    -0.3393290    -0.9144000
  C       -1.1456910    -0.3766540     1.5340440
  C       -2.4139240     0.3715680     1.0951880
  C        0.9762580    -0.3476150     0.0696660
  C       -3.7696470     0.5602740    -1.0788290
  C        1.2785260     1.0190760     0.1766520
  C        2.0223850    -1.2394820    -0.1958260
  C        2.5868840     1.4777510     0.0263980
  C        3.3346800    -0.7855870    -0.3490730
  C        3.6209360     0.5756970    -0.2390260
  H       -0.4258591    -1.8311456     0.1946820
  H       -3.1414670    -1.2511910    -0.1070860
  H       -1.0573430     0.6588960    -1.2471640
  H       -1.3450850    -0.9967850    -1.7909970
  H       -0.4862050     0.2392810     2.1528250
  H       -1.4122900    -1.2543580     2.1330320
  H       -3.2323950     0.2935880     1.8197160
  H       -2.2008590     1.4410770     0.9595580
  H       -3.4037750     1.5784440    -1.2516650
  H       -3.9506210     0.0965540    -2.0538340
  H       -4.7289130     0.6299820    -0.5557020
  H        0.4812350     1.7322070     0.3831320
  H        1.8065840    -2.3037040    -0.2799060
  H        2.8010350     2.5405970     0.1152150
  H        4.1326410    -1.4960120    -0.5534930
  H        4.6413930     0.9324010    -0.3562540
units angstrom
no_reorient  #important for SAPT in psi4, default
symmetry c1  #important for SAPT in psi4, default
}

set PROPERTIES_ORIGIN ["COM"]
properties('MP2/aug-cc-pvtz', properties = ['dipole'])
--------------------------------------------------------------------------

    Molecular point group: c1
  Charge       = 0
  Multiplicity = 1
  Basis Set: AUG-CC-PVTZ
    Blend: AUG-CC-PVTZ
  Basis Set: (AUG-CC-PVTZ AUX)
    Blend: AUG-CC-PVTZ-JKFIT

    Orbital Energies [Eh]
    ---------------------

    Doubly Occupied:

       1A    -11.235749     2A    -11.233308     3A    -11.232829
       4A    -11.228710     5A    -11.228154     6A    -11.227796
       7A    -11.220983     8A    -11.216184     9A    -11.215526
      10A    -11.214530    11A    -11.213971    12A    -11.211400
      13A     -1.156726    14A     -1.125194    15A     -1.041114
      16A     -1.008285    17A     -0.988340    18A     -0.955371
      19A     -0.894685    20A     -0.827376    21A     -0.815854
      22A     -0.765832    23A     -0.762194    24A     -0.692063
      25A     -0.662078    26A     -0.635449    27A     -0.622412
      28A     -0.606875    29A     -0.587124    30A     -0.579908
      31A     -0.576541    32A     -0.556016    33A     -0.528749
      34A     -0.511276    35A     -0.509714    36A     -0.490268
      37A     -0.474889    38A     -0.463044    39A     -0.461492
      40A     -0.457627    41A     -0.452191    42A     -0.443556
      43A     -0.332209    44A     -0.318459

  @DF-RHF Final Energy:  -463.88918494147526

   => Energetics <=

    Nuclear Repulsion Energy =            676.5285444686971914
    One-Electron Energy =               -1968.8713574118987708
    Two-Electron Energy =                 828.4536280017263152
    Total Energy =                       -463.8891849414752642
  Basis Set: (AUG-CC-PVTZ AUX)
    Blend: AUG-CC-PVTZ-RI
    Molecular point group: c1

    Geometry (in Angstrom), charge = 0, multiplicity = 1:

       Center              X                  Y                   Z               Mass
    ------------   -----------------  -----------------  -----------------  -----------------
         C           -0.513973704365    -0.828811452725     0.214459169881    12.000000000000
         C           -2.826401704365    -0.228514452725    -0.271369830119    12.000000000000
         C           -1.444105704365    -0.334320452725    -0.917141830119    12.000000000000
         C           -1.217062704365    -0.371645452725     1.531302169881    12.000000000000
         C           -2.485295704365     0.376576547275     1.092446169881    12.000000000000
         C            0.904886295635    -0.342606452725     0.066924169881    12.000000000000
         C           -3.841018704365     0.565282547275    -1.081570830119    12.000000000000
         C            1.207154295635     1.024084547275     0.173910169881    12.000000000000
         C            1.951013295635    -1.234473452725    -0.198567830119    12.000000000000
         C            2.515512295635     1.482759547275     0.023656169881    12.000000000000
         C            3.263308295635    -0.780578452725    -0.351814830119    12.000000000000
         C            3.549564295635     0.580705547275    -0.241767830119    12.000000000000
         H           -0.497230804365    -1.826137052725     0.191940169881     1.007825032230
         H           -3.212838704365    -1.246182452725    -0.109827830119     1.007825032230
         H           -1.128714704365     0.663904547275    -1.249905830119     1.007825032230
         H           -1.416456704365    -0.991776452725    -1.793738830119     1.007825032230
         H           -0.557576704365     0.244289547275     2.150083169881     1.007825032230
         H           -1.483661704365    -1.249349452725     2.130290169881     1.007825032230
         H           -3.303766704365     0.298596547275     1.816974169881     1.007825032230
         H           -2.272230704365     1.446085547275     0.956816169881     1.007825032230
         H           -3.475146704365     1.583452547275    -1.254406830119     1.007825032230
         H           -4.021992704365     0.101562547275    -2.056575830119     1.007825032230
         H           -4.800284704365     0.634990547275    -0.558443830119     1.007825032230
         H            0.409863295635     1.737215547275     0.380390169881     1.007825032230
         H            1.735212295635    -2.298695452725    -0.282647830119     1.007825032230
         H            2.729663295635     2.545605547275     0.112473169881     1.007825032230
         H            4.061269295635    -1.491003452725    -0.556234830119     1.007825032230
         H            4.570021295635     0.937409547275    -0.358995830119     1.007825032230

  Basis Set: AUG-CC-PVTZ
    Blend: AUG-CC-PVTZ
  Basis Set: (AUG-CC-PVTZ AUX)
    Blend: AUG-CC-PVTZ-JKFIT
	 Reference Energy          =    -463.8891849414752642 [Eh]
	 Singles Energy            =      -0.0000000000000000 [Eh]
	 Same-Spin Energy          =      -0.5193614499384315 [Eh]
	 Opposite-Spin Energy      =      -1.7256857744391709 [Eh]
	 Correlation Energy        =      -2.2450472243776023 [Eh]
	 Total Energy              =    -466.1342321658528931 [Eh]

	 ================> DF-SCS-MP2 Energies <==================
	-----------------------------------------------------------
	 SCS Same-Spin Scale       =       0.3333333333333333 [-]
	 SCS Opposite-Spin Scale   =       1.2000000000000000 [-]
	 SCS Same-Spin Energy      =      -0.1731204833128105 [Eh]
	 SCS Opposite-Spin Energy  =      -2.0708229293270048 [Eh]
	 SCS Correlation Energy    =      -2.2439434126398154 [Eh]
	 SCS Total Energy          =    -466.1331283541150583 [Eh]
	-----------------------------------------------------------

  Dipole Moment: [D]
     X:    -0.5716      Y:    -0.2556      Z:     0.0363     Total:     0.6271

*** Psi4 exiting successfully. Buy a developer a beer!
