                               Psi4 1.4a3.dev225

  ==> Input File <==

--------------------------------------------------------------------------
#psi4
#
memory 32 gb

molecule  {
0 1
  C       -0.4426020    -0.8338200     0.2172010
  C       -2.7550300    -0.2335230    -0.2686280
  C       -1.3727340    -0.3393290    -0.9144000
  C       -1.1456910    -0.3766540     1.5340440
  C       -2.4139240     0.3715680     1.0951880
  C        0.9762580    -0.3476150     0.0696660
  C       -3.7696470     0.5602740    -1.0788290
  C        1.2785260     1.0190760     0.1766520
  C        2.0223850    -1.2394820    -0.1958260
  C        2.5868840     1.4777510     0.0263980
  C        3.3346800    -0.7855870    -0.3490730
  C        3.6209360     0.5756970    -0.2390260
  H       -0.4241810    -1.9311060     0.1924250
  H       -3.1414670    -1.2511910    -0.1070860
  H       -1.0573430     0.6588960    -1.2471640
  H       -1.3450850    -0.9967850    -1.7909970
  H       -0.4862050     0.2392810     2.1528250
  H       -1.4122900    -1.2543580     2.1330320
  H       -3.2323950     0.2935880     1.8197160
  H       -2.2008590     1.4410770     0.9595580
  H       -3.4037750     1.5784440    -1.2516650
  H       -3.9506210     0.0965540    -2.0538340
  H       -4.7289130     0.6299820    -0.5557020
  H        0.4812350     1.7322070     0.3831320
  H        1.8065840    -2.3037040    -0.2799060
  H        2.8010350     2.5405970     0.1152150
  H        4.1326410    -1.4960120    -0.5534930
  H        4.5944686     0.9159984    -0.3508634
units angstrom
no_reorient  #important for SAPT in psi4, default
symmetry c1  #important for SAPT in psi4, default
}

set PROPERTIES_ORIGIN ["COM"]
properties('MP2/aug-cc-pvtz', properties = ['dipole'])
--------------------------------------------------------------------------

    Molecular point group: c1
  Charge       = 0
  Multiplicity = 1
  Basis Set: AUG-CC-PVTZ
    Blend: AUG-CC-PVTZ
  Basis Set: (AUG-CC-PVTZ AUX)
    Blend: AUG-CC-PVTZ-JKFIT

    Orbital Energies [Eh]
    ---------------------

    Doubly Occupied:

       1A    -11.236314     2A    -11.233082     3A    -11.232351
       4A    -11.228246     5A    -11.228077     6A    -11.227785
       7A    -11.222993     8A    -11.221084     9A    -11.216588
      10A    -11.214797    11A    -11.214633    12A    -11.211520
      13A     -1.155904    14A     -1.124844    15A     -1.040176
      16A     -1.008090    17A     -0.988910    18A     -0.954292
      19A     -0.893063    20A     -0.826756    21A     -0.817765
      22A     -0.763497    23A     -0.757409    24A     -0.694336
      25A     -0.660587    26A     -0.637174    27A     -0.621785
      28A     -0.606816    29A     -0.586045    30A     -0.579754
      31A     -0.573857    32A     -0.556977    33A     -0.530048
      34A     -0.512449    35A     -0.509798    36A     -0.489791
      37A     -0.475322    38A     -0.463270    39A     -0.461265
      40A     -0.453709    41A     -0.450163    42A     -0.443831
      43A     -0.332033    44A     -0.318586

  @DF-RHF Final Energy:  -463.89362419006966

   => Energetics <=

    Nuclear Repulsion Energy =            676.2079530434386925
    One-Electron Energy =               -1968.2516144850951605
    Two-Electron Energy =                 828.1500372515868094
    Total Energy =                       -463.8936241900696587
  Basis Set: (AUG-CC-PVTZ AUX)
    Blend: AUG-CC-PVTZ-RI
    Molecular point group: c1

    Geometry (in Angstrom), charge = 0, multiplicity = 1:

       Center              X                  Y                   Z               Mass
    ------------   -----------------  -----------------  -----------------  -----------------
         C           -0.513688924995    -0.828079066168     0.214439447061    12.000000000000
         C           -2.826116924995    -0.227782066168    -0.271389552939    12.000000000000
         C           -1.443820924995    -0.333588066168    -0.917161552939    12.000000000000
         C           -1.216777924995    -0.370913066168     1.531282447061    12.000000000000
         C           -2.485010924995     0.377308933832     1.092426447061    12.000000000000
         C            0.905171075005    -0.341874066168     0.066904447061    12.000000000000
         C           -3.840733924995     0.566014933832    -1.081590552939    12.000000000000
         C            1.207439075005     1.024816933832     0.173890447061    12.000000000000
         C            1.951298075005    -1.233741066168    -0.198587552939    12.000000000000
         C            2.515797075005     1.483491933832     0.023636447061    12.000000000000
         C            3.263593075005    -0.779846066168    -0.351834552939    12.000000000000
         C            3.549849075005     0.581437933832    -0.241787552939    12.000000000000
         H           -0.495267924995    -1.925365066168     0.189663447061     1.007825032230
         H           -3.212553924995    -1.245450066168    -0.109847552939     1.007825032230
         H           -1.128429924995     0.664636933832    -1.249925552939     1.007825032230
         H           -1.416171924995    -0.991044066168    -1.793758552939     1.007825032230
         H           -0.557291924995     0.245021933832     2.150063447061     1.007825032230
         H           -1.483376924995    -1.248617066168     2.130270447061     1.007825032230
         H           -3.303481924995     0.299328933832     1.816954447061     1.007825032230
         H           -2.271945924995     1.446817933832     0.956796447061     1.007825032230
         H           -3.474861924995     1.584184933832    -1.254426552939     1.007825032230
         H           -4.021707924995     0.102294933832    -2.056595552939     1.007825032230
         H           -4.799999924995     0.635722933832    -0.558463552939     1.007825032230
         H            0.410148075005     1.737947933832     0.380370447061     1.007825032230
         H            1.735497075005    -2.297963066168    -0.282667552939     1.007825032230
         H            2.729948075005     2.546337933832     0.112453447061     1.007825032230
         H            4.061554075005    -1.490271066168    -0.556254552939     1.007825032230
         H            4.523381675005     0.921739333832    -0.353624952939     1.007825032230

  Basis Set: AUG-CC-PVTZ
    Blend: AUG-CC-PVTZ
  Basis Set: (AUG-CC-PVTZ AUX)
    Blend: AUG-CC-PVTZ-JKFIT
	 Reference Energy          =    -463.8936241900696587 [Eh]
	 Singles Energy            =      -0.0000000000000000 [Eh]
	 Same-Spin Energy          =      -0.5194346146163061 [Eh]
	 Opposite-Spin Energy      =      -1.7261182458915183 [Eh]
	 Correlation Energy        =      -2.2455528605078245 [Eh]
	 Total Energy              =    -466.1391770505774730 [Eh]

	 ================> DF-SCS-MP2 Energies <==================
	-----------------------------------------------------------
	 SCS Same-Spin Scale       =       0.3333333333333333 [-]
	 SCS Opposite-Spin Scale   =       1.2000000000000000 [-]
	 SCS Same-Spin Energy      =      -0.1731448715387687 [Eh]
	 SCS Opposite-Spin Energy  =      -2.0713418950698217 [Eh]
	 SCS Correlation Energy    =      -2.2444867666085906 [Eh]
	 SCS Total Energy          =    -466.1381109566782470 [Eh]
	-----------------------------------------------------------

  Dipole Moment: [D]
     X:    -0.5491      Y:    -0.1963      Z:     0.0352     Total:     0.5841

*** Psi4 exiting successfully. Buy a developer a beer!
