                               Psi4 1.4a3.dev225

  ==> Input File <==

--------------------------------------------------------------------------
#psi4
#
memory 32 gb

molecule  {
0 1
  C       -0.4336808    -0.7286827     0.1899727
  C       -2.7550300    -0.2335230    -0.2686280
  C       -1.3727340    -0.3393290    -0.9144000
  C       -1.1456910    -0.3766540     1.5340440
  C       -2.4139240     0.3715680     1.0951880
  C        0.9762580    -0.3476150     0.0696660
  C       -3.7696470     0.5602740    -1.0788290
  C        1.2785260     1.0190760     0.1766520
  C        2.0223850    -1.2394820    -0.1958260
  C        2.5868840     1.4777510     0.0263980
  C        3.3346800    -0.7855870    -0.3490730
  C        3.6209360     0.5756970    -0.2390260
  H       -0.4241810    -1.9311060     0.1924250
  H       -3.1414670    -1.2511910    -0.1070860
  H       -1.0573430     0.6588960    -1.2471640
  H       -1.3450850    -0.9967850    -1.7909970
  H       -0.4862050     0.2392810     2.1528250
  H       -1.4122900    -1.2543580     2.1330320
  H       -3.2323950     0.2935880     1.8197160
  H       -2.2008590     1.4410770     0.9595580
  H       -3.4037750     1.5784440    -1.2516650
  H       -3.9506210     0.0965540    -2.0538340
  H       -4.7289130     0.6299820    -0.5557020
  H        0.4812350     1.7322070     0.3831320
  H        1.8065840    -2.3037040    -0.2799060
  H        2.8010350     2.5405970     0.1152150
  H        4.1326410    -1.4960120    -0.5534930
  H        4.6413930     0.9324010    -0.3562540
units angstrom
no_reorient  #important for SAPT in psi4, default
symmetry c1  #important for SAPT in psi4, default
}

set PROPERTIES_ORIGIN ["COM"]
properties('MP2/aug-cc-pvtz', properties = ['dipole'])
--------------------------------------------------------------------------

    Molecular point group: c1
  Charge       = 0
  Multiplicity = 1
  Basis Set: AUG-CC-PVTZ
    Blend: AUG-CC-PVTZ
  Basis Set: (AUG-CC-PVTZ AUX)
    Blend: AUG-CC-PVTZ-JKFIT

    Orbital Energies [Eh]
    ---------------------

    Doubly Occupied:

       1A    -11.235266     2A    -11.233943     3A    -11.233653
       4A    -11.232403     5A    -11.230394     6A    -11.230180
       7A    -11.228379     8A    -11.221982     9A    -11.217993
      10A    -11.215060    11A    -11.213594    12A    -11.212044
      13A     -1.160502    14A     -1.127612    15A     -1.043386
      16A     -1.009336    17A     -0.989191    18A     -0.958294
      19A     -0.892008    20A     -0.826353    21A     -0.820511
      22A     -0.765695    23A     -0.751767    24A     -0.689458
      25A     -0.661893    26A     -0.639618    27A     -0.622595
      28A     -0.607347    29A     -0.585352    30A     -0.581152
      31A     -0.569622    32A     -0.558019    33A     -0.528546
      34A     -0.514083    35A     -0.510187    36A     -0.490052
      37A     -0.482714    38A     -0.467409    39A     -0.465500
      40A     -0.454686    41A     -0.447100    42A     -0.422091
      43A     -0.333027    44A     -0.320722

  @DF-RHF Final Energy:  -463.88079400212968

   => Energetics <=

    Nuclear Repulsion Energy =            677.1603890457074613
    One-Electron Energy =               -1970.0809332162159535
    Two-Electron Energy =                 829.0397501683787596
    Total Energy =                       -463.8807940021297327
  Basis Set: (AUG-CC-PVTZ AUX)
    Blend: AUG-CC-PVTZ-RI
    Molecular point group: c1

    Geometry (in Angstrom), charge = 0, multiplicity = 1:

       Center              X                  Y                   Z               Mass
    ------------   -----------------  -----------------  -----------------  -----------------
         C           -0.505731633139    -0.730924135881     0.189285601179    12.000000000000
         C           -2.827080833139    -0.235764435881    -0.269315098821    12.000000000000
         C           -1.444784833139    -0.341570435881    -0.915087098821    12.000000000000
         C           -1.217741833139    -0.378895435881     1.533356901179    12.000000000000
         C           -2.485974833139     0.369326564119     1.094500901179    12.000000000000
         C            0.904207166861    -0.349856435881     0.068978901179    12.000000000000
         C           -3.841697833139     0.558032564119    -1.079516098821    12.000000000000
         C            1.206475166861     1.016834564119     0.175964901179    12.000000000000
         C            1.950334166861    -1.241723435881    -0.196513098821    12.000000000000
         C            2.514833166861     1.475509564119     0.025710901179    12.000000000000
         C            3.262629166861    -0.787828435881    -0.349760098821    12.000000000000
         C            3.548885166861     0.573455564119    -0.239713098821    12.000000000000
         H           -0.496231833139    -1.933347435881     0.191737901179     1.007825032230
         H           -3.213517833139    -1.253432435881    -0.107773098821     1.007825032230
         H           -1.129393833139     0.656654564119    -1.247851098821     1.007825032230
         H           -1.417135833139    -0.999026435881    -1.791684098821     1.007825032230
         H           -0.558255833139     0.237039564119     2.152137901179     1.007825032230
         H           -1.484340833139    -1.256599435881     2.132344901179     1.007825032230
         H           -3.304445833139     0.291346564119     1.819028901179     1.007825032230
         H           -2.272909833139     1.438835564119     0.958870901179     1.007825032230
         H           -3.475825833139     1.576202564119    -1.252352098821     1.007825032230
         H           -4.022671833139     0.094312564119    -2.054521098821     1.007825032230
         H           -4.800963833139     0.627740564119    -0.556389098821     1.007825032230
         H            0.409184166861     1.729965564119     0.382444901179     1.007825032230
         H            1.734533166861    -2.305945435881    -0.280593098821     1.007825032230
         H            2.728984166861     2.538355564119     0.114527901179     1.007825032230
         H            4.060590166861    -1.498253435881    -0.554180098821     1.007825032230
         H            4.569342166861     0.930159564119    -0.356941098821     1.007825032230

  Basis Set: AUG-CC-PVTZ
    Blend: AUG-CC-PVTZ
  Basis Set: (AUG-CC-PVTZ AUX)
    Blend: AUG-CC-PVTZ-JKFIT
	 Reference Energy          =    -463.8807940021296758 [Eh]
	 Singles Energy            =      -0.0000000000000000 [Eh]
	 Same-Spin Energy          =      -0.5206046855550710 [Eh]
	 Opposite-Spin Energy      =      -1.7282323990248682 [Eh]
	 Correlation Energy        =      -2.2488370845799395 [Eh]
	 Total Energy              =    -466.1296310867095940 [Eh]

	 ================> DF-SCS-MP2 Energies <==================
	-----------------------------------------------------------
	 SCS Same-Spin Scale       =       0.3333333333333333 [-]
	 SCS Opposite-Spin Scale   =       1.2000000000000000 [-]
	 SCS Same-Spin Energy      =      -0.1735348951850237 [Eh]
	 SCS Opposite-Spin Energy  =      -2.0738788788298419 [Eh]
	 SCS Correlation Energy    =      -2.2474137740148654 [Eh]
	 SCS Total Energy          =    -466.1282077761445635 [Eh]
	-----------------------------------------------------------

  Dipole Moment: [D]
     X:    -0.5177      Y:    -0.1014      Z:     0.0282     Total:     0.5283

*** Psi4 exiting successfully. Buy a developer a beer!
