                               Psi4 1.4a3.dev225

  ==> Input File <==

--------------------------------------------------------------------------
#psi4
#
memory 32 gb

molecule  {
0 1
  C       -0.4426020    -0.8338200     0.2172010
  C       -2.7550300    -0.2335230    -0.2686280
  C       -1.3727340    -0.3393290    -0.9144000
  C       -1.1456910    -0.3766540     1.5340440
  C       -2.4139240     0.3715680     1.0951880
  C        0.9762580    -0.3476150     0.0696660
  C       -3.7696470     0.5602740    -1.0788290
  C        1.2785260     1.0190760     0.1766520
  C        2.0223850    -1.2394820    -0.1958260
  C        2.5868840     1.4777510     0.0263980
  C        3.3346800    -0.7855870    -0.3490730
  C        3.6209360     0.5756970    -0.2390260
  H       -0.4241810    -1.9311060     0.1924250
  H       -3.1414670    -1.2511910    -0.1070860
  H       -1.0458394     0.6136167    -1.3522251
  H       -1.3450850    -0.9967850    -1.7909970
  H       -0.4862050     0.2392810     2.1528250
  H       -1.4122900    -1.2543580     2.1330320
  H       -3.2323950     0.2935880     1.8197160
  H       -2.2008590     1.4410770     0.9595580
  H       -3.4037750     1.5784440    -1.2516650
  H       -3.9506210     0.0965540    -2.0538340
  H       -4.7289130     0.6299820    -0.5557020
  H        0.4812350     1.7322070     0.3831320
  H        1.8065840    -2.3037040    -0.2799060
  H        2.8010350     2.5405970     0.1152150
  H        4.1326410    -1.4960120    -0.5534930
  H        4.6413930     0.9324010    -0.3562540
units angstrom
no_reorient  #important for SAPT in psi4, default
symmetry c1  #important for SAPT in psi4, default
}

set PROPERTIES_ORIGIN ["COM"]
properties('MP2/aug-cc-pvtz', properties = ['dipole'])
--------------------------------------------------------------------------

    Molecular point group: c1
  Charge       = 0
  Multiplicity = 1
  Basis Set: AUG-CC-PVTZ
    Blend: AUG-CC-PVTZ
  Basis Set: (AUG-CC-PVTZ AUX)
    Blend: AUG-CC-PVTZ-JKFIT

    Orbital Energies [Eh]
    ---------------------

    Doubly Occupied:

       1A    -11.236508     2A    -11.233462     3A    -11.232771
       4A    -11.228995     5A    -11.228847     6A    -11.228254
       7A    -11.228052     8A    -11.221808     9A    -11.216723
      10A    -11.214847    11A    -11.214272    12A    -11.211608
      13A     -1.155738    14A     -1.124396    15A     -1.039451
      16A     -1.008329    17A     -0.988517    18A     -0.953955
      19A     -0.892626    20A     -0.826276    21A     -0.816218
      22A     -0.764806    23A     -0.757885    24A     -0.689722
      25A     -0.659636    26A     -0.635621    27A     -0.621615
      28A     -0.606617    29A     -0.586200    30A     -0.579389
      31A     -0.572626    32A     -0.555289    33A     -0.527012
      34A     -0.510954    35A     -0.510446    36A     -0.489626
      37A     -0.475831    38A     -0.464347    39A     -0.461055
      40A     -0.452996    41A     -0.450517    42A     -0.443487
      43A     -0.332269    44A     -0.318666

  @DF-RHF Final Energy:  -463.89323389949794

   => Energetics <=

    Nuclear Repulsion Energy =            675.7517449286331157
    One-Electron Energy =               -1967.3534309131741793
    Two-Electron Energy =                 827.7084520850430636
    Total Energy =                       -463.8932338994980000
  Basis Set: (AUG-CC-PVTZ AUX)
    Blend: AUG-CC-PVTZ-RI
    Molecular point group: c1

    Geometry (in Angstrom), charge = 0, multiplicity = 1:

       Center              X                  Y                   Z               Mass
    ------------   -----------------  -----------------  -----------------  -----------------
         C           -0.514056669739    -0.827897316756     0.215134628005    12.000000000000
         C           -2.826484669739    -0.227600316756    -0.270694371995    12.000000000000
         C           -1.444188669739    -0.333406316756    -0.916466371995    12.000000000000
         C           -1.217145669739    -0.370731316756     1.531977628005    12.000000000000
         C           -2.485378669739     0.377490683244     1.093121628005    12.000000000000
         C            0.904803330261    -0.341692316756     0.067599628005    12.000000000000
         C           -3.841101669739     0.566196683244    -1.080895371995    12.000000000000
         C            1.207071330261     1.024998683244     0.174585628005    12.000000000000
         C            1.950930330261    -1.233559316756    -0.197892371995    12.000000000000
         C            2.515429330261     1.483673683244     0.024331628005    12.000000000000
         C            3.263225330261    -0.779664316756    -0.351139371995    12.000000000000
         C            3.549481330261     0.581619683244    -0.241092371995    12.000000000000
         H           -0.495635669739    -1.925183316756     0.190358628005     1.007825032230
         H           -3.212921669739    -1.245268316756    -0.109152371995     1.007825032230
         H           -1.117294069739     0.619539383244    -1.354291471995     1.007825032230
         H           -1.416539669739    -0.990862316756    -1.793063371995     1.007825032230
         H           -0.557659669739     0.245203683244     2.150758628005     1.007825032230
         H           -1.483744669739    -1.248435316756     2.130965628005     1.007825032230
         H           -3.303849669739     0.299510683244     1.817649628005     1.007825032230
         H           -2.272313669739     1.446999683244     0.957491628005     1.007825032230
         H           -3.475229669739     1.584366683244    -1.253731371995     1.007825032230
         H           -4.022075669739     0.102476683244    -2.055900371995     1.007825032230
         H           -4.800367669739     0.635904683244    -0.557768371995     1.007825032230
         H            0.409780330261     1.738129683244     0.381065628005     1.007825032230
         H            1.735129330261    -2.297781316756    -0.281972371995     1.007825032230
         H            2.729580330261     2.546519683244     0.113148628005     1.007825032230
         H            4.061186330261    -1.490089316756    -0.555559371995     1.007825032230
         H            4.569938330261     0.938323683244    -0.358320371995     1.007825032230

  Basis Set: AUG-CC-PVTZ
    Blend: AUG-CC-PVTZ
  Basis Set: (AUG-CC-PVTZ AUX)
    Blend: AUG-CC-PVTZ-JKFIT
	 Reference Energy          =    -463.8932338994979432 [Eh]
	 Singles Energy            =      -0.0000000000000000 [Eh]
	 Same-Spin Energy          =      -0.5194000580494176 [Eh]
	 Opposite-Spin Energy      =      -1.7262888486951486 [Eh]
	 Correlation Energy        =      -2.2456889067445660 [Eh]
	 Total Energy              =    -466.1389228062425332 [Eh]

	 ================> DF-SCS-MP2 Energies <==================
	-----------------------------------------------------------
	 SCS Same-Spin Scale       =       0.3333333333333333 [-]
	 SCS Opposite-Spin Scale   =       1.2000000000000000 [-]
	 SCS Same-Spin Energy      =      -0.1731333526831392 [Eh]
	 SCS Opposite-Spin Energy  =      -2.0715466184341782 [Eh]
	 SCS Correlation Energy    =      -2.2446799711173173 [Eh]
	 SCS Total Energy          =    -466.1379138706152503 [Eh]
	-----------------------------------------------------------

  Dipole Moment: [D]
     X:    -0.5698      Y:    -0.1936      Z:     0.0133     Total:     0.6019

*** Psi4 exiting successfully. Buy a developer a beer!
