                               Psi4 1.4a3.dev225

  ==> Input File <==

--------------------------------------------------------------------------
#psi4
#
memory 32 gb

molecule  {
0 1
  C       -0.4426020    -0.8338200     0.2172010
  C       -2.7550300    -0.2335230    -0.2686280
  C       -1.3727340    -0.3393290    -0.9144000
  C       -1.1456910    -0.3766540     1.5340440
  C       -2.4139240     0.3715680     1.0951880
  C        0.9762580    -0.3476150     0.0696660
  C       -3.7696470     0.5602740    -1.0788290
  C        1.2785260     1.0190760     0.1766520
  C        2.0223850    -1.2394820    -0.1958260
  C        2.5868840     1.4777510     0.0263980
  C        3.3346800    -0.7855870    -0.3490730
  C        3.6209360     0.5756970    -0.2390260
  H       -0.4241810    -1.9311060     0.1924250
  H       -3.1414670    -1.2511910    -0.1070860
  H       -1.0619528     0.6715798    -1.2112753
  H       -1.3450850    -0.9967850    -1.7909970
  H       -0.4862050     0.2392810     2.1528250
  H       -1.4122900    -1.2543580     2.1330320
  H       -3.2323950     0.2935880     1.8197160
  H       -2.2008590     1.4410770     0.9595580
  H       -3.4037750     1.5784440    -1.2516650
  H       -3.9506210     0.0965540    -2.0538340
  H       -4.7289130     0.6299820    -0.5557020
  H        0.4812350     1.7322070     0.3831320
  H        1.8065840    -2.3037040    -0.2799060
  H        2.8010350     2.5405970     0.1152150
  H        4.1326410    -1.4960120    -0.5534930
  H        4.6413930     0.9324010    -0.3562540
units angstrom
no_reorient  #important for SAPT in psi4, default
symmetry c1  #important for SAPT in psi4, default
}

set PROPERTIES_ORIGIN ["COM"]
properties('MP2/aug-cc-pvtz', properties = ['dipole'])
--------------------------------------------------------------------------

    Molecular point group: c1
  Charge       = 0
  Multiplicity = 1
  Basis Set: AUG-CC-PVTZ
    Blend: AUG-CC-PVTZ
  Basis Set: (AUG-CC-PVTZ AUX)
    Blend: AUG-CC-PVTZ-JKFIT

    Orbital Energies [Eh]
    ---------------------

    Doubly Occupied:

       1A    -11.236478     2A    -11.233618     3A    -11.232863
       4A    -11.228946     5A    -11.228469     6A    -11.228195
       7A    -11.228111     8A    -11.220973     9A    -11.216693
      10A    -11.214923    11A    -11.214883    12A    -11.211577
      13A     -1.156091    14A     -1.124979    15A     -1.039490
      16A     -1.008466    17A     -0.988436    18A     -0.953756
      19A     -0.892685    20A     -0.826397    21A     -0.816189
      22A     -0.763284    23A     -0.756931    24A     -0.689942
      25A     -0.660861    26A     -0.635049    27A     -0.621951
      28A     -0.606471    29A     -0.586090    30A     -0.580162
      31A     -0.573752    32A     -0.556377    33A     -0.529026
      34A     -0.510939    35A     -0.509885    36A     -0.490172
      37A     -0.475499    38A     -0.462935    39A     -0.461329
      40A     -0.453463    41A     -0.450126    42A     -0.443873
      43A     -0.332360    44A     -0.318832

  @DF-RHF Final Energy:  -463.89420210222892

   => Energetics <=

    Nuclear Repulsion Energy =            676.0053911204211090
    One-Electron Energy =               -1967.8561360040023374
    Two-Electron Energy =                 827.9565427813523684
    Total Energy =                       -463.8942021022288600
  Basis Set: (AUG-CC-PVTZ AUX)
    Blend: AUG-CC-PVTZ-RI
    Molecular point group: c1

    Geometry (in Angstrom), charge = 0, multiplicity = 1:

       Center              X                  Y                   Z               Mass
    ------------   -----------------  -----------------  -----------------  -----------------
         C           -0.513955252300    -0.828262135428     0.214247492587    12.000000000000
         C           -2.826383252300    -0.227965135428    -0.271581507413    12.000000000000
         C           -1.444087252300    -0.333771135428    -0.917353507413    12.000000000000
         C           -1.217044252300    -0.371096135428     1.531090492587    12.000000000000
         C           -2.485277252300     0.377125864572     1.092234492587    12.000000000000
         C            0.904904747700    -0.342057135428     0.066712492587    12.000000000000
         C           -3.841000252300     0.565831864572    -1.081782507413    12.000000000000
         C            1.207172747700     1.024633864572     0.173698492587    12.000000000000
         C            1.951031747700    -1.233924135428    -0.198779507413    12.000000000000
         C            2.515530747700     1.483308864572     0.023444492587    12.000000000000
         C            3.263326747700    -0.780029135428    -0.352026507413    12.000000000000
         C            3.549582747700     0.581254864572    -0.241979507413    12.000000000000
         H           -0.495534252300    -1.925548135428     0.189471492587     1.007825032230
         H           -3.212820252300    -1.245633135428    -0.110039507413     1.007825032230
         H           -1.133306052300     0.677137664572    -1.214228807413     1.007825032230
         H           -1.416438252300    -0.991227135428    -1.793950507413     1.007825032230
         H           -0.557558252300     0.244838864572     2.149871492587     1.007825032230
         H           -1.483643252300    -1.248800135428     2.130078492587     1.007825032230
         H           -3.303748252300     0.299145864572     1.816762492587     1.007825032230
         H           -2.272212252300     1.446634864572     0.956604492587     1.007825032230
         H           -3.475128252300     1.584001864572    -1.254618507413     1.007825032230
         H           -4.021974252300     0.102111864572    -2.056787507413     1.007825032230
         H           -4.800266252300     0.635539864572    -0.558655507413     1.007825032230
         H            0.409881747700     1.737764864572     0.380178492587     1.007825032230
         H            1.735230747700    -2.298146135428    -0.282859507413     1.007825032230
         H            2.729681747700     2.546154864572     0.112261492587     1.007825032230
         H            4.061287747700    -1.490454135428    -0.556446507413     1.007825032230
         H            4.570039747700     0.937958864572    -0.359207507413     1.007825032230

  Basis Set: AUG-CC-PVTZ
    Blend: AUG-CC-PVTZ
  Basis Set: (AUG-CC-PVTZ AUX)
    Blend: AUG-CC-PVTZ-JKFIT
	 Reference Energy          =    -463.8942021022289168 [Eh]
	 Singles Energy            =      -0.0000000000000000 [Eh]
	 Same-Spin Energy          =      -0.5195772699174699 [Eh]
	 Opposite-Spin Energy      =      -1.7265326120964568 [Eh]
	 Correlation Energy        =      -2.2461098820139265 [Eh]
	 Total Energy              =    -466.1403119842428282 [Eh]

	 ================> DF-SCS-MP2 Energies <==================
	-----------------------------------------------------------
	 SCS Same-Spin Scale       =       0.3333333333333333 [-]
	 SCS Opposite-Spin Scale   =       1.2000000000000000 [-]
	 SCS Same-Spin Energy      =      -0.1731924233058233 [Eh]
	 SCS Opposite-Spin Energy  =      -2.0718391345157481 [Eh]
	 SCS Correlation Energy    =      -2.2450315578215712 [Eh]
	 SCS Total Energy          =    -466.1392336600504791 [Eh]
	-----------------------------------------------------------

  Dipole Moment: [D]
     X:    -0.5694      Y:    -0.2067      Z:     0.0446     Total:     0.6073

*** Psi4 exiting successfully. Buy a developer a beer!
