                               Psi4 1.4a3.dev225

  ==> Input File <==

--------------------------------------------------------------------------
#psi4
#
memory 32 gb

molecule  {
0 1
  C       -0.4071116    -0.9312993     0.1997686
  C       -2.7550300    -0.2335230    -0.2686280
  C       -1.3727340    -0.3393290    -0.9144000
  C       -1.1456910    -0.3766540     1.5340440
  C       -2.4139240     0.3715680     1.0951880
  C        0.9762580    -0.3476150     0.0696660
  C       -3.7696470     0.5602740    -1.0788290
  C        1.2785260     1.0190760     0.1766520
  C        2.0223850    -1.2394820    -0.1958260
  C        2.5868840     1.4777510     0.0263980
  C        3.3346800    -0.7855870    -0.3490730
  C        3.6209360     0.5756970    -0.2390260
  H       -0.4241810    -1.9311060     0.1924250
  H       -3.1414670    -1.2511910    -0.1070860
  H       -1.0573430     0.6588960    -1.2471640
  H       -1.3450850    -0.9967850    -1.7909970
  H       -0.4862050     0.2392810     2.1528250
  H       -1.4122900    -1.2543580     2.1330320
  H       -3.2323950     0.2935880     1.8197160
  H       -2.2008590     1.4410770     0.9595580
  H       -3.4037750     1.5784440    -1.2516650
  H       -3.9506210     0.0965540    -2.0538340
  H       -4.7289130     0.6299820    -0.5557020
  H        0.4812350     1.7322070     0.3831320
  H        1.8065840    -2.3037040    -0.2799060
  H        2.8010350     2.5405970     0.1152150
  H        4.1326410    -1.4960120    -0.5534930
  H        4.6413930     0.9324010    -0.3562540
units angstrom
no_reorient  #important for SAPT in psi4, default
symmetry c1  #important for SAPT in psi4, default
}

set PROPERTIES_ORIGIN ["COM"]
properties('MP2/aug-cc-pvtz', properties = ['dipole'])
--------------------------------------------------------------------------

    Molecular point group: c1
  Charge       = 0
  Multiplicity = 1
  Basis Set: AUG-CC-PVTZ
    Blend: AUG-CC-PVTZ
  Basis Set: (AUG-CC-PVTZ AUX)
    Blend: AUG-CC-PVTZ-JKFIT

    Orbital Energies [Eh]
    ---------------------

    Doubly Occupied:

       1A    -11.237392     2A    -11.234061     3A    -11.232071
       4A    -11.229334     5A    -11.228083     6A    -11.226149
       7A    -11.225991     8A    -11.221215     9A    -11.218716
      10A    -11.217069    11A    -11.214925    12A    -11.211639
      13A     -1.153754    14A     -1.119705    15A     -1.039913
      16A     -1.008176    17A     -0.985077    18A     -0.951868
      19A     -0.892460    20A     -0.828647    21A     -0.814057
      22A     -0.767333    23A     -0.760815    24A     -0.691947
      25A     -0.657195    26A     -0.634129    27A     -0.622361
      28A     -0.604391    29A     -0.588017    30A     -0.580106
      31A     -0.577640    32A     -0.556401    33A     -0.528919
      34A     -0.511773    35A     -0.507701    36A     -0.490965
      37A     -0.474918    38A     -0.468758    39A     -0.459843
      40A     -0.450639    41A     -0.444990    42A     -0.442853
      43A     -0.332160    44A     -0.315551

  @DF-RHF Final Energy:  -463.88217215060956

   => Energetics <=

    Nuclear Repulsion Energy =            674.7675197949751009
    One-Electron Energy =               -1965.3799779967234826
    Two-Electron Energy =                 826.7302860511387053
    Total Energy =                       -463.8821721506095628
  Basis Set: (AUG-CC-PVTZ AUX)
    Blend: AUG-CC-PVTZ-RI
    Molecular point group: c1

    Geometry (in Angstrom), charge = 0, multiplicity = 1:

       Center              X                  Y                   Z               Mass
    ------------   -----------------  -----------------  -----------------  -----------------
         C           -0.481153565072    -0.918356372694     0.198347383129    12.000000000000
         C           -2.829071965072    -0.220580072694    -0.270049216871    12.000000000000
         C           -1.446775965072    -0.326386072694    -0.915821216871    12.000000000000
         C           -1.219732965072    -0.363711072694     1.532622783129    12.000000000000
         C           -2.487965965072     0.384510927306     1.093766783129    12.000000000000
         C            0.902216034928    -0.334672072694     0.068244783129    12.000000000000
         C           -3.843688965072     0.573216927306    -1.080250216871    12.000000000000
         C            1.204484034928     1.032018927306     0.175230783129    12.000000000000
         C            1.948343034928    -1.226539072694    -0.197247216871    12.000000000000
         C            2.512842034928     1.490693927306     0.024976783129    12.000000000000
         C            3.260638034928    -0.772644072694    -0.350494216871    12.000000000000
         C            3.546894034928     0.588639927306    -0.240447216871    12.000000000000
         H           -0.498222965072    -1.918163072694     0.191003783129     1.007825032230
         H           -3.215508965072    -1.238248072694    -0.108507216871     1.007825032230
         H           -1.131384965072     0.671838927306    -1.248585216871     1.007825032230
         H           -1.419126965072    -0.983842072694    -1.792418216871     1.007825032230
         H           -0.560246965072     0.252223927306     2.151403783129     1.007825032230
         H           -1.486331965072    -1.241415072694     2.131610783129     1.007825032230
         H           -3.306436965072     0.306530927306     1.818294783129     1.007825032230
         H           -2.274900965072     1.454019927306     0.958136783129     1.007825032230
         H           -3.477816965072     1.591386927306    -1.253086216871     1.007825032230
         H           -4.024662965072     0.109496927306    -2.055255216871     1.007825032230
         H           -4.802954965072     0.642924927306    -0.557123216871     1.007825032230
         H            0.407193034928     1.745149927306     0.381710783129     1.007825032230
         H            1.732542034928    -2.290761072694    -0.281327216871     1.007825032230
         H            2.726993034928     2.553539927306     0.113793783129     1.007825032230
         H            4.058599034928    -1.483069072694    -0.554914216871     1.007825032230
         H            4.567351034928     0.945343927306    -0.357675216871     1.007825032230

  Basis Set: AUG-CC-PVTZ
    Blend: AUG-CC-PVTZ
  Basis Set: (AUG-CC-PVTZ AUX)
    Blend: AUG-CC-PVTZ-JKFIT
	 Reference Energy          =    -463.8821721506095628 [Eh]
	 Singles Energy            =      -0.0000000000000000 [Eh]
	 Same-Spin Energy          =      -0.5192718629475379 [Eh]
	 Opposite-Spin Energy      =      -1.7265021574248398 [Eh]
	 Correlation Energy        =      -2.2457740203723775 [Eh]
	 Total Energy              =    -466.1279461709819429 [Eh]

	 ================> DF-SCS-MP2 Energies <==================
	-----------------------------------------------------------
	 SCS Same-Spin Scale       =       0.3333333333333333 [-]
	 SCS Opposite-Spin Scale   =       1.2000000000000000 [-]
	 SCS Same-Spin Energy      =      -0.1730906209825126 [Eh]
	 SCS Opposite-Spin Energy  =      -2.0718025889098075 [Eh]
	 SCS Correlation Energy    =      -2.2448932098923202 [Eh]
	 SCS Total Energy          =    -466.1270653605018879 [Eh]
	-----------------------------------------------------------

  Dipole Moment: [D]
     X:    -0.6115      Y:    -0.2595      Z:     0.0275     Total:     0.6649

*** Psi4 exiting successfully. Buy a developer a beer!
