                               Psi4 1.4a3.dev225

  ==> Input File <==

--------------------------------------------------------------------------
#psi4
#
memory 32 gb

molecule  {
0 1
  C       -0.4426020    -0.8338200     0.2172010
  C       -2.7550300    -0.2335230    -0.2686280
  C       -1.4028154    -0.3233366    -0.9509972
  C       -1.1456910    -0.3766540     1.5340440
  C       -2.4139240     0.3715680     1.0951880
  C        0.9762580    -0.3476150     0.0696660
  C       -3.7696470     0.5602740    -1.0788290
  C        1.2785260     1.0190760     0.1766520
  C        2.0223850    -1.2394820    -0.1958260
  C        2.5868840     1.4777510     0.0263980
  C        3.3346800    -0.7855870    -0.3490730
  C        3.6209360     0.5756970    -0.2390260
  H       -0.4241810    -1.9311060     0.1924250
  H       -3.1414670    -1.2511910    -0.1070860
  H       -1.0573430     0.6588960    -1.2471640
  H       -1.3450850    -0.9967850    -1.7909970
  H       -0.4862050     0.2392810     2.1528250
  H       -1.4122900    -1.2543580     2.1330320
  H       -3.2323950     0.2935880     1.8197160
  H       -2.2008590     1.4410770     0.9595580
  H       -3.4037750     1.5784440    -1.2516650
  H       -3.9506210     0.0965540    -2.0538340
  H       -4.7289130     0.6299820    -0.5557020
  H        0.4812350     1.7322070     0.3831320
  H        1.8065840    -2.3037040    -0.2799060
  H        2.8010350     2.5405970     0.1152150
  H        4.1326410    -1.4960120    -0.5534930
  H        4.6413930     0.9324010    -0.3562540
units angstrom
no_reorient  #important for SAPT in psi4, default
symmetry c1  #important for SAPT in psi4, default
}

set PROPERTIES_ORIGIN ["COM"]
properties('MP2/aug-cc-pvtz', properties = ['dipole'])
--------------------------------------------------------------------------

    Molecular point group: c1
  Charge       = 0
  Multiplicity = 1
  Basis Set: AUG-CC-PVTZ
    Blend: AUG-CC-PVTZ
  Basis Set: (AUG-CC-PVTZ AUX)
    Blend: AUG-CC-PVTZ-JKFIT

    Orbital Energies [Eh]
    ---------------------

    Doubly Occupied:

       1A    -11.236269     2A    -11.233465     3A    -11.232722
       4A    -11.229847     5A    -11.228689     6A    -11.228156
       7A    -11.227825     8A    -11.221006     9A    -11.216634
      10A    -11.215332    11A    -11.213954    12A    -11.210843
      13A     -1.154449    14A     -1.123417    15A     -1.038826
      16A     -1.008255    17A     -0.989024    18A     -0.951050
      19A     -0.893020    20A     -0.826407    21A     -0.816161
      22A     -0.765221    23A     -0.756914    24A     -0.688832
      25A     -0.661154    26A     -0.634166    27A     -0.621279
      28A     -0.605692    29A     -0.586623    30A     -0.580786
      31A     -0.573390    32A     -0.556797    33A     -0.530376
      34A     -0.510513    35A     -0.507766    36A     -0.490452
      37A     -0.477381    38A     -0.462399    39A     -0.460442
      40A     -0.456853    41A     -0.449062    42A     -0.441307
      43A     -0.332228    44A     -0.317590

  @DF-RHF Final Energy:  -463.89268268210338

   => Energetics <=

    Nuclear Repulsion Energy =            675.3209685962457343
    One-Electron Energy =               -1966.5021539711970036
    Two-Electron Energy =                 827.2885026928479419
    Total Energy =                       -463.8926826821034410
  Basis Set: (AUG-CC-PVTZ AUX)
    Blend: AUG-CC-PVTZ-RI
    Molecular point group: c1

    Geometry (in Angstrom), charge = 0, multiplicity = 1:

       Center              X                  Y                   Z               Mass
    ------------   -----------------  -----------------  -----------------  -----------------
         C           -0.511729925324    -0.829380796003     0.217216019269    12.000000000000
         C           -2.824157925324    -0.229083796003    -0.268612980731    12.000000000000
         C           -1.471943325324    -0.318897396003    -0.950982180731    12.000000000000
         C           -1.214818925324    -0.372214796003     1.534059019269    12.000000000000
         C           -2.483051925324     0.376007203997     1.095203019269    12.000000000000
         C            0.907130074676    -0.343175796003     0.069681019269    12.000000000000
         C           -3.838774925324     0.564713203997    -1.078813980731    12.000000000000
         C            1.209398074676     1.023515203997     0.176667019269    12.000000000000
         C            1.953257074676    -1.235042796003    -0.195810980731    12.000000000000
         C            2.517756074676     1.482190203997     0.026413019269    12.000000000000
         C            3.265552074676    -0.781147796003    -0.349057980731    12.000000000000
         C            3.551808074676     0.580136203997    -0.239010980731    12.000000000000
         H           -0.493308925324    -1.926666796003     0.192440019269     1.007825032230
         H           -3.210594925324    -1.246751796003    -0.107070980731     1.007825032230
         H           -1.126470925324     0.663335203997    -1.247148980731     1.007825032230
         H           -1.414212925324    -0.992345796003    -1.790981980731     1.007825032230
         H           -0.555332925324     0.243720203997     2.152840019269     1.007825032230
         H           -1.481417925324    -1.249918796003     2.133047019269     1.007825032230
         H           -3.301522925324     0.298027203997     1.819731019269     1.007825032230
         H           -2.269986925324     1.445516203997     0.959573019269     1.007825032230
         H           -3.472902925324     1.582883203997    -1.251649980731     1.007825032230
         H           -4.019748925324     0.100993203997    -2.053818980731     1.007825032230
         H           -4.798040925324     0.634421203997    -0.555686980731     1.007825032230
         H            0.412107074676     1.736646203997     0.383147019269     1.007825032230
         H            1.737456074676    -2.299264796003    -0.279890980731     1.007825032230
         H            2.731907074676     2.545036203997     0.115230019269     1.007825032230
         H            4.063513074676    -1.491572796003    -0.553477980731     1.007825032230
         H            4.572265074676     0.936840203997    -0.356238980731     1.007825032230

  Basis Set: AUG-CC-PVTZ
    Blend: AUG-CC-PVTZ
  Basis Set: (AUG-CC-PVTZ AUX)
    Blend: AUG-CC-PVTZ-JKFIT
	 Reference Energy          =    -463.8926826821033842 [Eh]
	 Singles Energy            =      -0.0000000000000000 [Eh]
	 Same-Spin Energy          =      -0.5193858568674221 [Eh]
	 Opposite-Spin Energy      =      -1.7264477799326063 [Eh]
	 Correlation Energy        =      -2.2458336368000285 [Eh]
	 Total Energy              =    -466.1385163189033847 [Eh]

	 ================> DF-SCS-MP2 Energies <==================
	-----------------------------------------------------------
	 SCS Same-Spin Scale       =       0.3333333333333333 [-]
	 SCS Opposite-Spin Scale   =       1.2000000000000000 [-]
	 SCS Same-Spin Energy      =      -0.1731286189558074 [Eh]
	 SCS Opposite-Spin Energy  =      -2.0717373359191273 [Eh]
	 SCS Correlation Energy    =      -2.2448659548749346 [Eh]
	 SCS Total Energy          =    -466.1375486369782948 [Eh]
	-----------------------------------------------------------

  Dipole Moment: [D]
     X:    -0.5741      Y:    -0.2119      Z:     0.0358     Total:     0.6130

*** Psi4 exiting successfully. Buy a developer a beer!
