                               Psi4 1.4a3.dev225

  ==> Input File <==

--------------------------------------------------------------------------
#psi4
#
memory 32 gb

molecule  {
0 1
  C       -0.4426020    -0.8338200     0.2172010
  C       -2.7550300    -0.2335230    -0.2686280
  C       -1.3727340    -0.3393290    -0.9144000
  C       -1.1456910    -0.3766540     1.5340440
  C       -2.4139240     0.3715680     1.0951880
  C        0.9762580    -0.3476150     0.0696660
  C       -3.7696470     0.5602740    -1.0788290
  C        1.2785260     1.0190760     0.1766520
  C        2.0223850    -1.2394820    -0.1958260
  C        2.5868840     1.4777510     0.0263980
  C        3.3346800    -0.7855870    -0.3490730
  C        3.6414502     0.6732520    -0.2311396
  H       -0.4241810    -1.9311060     0.1924250
  H       -3.1414670    -1.2511910    -0.1070860
  H       -1.0573430     0.6588960    -1.2471640
  H       -1.3450850    -0.9967850    -1.7909970
  H       -0.4862050     0.2392810     2.1528250
  H       -1.4122900    -1.2543580     2.1330320
  H       -3.2323950     0.2935880     1.8197160
  H       -2.2008590     1.4410770     0.9595580
  H       -3.4037750     1.5784440    -1.2516650
  H       -3.9506210     0.0965540    -2.0538340
  H       -4.7289130     0.6299820    -0.5557020
  H        0.4812350     1.7322070     0.3831320
  H        1.8065840    -2.3037040    -0.2799060
  H        2.8010350     2.5405970     0.1152150
  H        4.1326410    -1.4960120    -0.5534930
  H        4.6413930     0.9324010    -0.3562540
units angstrom
no_reorient  #important for SAPT in psi4, default
symmetry c1  #important for SAPT in psi4, default
}

set PROPERTIES_ORIGIN ["COM"]
properties('MP2/aug-cc-pvtz', properties = ['dipole'])
--------------------------------------------------------------------------

    Molecular point group: c1
  Charge       = 0
  Multiplicity = 1
  Basis Set: AUG-CC-PVTZ
    Blend: AUG-CC-PVTZ
  Basis Set: (AUG-CC-PVTZ AUX)
    Blend: AUG-CC-PVTZ-JKFIT

    Orbital Energies [Eh]
    ---------------------

    Doubly Occupied:

       1A    -11.242562     2A    -11.237847     3A    -11.230363
       4A    -11.228796     5A    -11.228720     6A    -11.228673
       7A    -11.227288     8A    -11.221325     9A    -11.216878
      10A    -11.215046    11A    -11.214994    12A    -11.211693
      13A     -1.154100    14A     -1.123204    15A     -1.040270
      16A     -1.006720    17A     -0.986682    18A     -0.954311
      19A     -0.893637    20A     -0.830071    21A     -0.811248
      22A     -0.763664    23A     -0.757882    24A     -0.693051
      25A     -0.661706    26A     -0.640432    27A     -0.619878
      28A     -0.606707    29A     -0.584512    30A     -0.577955
      31A     -0.572624    32A     -0.556667    33A     -0.534092
      34A     -0.517580    35A     -0.508199    36A     -0.479271
      37A     -0.473464    38A     -0.463613    39A     -0.461288
      40A     -0.453267    41A     -0.449736    42A     -0.444332
      43A     -0.337407    44A     -0.311994

  @DF-RHF Final Energy:  -463.88249036898992

   => Energetics <=

    Nuclear Repulsion Energy =            675.0293036065190790
    One-Electron Energy =               -1965.8760903903576036
    Two-Electron Energy =                 826.9642964148486044
    Total Energy =                       -463.8824903689899202
  Basis Set: (AUG-CC-PVTZ AUX)
    Blend: AUG-CC-PVTZ-RI
    Molecular point group: c1

    Geometry (in Angstrom), charge = 0, multiplicity = 1:

       Center              X                  Y                   Z               Mass
    ------------   -----------------  -----------------  -----------------  -----------------
         C           -0.515521628304    -0.835493208021     0.213882357870    12.000000000000
         C           -2.827949628304    -0.235196208021    -0.271946642130    12.000000000000
         C           -1.445653628304    -0.341002208021    -0.917718642130    12.000000000000
         C           -1.218610628304    -0.378327208021     1.530725357870    12.000000000000
         C           -2.486843628304     0.369894791979     1.091869357870    12.000000000000
         C            0.903338371696    -0.349288208021     0.066347357870    12.000000000000
         C           -3.842566628304     0.558600791979    -1.082147642130    12.000000000000
         C            1.205606371696     1.017402791979     0.173333357870    12.000000000000
         C            1.949465371696    -1.241155208021    -0.199144642130    12.000000000000
         C            2.513964371696     1.476077791979     0.023079357870    12.000000000000
         C            3.261760371696    -0.787260208021    -0.352391642130    12.000000000000
         C            3.568530571696     0.671578791979    -0.234458242130    12.000000000000
         H           -0.497100628304    -1.932779208021     0.189106357870     1.007825032230
         H           -3.214386628304    -1.252864208021    -0.110404642130     1.007825032230
         H           -1.130262628304     0.657222791979    -1.250482642130     1.007825032230
         H           -1.418004628304    -0.998458208021    -1.794315642130     1.007825032230
         H           -0.559124628304     0.237607791979     2.149506357870     1.007825032230
         H           -1.485209628304    -1.256031208021     2.129713357870     1.007825032230
         H           -3.305314628304     0.291914791979     1.816397357870     1.007825032230
         H           -2.273778628304     1.439403791979     0.956239357870     1.007825032230
         H           -3.476694628304     1.576770791979    -1.254983642130     1.007825032230
         H           -4.023540628304     0.094880791979    -2.057152642130     1.007825032230
         H           -4.801832628304     0.628308791979    -0.559020642130     1.007825032230
         H            0.408315371696     1.730533791979     0.379813357870     1.007825032230
         H            1.733664371696    -2.305377208021    -0.283224642130     1.007825032230
         H            2.728115371696     2.538923791979     0.111896357870     1.007825032230
         H            4.059721371696    -1.497685208021    -0.556811642130     1.007825032230
         H            4.568473371696     0.930727791979    -0.359572642130     1.007825032230

  Basis Set: AUG-CC-PVTZ
    Blend: AUG-CC-PVTZ
  Basis Set: (AUG-CC-PVTZ AUX)
    Blend: AUG-CC-PVTZ-JKFIT
	 Reference Energy          =    -463.8824903689899202 [Eh]
	 Singles Energy            =      -0.0000000000000000 [Eh]
	 Same-Spin Energy          =      -0.5194780182516716 [Eh]
	 Opposite-Spin Energy      =      -1.7273094067413550 [Eh]
	 Correlation Energy        =      -2.2467874249930269 [Eh]
	 Total Energy              =    -466.1292777939829648 [Eh]

	 ================> DF-SCS-MP2 Energies <==================
	-----------------------------------------------------------
	 SCS Same-Spin Scale       =       0.3333333333333333 [-]
	 SCS Opposite-Spin Scale   =       1.2000000000000000 [-]
	 SCS Same-Spin Energy      =      -0.1731593394172239 [Eh]
	 SCS Opposite-Spin Energy  =      -2.0727712880896259 [Eh]
	 SCS Correlation Energy    =      -2.2459306275068496 [Eh]
	 SCS Total Energy          =    -466.1284209964967431 [Eh]
	-----------------------------------------------------------

  Dipole Moment: [D]
     X:    -0.5695      Y:    -0.2189      Z:     0.0337     Total:     0.6111

*** Psi4 exiting successfully. Buy a developer a beer!
