                               Psi4 1.4a3.dev225

  ==> Input File <==

--------------------------------------------------------------------------
#psi4
#
memory 32 gb

molecule  {
0 1
  C       -0.4257109    -0.8828857     0.2085694
  C       -2.7550300    -0.2335230    -0.2686280
  C       -1.3727340    -0.3393290    -0.9144000
  C       -1.1456910    -0.3766540     1.5340440
  C       -2.4139240     0.3715680     1.0951880
  C        0.9762580    -0.3476150     0.0696660
  C       -3.7696470     0.5602740    -1.0788290
  C        1.2785260     1.0190760     0.1766520
  C        2.0223850    -1.2394820    -0.1958260
  C        2.5868840     1.4777510     0.0263980
  C        3.3346800    -0.7855870    -0.3490730
  C        3.6209360     0.5756970    -0.2390260
  H       -0.4241810    -1.9311060     0.1924250
  H       -3.1414670    -1.2511910    -0.1070860
  H       -1.0573430     0.6588960    -1.2471640
  H       -1.3450850    -0.9967850    -1.7909970
  H       -0.4862050     0.2392810     2.1528250
  H       -1.4122900    -1.2543580     2.1330320
  H       -3.2323950     0.2935880     1.8197160
  H       -2.2008590     1.4410770     0.9595580
  H       -3.4037750     1.5784440    -1.2516650
  H       -3.9506210     0.0965540    -2.0538340
  H       -4.7289130     0.6299820    -0.5557020
  H        0.4812350     1.7322070     0.3831320
  H        1.8065840    -2.3037040    -0.2799060
  H        2.8010350     2.5405970     0.1152150
  H        4.1326410    -1.4960120    -0.5534930
  H        4.6413930     0.9324010    -0.3562540
units angstrom
no_reorient  #important for SAPT in psi4, default
symmetry c1  #important for SAPT in psi4, default
}

set PROPERTIES_ORIGIN ["COM"]
properties('MP2/aug-cc-pvtz', properties = ['dipole'])
--------------------------------------------------------------------------

    Molecular point group: c1
  Charge       = 0
  Multiplicity = 1
  Basis Set: AUG-CC-PVTZ
    Blend: AUG-CC-PVTZ
  Basis Set: (AUG-CC-PVTZ AUX)
    Blend: AUG-CC-PVTZ-JKFIT

    Orbital Energies [Eh]
    ---------------------

    Doubly Occupied:

       1A    -11.236776     2A    -11.233796     3A    -11.232448
       4A    -11.228852     5A    -11.228478     6A    -11.227129
       7A    -11.226898     8A    -11.221154     9A    -11.217602
      10A    -11.215742    11A    -11.214858    12A    -11.211591
      13A     -1.154715    14A     -1.122232    15A     -1.039571
      16A     -1.008290    17A     -0.986684    18A     -0.952706
      19A     -0.892378    20A     -0.827453    21A     -0.815060
      22A     -0.763488    23A     -0.760537    24A     -0.690717
      25A     -0.658737    26A     -0.634328    27A     -0.622224
      28A     -0.605501    29A     -0.586650    30A     -0.579881
      31A     -0.575847    32A     -0.556274    33A     -0.528603
      34A     -0.511245    35A     -0.508663    36A     -0.490445
      37A     -0.473372    38A     -0.462891    39A     -0.461520
      40A     -0.454219    41A     -0.450855    42A     -0.443653
      43A     -0.332232    44A     -0.317277

  @DF-RHF Final Energy:  -463.89182122633662

   => Energetics <=

    Nuclear Repulsion Energy =            675.3552191276498888
    One-Electron Energy =               -1966.5669411174603738
    Two-Electron Energy =                 827.3199007634739246
    Total Energy =                       -463.8918212263365604
  Basis Set: (AUG-CC-PVTZ AUX)
    Blend: AUG-CC-PVTZ-RI
    Molecular point group: c1

    Geometry (in Angstrom), charge = 0, multiplicity = 1:

       Center              X                  Y                   Z               Mass
    ------------   -----------------  -----------------  -----------------  -----------------
         C           -0.498359008270    -0.873570953631     0.206488639224    12.000000000000
         C           -2.827678108270    -0.224208253631    -0.270708760776    12.000000000000
         C           -1.445382108270    -0.330014253631    -0.916480760776    12.000000000000
         C           -1.218339108270    -0.367339253631     1.531963239224    12.000000000000
         C           -2.486572108270     0.380882746369     1.093107239224    12.000000000000
         C            0.903609891730    -0.338300253631     0.067585239224    12.000000000000
         C           -3.842295108270     0.569588746369    -1.080909760776    12.000000000000
         C            1.205877891730     1.028390746369     0.174571239224    12.000000000000
         C            1.949736891730    -1.230167253631    -0.197906760776    12.000000000000
         C            2.514235891730     1.487065746369     0.024317239224    12.000000000000
         C            3.262031891730    -0.776272253631    -0.351153760776    12.000000000000
         C            3.548287891730     0.585011746369    -0.241106760776    12.000000000000
         H           -0.496829108270    -1.921791253631     0.190344239224     1.007825032230
         H           -3.214115108270    -1.241876253631    -0.109166760776     1.007825032230
         H           -1.129991108270     0.668210746369    -1.249244760776     1.007825032230
         H           -1.417733108270    -0.987470253631    -1.793077760776     1.007825032230
         H           -0.558853108270     0.248595746369     2.150744239224     1.007825032230
         H           -1.484938108270    -1.245043253631     2.130951239224     1.007825032230
         H           -3.305043108270     0.302902746369     1.817635239224     1.007825032230
         H           -2.273507108270     1.450391746369     0.957477239224     1.007825032230
         H           -3.476423108270     1.587758746369    -1.253745760776     1.007825032230
         H           -4.023269108270     0.105868746369    -2.055914760776     1.007825032230
         H           -4.801561108270     0.639296746369    -0.557782760776     1.007825032230
         H            0.408586891730     1.741521746369     0.381051239224     1.007825032230
         H            1.733935891730    -2.294389253631    -0.281986760776     1.007825032230
         H            2.728386891730     2.549911746369     0.113134239224     1.007825032230
         H            4.059992891730    -1.486697253631    -0.555573760776     1.007825032230
         H            4.568744891730     0.941715746369    -0.358334760776     1.007825032230

  Basis Set: AUG-CC-PVTZ
    Blend: AUG-CC-PVTZ
  Basis Set: (AUG-CC-PVTZ AUX)
    Blend: AUG-CC-PVTZ-JKFIT
	 Reference Energy          =    -463.8918212263366172 [Eh]
	 Singles Energy            =      -0.0000000000000000 [Eh]
	 Same-Spin Energy          =      -0.5193008538740916 [Eh]
	 Opposite-Spin Energy      =      -1.7262513085980062 [Eh]
	 Correlation Energy        =      -2.2455521624720980 [Eh]
	 Total Energy              =    -466.1373733888087258 [Eh]

	 ================> DF-SCS-MP2 Energies <==================
	-----------------------------------------------------------
	 SCS Same-Spin Scale       =       0.3333333333333333 [-]
	 SCS Opposite-Spin Scale   =       1.2000000000000000 [-]
	 SCS Same-Spin Energy      =      -0.1731002846246972 [Eh]
	 SCS Opposite-Spin Energy  =      -2.0715015703176074 [Eh]
	 SCS Correlation Energy    =      -2.2446018549423048 [Eh]
	 SCS Total Energy          =    -466.1364230812789060 [Eh]
	-----------------------------------------------------------

  Dipole Moment: [D]
     X:    -0.5897      Y:    -0.2349      Z:     0.0324     Total:     0.6356

*** Psi4 exiting successfully. Buy a developer a beer!
