                               Psi4 1.4a3.dev225

  ==> Input File <==

--------------------------------------------------------------------------
#psi4
#
memory 32 gb

molecule  {
0 1
  C       -0.4426020    -0.8338200     0.2172010
  C       -2.7550300    -0.2335230    -0.2686280
  C       -1.3727340    -0.3393290    -0.9144000
  C       -1.1456910    -0.3766540     1.5340440
  C       -2.4139240     0.3715680     1.0951880
  C        0.9762580    -0.3476150     0.0696660
  C       -3.7696470     0.5602740    -1.0788290
  C        1.2785260     1.0190760     0.1766520
  C        2.0223850    -1.2394820    -0.1958260
  C        2.5868840     1.4777510     0.0263980
  C        3.3488618    -0.8316688    -0.3563597
  C        3.6209360     0.5756970    -0.2390260
  H       -0.4241810    -1.9311060     0.1924250
  H       -3.1414670    -1.2511910    -0.1070860
  H       -1.0573430     0.6588960    -1.2471640
  H       -1.3450850    -0.9967850    -1.7909970
  H       -0.4862050     0.2392810     2.1528250
  H       -1.4122900    -1.2543580     2.1330320
  H       -3.2323950     0.2935880     1.8197160
  H       -2.2008590     1.4410770     0.9595580
  H       -3.4037750     1.5784440    -1.2516650
  H       -3.9506210     0.0965540    -2.0538340
  H       -4.7289130     0.6299820    -0.5557020
  H        0.4812350     1.7322070     0.3831320
  H        1.8065840    -2.3037040    -0.2799060
  H        2.8010350     2.5405970     0.1152150
  H        4.1326410    -1.4960120    -0.5534930
  H        4.6413930     0.9324010    -0.3562540
units angstrom
no_reorient  #important for SAPT in psi4, default
symmetry c1  #important for SAPT in psi4, default
}

set PROPERTIES_ORIGIN ["COM"]
properties('MP2/aug-cc-pvtz', properties = ['dipole'])
--------------------------------------------------------------------------

    Molecular point group: c1
  Charge       = 0
  Multiplicity = 1
  Basis Set: AUG-CC-PVTZ
    Blend: AUG-CC-PVTZ
  Basis Set: (AUG-CC-PVTZ AUX)
    Blend: AUG-CC-PVTZ-JKFIT

    Orbital Energies [Eh]
    ---------------------

    Doubly Occupied:

       1A    -11.236659     2A    -11.234623     3A    -11.233834
       4A    -11.232900     5A    -11.229222     6A    -11.229096
       7A    -11.228537     8A    -11.221141     9A    -11.216659
      10A    -11.214873    11A    -11.214689    12A    -11.211575
      13A     -1.154060    14A     -1.123038    15A     -1.037125
      16A     -1.009835    17A     -0.987317    18A     -0.952833
      19A     -0.892266    20A     -0.829348    21A     -0.813579
      22A     -0.763531    23A     -0.759817    24A     -0.688159
      25A     -0.660226    26A     -0.639094    27A     -0.620786
      28A     -0.609205    29A     -0.586778    30A     -0.582295
      31A     -0.571926    32A     -0.555175    33A     -0.527672
      34A     -0.513088    35A     -0.508335    36A     -0.487234
      37A     -0.474969    38A     -0.463245    39A     -0.461162
      40A     -0.453574    41A     -0.450246    42A     -0.444203
      43A     -0.333530    44A     -0.315131

  @DF-RHF Final Energy:  -463.89071046480831

   => Energetics <=

    Nuclear Repulsion Energy =            675.1917102884052611
    One-Electron Energy =               -1966.2196609320524203
    Two-Electron Energy =                 827.1372401788389652
    Total Energy =                       -463.8907104648083077
  Basis Set: (AUG-CC-PVTZ AUX)
    Blend: AUG-CC-PVTZ-RI
    Molecular point group: c1

    Geometry (in Angstrom), charge = 0, multiplicity = 1:

       Center              X                  Y                   Z               Mass
    ------------   -----------------  -----------------  -----------------  -----------------
         C           -0.515047069648    -0.824728871150     0.215019450592    12.000000000000
         C           -2.827475069648    -0.224431871150    -0.270809549408    12.000000000000
         C           -1.445179069648    -0.330237871150    -0.916581549408    12.000000000000
         C           -1.218136069648    -0.367562871150     1.531862450592    12.000000000000
         C           -2.486369069648     0.380659128850     1.093006450592    12.000000000000
         C            0.903812930352    -0.338523871150     0.067484450592    12.000000000000
         C           -3.842092069648     0.569365128850    -1.081010549408    12.000000000000
         C            1.206080930352     1.028167128850     0.174470450592    12.000000000000
         C            1.949939930352    -1.230390871150    -0.198007549408    12.000000000000
         C            2.514438930352     1.486842128850     0.024216450592    12.000000000000
         C            3.276416730352    -0.822577671150    -0.358541249408    12.000000000000
         C            3.548490930352     0.584788128850    -0.241207549408    12.000000000000
         H           -0.496626069648    -1.922014871150     0.190243450592     1.007825032230
         H           -3.213912069648    -1.242099871150    -0.109267549408     1.007825032230
         H           -1.129788069648     0.667987128850    -1.249345549408     1.007825032230
         H           -1.417530069648    -0.987693871150    -1.793178549408     1.007825032230
         H           -0.558650069648     0.248372128850     2.150643450592     1.007825032230
         H           -1.484735069648    -1.245266871150     2.130850450592     1.007825032230
         H           -3.304840069648     0.302679128850     1.817534450592     1.007825032230
         H           -2.273304069648     1.450168128850     0.957376450592     1.007825032230
         H           -3.476220069648     1.587535128850    -1.253846549408     1.007825032230
         H           -4.023066069648     0.105645128850    -2.056015549408     1.007825032230
         H           -4.801358069648     0.639073128850    -0.557883549408     1.007825032230
         H            0.408789930352     1.741298128850     0.380950450592     1.007825032230
         H            1.734138930352    -2.294612871150    -0.282087549408     1.007825032230
         H            2.728589930352     2.549688128850     0.113033450592     1.007825032230
         H            4.060195930352    -1.486920871150    -0.555674549408     1.007825032230
         H            4.568947930352     0.941492128850    -0.358435549408     1.007825032230

  Basis Set: AUG-CC-PVTZ
    Blend: AUG-CC-PVTZ
  Basis Set: (AUG-CC-PVTZ AUX)
    Blend: AUG-CC-PVTZ-JKFIT
	 Reference Energy          =    -463.8907104648083077 [Eh]
	 Singles Energy            =      -0.0000000000000000 [Eh]
	 Same-Spin Energy          =      -0.5195794977227230 [Eh]
	 Opposite-Spin Energy      =      -1.7269483006575594 [Eh]
	 Correlation Energy        =      -2.2465277983802823 [Eh]
	 Total Energy              =    -466.1372382631885785 [Eh]

	 ================> DF-SCS-MP2 Energies <==================
	-----------------------------------------------------------
	 SCS Same-Spin Scale       =       0.3333333333333333 [-]
	 SCS Opposite-Spin Scale   =       1.2000000000000000 [-]
	 SCS Same-Spin Energy      =      -0.1731931659075743 [Eh]
	 SCS Opposite-Spin Energy  =      -2.0723379607890711 [Eh]
	 SCS Correlation Energy    =      -2.2455311266966453 [Eh]
	 SCS Total Energy          =    -466.1362415915049269 [Eh]
	-----------------------------------------------------------

  Dipole Moment: [D]
     X:    -0.5629      Y:    -0.2082      Z:     0.0352     Total:     0.6012

*** Psi4 exiting successfully. Buy a developer a beer!
