                               Psi4 1.4a3.dev225

  ==> Input File <==

--------------------------------------------------------------------------
#psi4
#
memory 32 gb

molecule  {
0 1
  C       -0.4426020    -0.8338200     0.2172010
  C       -2.7550300    -0.2335230    -0.2686280
  C       -1.3727340    -0.3393290    -0.9144000
  C       -1.1456910    -0.3766540     1.5340440
  C       -2.4139240     0.3715680     1.0951880
  C        0.9762580    -0.3476150     0.0696660
  C       -3.7696470     0.5602740    -1.0788290
  C        1.2785260     1.0190760     0.1766520
  C        2.0223850    -1.2394820    -0.1958260
  C        2.5868840     1.4777510     0.0263980
  C        3.3346800    -0.7855870    -0.3490730
  C        3.6311931     0.6244745    -0.2350828
  H       -0.4241810    -1.9311060     0.1924250
  H       -3.1414670    -1.2511910    -0.1070860
  H       -1.0573430     0.6588960    -1.2471640
  H       -1.3450850    -0.9967850    -1.7909970
  H       -0.4862050     0.2392810     2.1528250
  H       -1.4122900    -1.2543580     2.1330320
  H       -3.2323950     0.2935880     1.8197160
  H       -2.2008590     1.4410770     0.9595580
  H       -3.4037750     1.5784440    -1.2516650
  H       -3.9506210     0.0965540    -2.0538340
  H       -4.7289130     0.6299820    -0.5557020
  H        0.4812350     1.7322070     0.3831320
  H        1.8065840    -2.3037040    -0.2799060
  H        2.8010350     2.5405970     0.1152150
  H        4.1326410    -1.4960120    -0.5534930
  H        4.6413930     0.9324010    -0.3562540
units angstrom
no_reorient  #important for SAPT in psi4, default
symmetry c1  #important for SAPT in psi4, default
}

set PROPERTIES_ORIGIN ["COM"]
properties('MP2/aug-cc-pvtz', properties = ['dipole'])
--------------------------------------------------------------------------

    Molecular point group: c1
  Charge       = 0
  Multiplicity = 1
  Basis Set: AUG-CC-PVTZ
    Blend: AUG-CC-PVTZ
  Basis Set: (AUG-CC-PVTZ AUX)
    Blend: AUG-CC-PVTZ-JKFIT

    Orbital Energies [Eh]
    ---------------------

    Doubly Occupied:

       1A    -11.238085     2A    -11.237123     3A    -11.231394
       4A    -11.229331     5A    -11.228572     6A    -11.228460
       7A    -11.227895     8A    -11.221238     9A    -11.216773
      10A    -11.214941    11A    -11.214871    12A    -11.211634
      13A     -1.154890    14A     -1.123889    15A     -1.039359
      16A     -1.007492    17A     -0.987748    18A     -0.954028
      19A     -0.893100    20A     -0.828143    21A     -0.813763
      22A     -0.763619    23A     -0.757557    24A     -0.691368
      25A     -0.660892    26A     -0.637610    27A     -0.620646
      28A     -0.606643    29A     -0.584950    30A     -0.578190
      31A     -0.573832    32A     -0.556685    33A     -0.531058
      34A     -0.515128    35A     -0.508995    36A     -0.484563
      37A     -0.475227    38A     -0.463330    39A     -0.461428
      40A     -0.453606    41A     -0.450134    42A     -0.444141
      43A     -0.334032    44A     -0.315790

  @DF-RHF Final Energy:  -463.89110725313913

   => Energetics <=

    Nuclear Repulsion Energy =            675.4724160010139258
    One-Electron Energy =               -1966.7827427384520433
    Two-Electron Energy =                 827.4192194842989920
    Total Energy =                       -463.8911072531391255
  Basis Set: (AUG-CC-PVTZ AUX)
    Blend: AUG-CC-PVTZ-RI
    Molecular point group: c1

    Geometry (in Angstrom), charge = 0, multiplicity = 1:

       Center              X                  Y                   Z               Mass
    ------------   -----------------  -----------------  -----------------  -----------------
         C           -0.514752947300    -0.831837755924     0.214177866634    12.000000000000
         C           -2.827180947300    -0.231540755924    -0.271651133366    12.000000000000
         C           -1.444884947300    -0.337346755924    -0.917423133366    12.000000000000
         C           -1.217841947300    -0.374671755924     1.531020866634    12.000000000000
         C           -2.486074947300     0.373550244076     1.092164866634    12.000000000000
         C            0.904107052700    -0.345632755924     0.066642866634    12.000000000000
         C           -3.841797947300     0.562256244076    -1.081852133366    12.000000000000
         C            1.206375052700     1.021058244076     0.173628866634    12.000000000000
         C            1.950234052700    -1.237499755924    -0.198849133366    12.000000000000
         C            2.514733052700     1.479733244076     0.023374866634    12.000000000000
         C            3.262529052700    -0.783604755924    -0.352096133366    12.000000000000
         C            3.559042152700     0.626456744076    -0.238105933366    12.000000000000
         H           -0.496331947300    -1.929123755924     0.189401866634     1.007825032230
         H           -3.213617947300    -1.249208755924    -0.110109133366     1.007825032230
         H           -1.129493947300     0.660878244076    -1.250187133366     1.007825032230
         H           -1.417235947300    -0.994802755924    -1.794020133366     1.007825032230
         H           -0.558355947300     0.241263244076     2.149801866634     1.007825032230
         H           -1.484440947300    -1.252375755924     2.130008866634     1.007825032230
         H           -3.304545947300     0.295570244076     1.816692866634     1.007825032230
         H           -2.273009947300     1.443059244076     0.956534866634     1.007825032230
         H           -3.475925947300     1.580426244076    -1.254688133366     1.007825032230
         H           -4.022771947300     0.098536244076    -2.056857133366     1.007825032230
         H           -4.801063947300     0.631964244076    -0.558725133366     1.007825032230
         H            0.409084052700     1.734189244076     0.380108866634     1.007825032230
         H            1.734433052700    -2.301721755924    -0.282929133366     1.007825032230
         H            2.728884052700     2.542579244076     0.112191866634     1.007825032230
         H            4.060490052700    -1.494029755924    -0.556516133366     1.007825032230
         H            4.569242052700     0.934383244076    -0.359277133366     1.007825032230

  Basis Set: AUG-CC-PVTZ
    Blend: AUG-CC-PVTZ
  Basis Set: (AUG-CC-PVTZ AUX)
    Blend: AUG-CC-PVTZ-JKFIT
	 Reference Energy          =    -463.8911072531391255 [Eh]
	 Singles Energy            =      -0.0000000000000000 [Eh]
	 Same-Spin Energy          =      -0.5195250550430620 [Eh]
	 Opposite-Spin Energy      =      -1.7267466011748287 [Eh]
	 Correlation Energy        =      -2.2462716562178908 [Eh]
	 Total Energy              =    -466.1373789093570394 [Eh]

	 ================> DF-SCS-MP2 Energies <==================
	-----------------------------------------------------------
	 SCS Same-Spin Scale       =       0.3333333333333333 [-]
	 SCS Opposite-Spin Scale   =       1.2000000000000000 [-]
	 SCS Same-Spin Energy      =      -0.1731750183476873 [Eh]
	 SCS Opposite-Spin Energy  =      -2.0720959214097943 [Eh]
	 SCS Correlation Energy    =      -2.2452709397574817 [Eh]
	 SCS Total Energy          =    -466.1363781928965864 [Eh]
	-----------------------------------------------------------

  Dipole Moment: [D]
     X:    -0.5677      Y:    -0.2112      Z:     0.0352     Total:     0.6067

*** Psi4 exiting successfully. Buy a developer a beer!
