                               Psi4 1.4a3.dev225

  ==> Input File <==

--------------------------------------------------------------------------
#psi4
#
memory 32 gb

molecule  {
0 1
  C       -0.4426020    -0.8338200     0.2172010
  C       -2.7550300    -0.2335230    -0.2686280
  C       -1.3727340    -0.3393290    -0.9144000
  C       -1.1456910    -0.3766540     1.5340440
  C       -2.4139240     0.3715680     1.0951880
  C        0.9762580    -0.3476150     0.0696660
  C       -3.7696470     0.5602740    -1.0788290
  C        1.2785260     1.0190760     0.1766520
  C        2.0223850    -1.2394820    -0.1958260
  C        2.5868840     1.4777510     0.0263980
  C        3.3346800    -0.7855870    -0.3490730
  C        3.6209360     0.5756970    -0.2390260
  H       -0.4241810    -1.9311060     0.1924250
  H       -3.1414670    -1.2511910    -0.1070860
  H       -1.0573430     0.6588960    -1.2471640
  H       -1.3450850    -0.9967850    -1.7909970
  H       -0.4862050     0.2392810     2.1528250
  H       -1.4122900    -1.2543580     2.1330320
  H       -3.2323950     0.2935880     1.8197160
  H       -2.2008590     1.4410770     0.9595580
  H       -3.4037750     1.5784440    -1.2516650
  H       -3.9506210     0.0965540    -2.0538340
  H       -4.7289130     0.6299820    -0.5557020
  H        0.4812350     1.7322070     0.3831320
  H        1.8065840    -2.3037040    -0.2799060
  H        2.8010350     2.5405970     0.1152150
  H        4.0592832    -1.4307015    -0.5347003
  H        4.6413930     0.9324010    -0.3562540
units angstrom
no_reorient  #important for SAPT in psi4, default
symmetry c1  #important for SAPT in psi4, default
}

set PROPERTIES_ORIGIN ["COM"]
properties('MP2/aug-cc-pvtz', properties = ['dipole'])
--------------------------------------------------------------------------

    Molecular point group: c1
  Charge       = 0
  Multiplicity = 1
  Basis Set: AUG-CC-PVTZ
    Blend: AUG-CC-PVTZ
  Basis Set: (AUG-CC-PVTZ AUX)
    Blend: AUG-CC-PVTZ-JKFIT

    Orbital Energies [Eh]
    ---------------------

    Doubly Occupied:

       1A    -11.235881     2A    -11.232958     3A    -11.228309
       4A    -11.228098     5A    -11.228020     6A    -11.227468
       7A    -11.221001     8A    -11.220475     9A    -11.216473
      10A    -11.214713    11A    -11.214523    12A    -11.211457
      13A     -1.155934    14A     -1.124915    15A     -1.039911
      16A     -1.011171    17A     -0.988550    18A     -0.953593
      19A     -0.892425    20A     -0.832509    21A     -0.815802
      22A     -0.763430    23A     -0.761684    24A     -0.691488
      25A     -0.660379    26A     -0.641217    27A     -0.621663
      28A     -0.610478    29A     -0.587813    30A     -0.582277
      31A     -0.573278    32A     -0.555941    33A     -0.528359
      34A     -0.512054    35A     -0.509570    36A     -0.491813
      37A     -0.475100    38A     -0.463158    39A     -0.461469
      40A     -0.453537    41A     -0.450154    42A     -0.443803
      43A     -0.331922    44A     -0.318323

  @DF-RHF Final Energy:  -463.88857800927894

   => Energetics <=

    Nuclear Repulsion Energy =            676.4948906998489520
    One-Electron Energy =               -1968.8007440408023285
    Two-Electron Energy =                 828.4172753316745457
    Total Energy =                       -463.8885780092789446
  Basis Set: (AUG-CC-PVTZ AUX)
    Blend: AUG-CC-PVTZ-RI
    Molecular point group: c1

    Geometry (in Angstrom), charge = 0, multiplicity = 1:

       Center              X                  Y                   Z               Mass
    ------------   -----------------  -----------------  -----------------  -----------------
         C           -0.513522553667    -0.828593366899     0.214355094493    12.000000000000
         C           -2.825950553667    -0.228296366899    -0.271473905507    12.000000000000
         C           -1.443654553667    -0.334102366899    -0.917245905507    12.000000000000
         C           -1.216611553667    -0.371427366899     1.531198094493    12.000000000000
         C           -2.484844553667     0.376794633101     1.092342094493    12.000000000000
         C            0.905337446333    -0.342388366899     0.066820094493    12.000000000000
         C           -3.840567553667     0.565500633101    -1.081674905507    12.000000000000
         C            1.207605446333     1.024302633101     0.173806094493    12.000000000000
         C            1.951464446333    -1.234255366899    -0.198671905507    12.000000000000
         C            2.515963446333     1.482977633101     0.023552094493    12.000000000000
         C            3.263759446333    -0.780360366899    -0.351918905507    12.000000000000
         C            3.550015446333     0.580923633101    -0.241871905507    12.000000000000
         H           -0.495101553667    -1.925879366899     0.189579094493     1.007825032230
         H           -3.212387553667    -1.245964366899    -0.109931905507     1.007825032230
         H           -1.128263553667     0.664122633101    -1.250009905507     1.007825032230
         H           -1.416005553667    -0.991558366899    -1.793842905507     1.007825032230
         H           -0.557125553667     0.244507633101     2.149979094493     1.007825032230
         H           -1.483210553667    -1.249131366899     2.130186094493     1.007825032230
         H           -3.303315553667     0.298814633101     1.816870094493     1.007825032230
         H           -2.271779553667     1.446303633101     0.956712094493     1.007825032230
         H           -3.474695553667     1.583670633101    -1.254510905507     1.007825032230
         H           -4.021541553667     0.101780633101    -2.056679905507     1.007825032230
         H           -4.799833553667     0.635208633101    -0.558547905507     1.007825032230
         H            0.410314446333     1.737433633101     0.380286094493     1.007825032230
         H            1.735663446333    -2.298477366899    -0.282751905507     1.007825032230
         H            2.730114446333     2.545823633101     0.112369094493     1.007825032230
         H            3.988362646333    -1.425474866899    -0.537546205507     1.007825032230
         H            4.570472446333     0.937627633101    -0.359099905507     1.007825032230

  Basis Set: AUG-CC-PVTZ
    Blend: AUG-CC-PVTZ
  Basis Set: (AUG-CC-PVTZ AUX)
    Blend: AUG-CC-PVTZ-JKFIT
	 Reference Energy          =    -463.8885780092789446 [Eh]
	 Singles Energy            =      -0.0000000000000000 [Eh]
	 Same-Spin Energy          =      -0.5193738758788299 [Eh]
	 Opposite-Spin Energy      =      -1.7259004937461873 [Eh]
	 Correlation Energy        =      -2.2452743696250170 [Eh]
	 Total Energy              =    -466.1338523789039527 [Eh]

	 ================> DF-SCS-MP2 Energies <==================
	-----------------------------------------------------------
	 SCS Same-Spin Scale       =       0.3333333333333333 [-]
	 SCS Opposite-Spin Scale   =       1.2000000000000000 [-]
	 SCS Same-Spin Energy      =      -0.1731246252929433 [Eh]
	 SCS Opposite-Spin Energy  =      -2.0710805924954245 [Eh]
	 SCS Correlation Energy    =      -2.2442052177883678 [Eh]
	 SCS Total Energy          =    -466.1327832270673071 [Eh]
	-----------------------------------------------------------

  Dipole Moment: [D]
     X:    -0.5357      Y:    -0.2242      Z:     0.0304     Total:     0.5815

*** Psi4 exiting successfully. Buy a developer a beer!
