                               Psi4 1.4a3.dev225

  ==> Input File <==

--------------------------------------------------------------------------
#psi4
#
memory 32 gb

molecule  {
0 1
  C       -0.4426020    -0.8338200     0.2172010
  C       -2.7550300    -0.2335230    -0.2686280
  C       -1.3727340    -0.3393290    -0.9144000
  C       -1.1456910    -0.3766540     1.5340440
  C       -2.4139240     0.3715680     1.0951880
  C        0.9762580    -0.3476150     0.0696660
  C       -3.7696470     0.5602740    -1.0788290
  C        1.2785260     1.0190760     0.1766520
  C        2.0223850    -1.2394820    -0.1958260
  C        2.5681201     1.4711729     0.0285529
  C        3.3346800    -0.7855870    -0.3490730
  C        3.6209360     0.5756970    -0.2390260
  H       -0.4241810    -1.9311060     0.1924250
  H       -3.1414670    -1.2511910    -0.1070860
  H       -1.0573430     0.6588960    -1.2471640
  H       -1.3450850    -0.9967850    -1.7909970
  H       -0.4862050     0.2392810     2.1528250
  H       -1.4122900    -1.2543580     2.1330320
  H       -3.2323950     0.2935880     1.8197160
  H       -2.2008590     1.4410770     0.9595580
  H       -3.4037750     1.5784440    -1.2516650
  H       -3.9506210     0.0965540    -2.0538340
  H       -4.7289130     0.6299820    -0.5557020
  H        0.4812350     1.7322070     0.3831320
  H        1.8065840    -2.3037040    -0.2799060
  H        2.8010350     2.5405970     0.1152150
  H        4.1326410    -1.4960120    -0.5534930
  H        4.6413930     0.9324010    -0.3562540
units angstrom
no_reorient  #important for SAPT in psi4, default
symmetry c1  #important for SAPT in psi4, default
}

set PROPERTIES_ORIGIN ["COM"]
properties('MP2/aug-cc-pvtz', properties = ['dipole'])
--------------------------------------------------------------------------

    Molecular point group: c1
  Charge       = 0
  Multiplicity = 1
  Basis Set: AUG-CC-PVTZ
    Blend: AUG-CC-PVTZ
  Basis Set: (AUG-CC-PVTZ AUX)
    Blend: AUG-CC-PVTZ-JKFIT

    Orbital Energies [Eh]
    ---------------------

    Doubly Occupied:

       1A    -11.236638     2A    -11.233298     3A    -11.232743
       4A    -11.229641     5A    -11.228400     6A    -11.227712
       7A    -11.226361     8A    -11.221231     9A    -11.216790
      10A    -11.214949    11A    -11.214816    12A    -11.211628
      13A     -1.156770    14A     -1.125078    15A     -1.038771
      16A     -1.010597    17A     -0.988296    18A     -0.953657
      19A     -0.892790    20A     -0.825319    21A     -0.816453
      22A     -0.763627    23A     -0.757470    24A     -0.690180
      25A     -0.660622    26A     -0.634577    27A     -0.622223
      28A     -0.605161    29A     -0.585932    30A     -0.580189
      31A     -0.573743    32A     -0.556212    33A     -0.529210
      34A     -0.512099    35A     -0.510573    36A     -0.487463
      37A     -0.475500    38A     -0.463519    39A     -0.461363
      40A     -0.453858    41A     -0.450145    42A     -0.444010
      43A     -0.334702    44A     -0.317475

  @DF-RHF Final Energy:  -463.89406097898143

   => Energetics <=

    Nuclear Repulsion Energy =            676.2164074161009921
    One-Electron Energy =               -1968.2773531878058293
    Two-Electron Energy =                 828.1668847927234083
    Total Energy =                       -463.8940609789814289
  Basis Set: (AUG-CC-PVTZ AUX)
    Blend: AUG-CC-PVTZ-RI
    Molecular point group: c1

    Geometry (in Angstrom), charge = 0, multiplicity = 1:

       Center              X                  Y                   Z               Mass
    ------------   -----------------  -----------------  -----------------  -----------------
         C           -0.512578074145    -0.827689332079     0.214311884264    12.000000000000
         C           -2.825006074145    -0.227392332079    -0.271517115736    12.000000000000
         C           -1.442710074145    -0.333198332079    -0.917289115736    12.000000000000
         C           -1.215667074145    -0.370523332079     1.531154884264    12.000000000000
         C           -2.483900074145     0.377698667921     1.092298884264    12.000000000000
         C            0.906281925855    -0.341484332079     0.066776884264    12.000000000000
         C           -3.839623074145     0.566404667921    -1.081718115736    12.000000000000
         C            1.208549925855     1.025206667921     0.173762884264    12.000000000000
         C            1.952408925855    -1.233351332079    -0.198715115736    12.000000000000
         C            2.498144025855     1.477303567921     0.025663784264    12.000000000000
         C            3.264703925855    -0.779456332079    -0.351962115736    12.000000000000
         C            3.550959925855     0.581827667921    -0.241915115736    12.000000000000
         H           -0.494157074145    -1.924975332079     0.189535884264     1.007825032230
         H           -3.211443074145    -1.245060332079    -0.109975115736     1.007825032230
         H           -1.127319074145     0.665026667921    -1.250053115736     1.007825032230
         H           -1.415061074145    -0.990654332079    -1.793886115736     1.007825032230
         H           -0.556181074145     0.245411667921     2.149935884264     1.007825032230
         H           -1.482266074145    -1.248227332079     2.130142884264     1.007825032230
         H           -3.302371074145     0.299718667921     1.816826884264     1.007825032230
         H           -2.270835074145     1.447207667921     0.956668884264     1.007825032230
         H           -3.473751074145     1.584574667921    -1.254554115736     1.007825032230
         H           -4.020597074145     0.102684667921    -2.056723115736     1.007825032230
         H           -4.798889074145     0.636112667921    -0.558591115736     1.007825032230
         H            0.411258925855     1.738337667921     0.380242884264     1.007825032230
         H            1.736607925855    -2.297573332079    -0.282795115736     1.007825032230
         H            2.731058925855     2.546727667921     0.112325884264     1.007825032230
         H            4.062664925855    -1.489881332079    -0.556382115736     1.007825032230
         H            4.571416925855     0.938531667921    -0.359143115736     1.007825032230

  Basis Set: AUG-CC-PVTZ
    Blend: AUG-CC-PVTZ
  Basis Set: (AUG-CC-PVTZ AUX)
    Blend: AUG-CC-PVTZ-JKFIT
	 Reference Energy          =    -463.8940609789814289 [Eh]
	 Singles Energy            =      -0.0000000000000000 [Eh]
	 Same-Spin Energy          =      -0.5194709346739275 [Eh]
	 Opposite-Spin Energy      =      -1.7263783786419218 [Eh]
	 Correlation Energy        =      -2.2458493133158495 [Eh]
	 Total Energy              =    -466.1399102922972588 [Eh]

	 ================> DF-SCS-MP2 Energies <==================
	-----------------------------------------------------------
	 SCS Same-Spin Scale       =       0.3333333333333333 [-]
	 SCS Opposite-Spin Scale   =       1.2000000000000000 [-]
	 SCS Same-Spin Energy      =      -0.1731569782246425 [Eh]
	 SCS Opposite-Spin Energy  =      -2.0716540543703061 [Eh]
	 SCS Correlation Energy    =      -2.2448110325949484 [Eh]
	 SCS Total Energy          =    -466.1388720115763817 [Eh]
	-----------------------------------------------------------

  Dipole Moment: [D]
     X:    -0.5681      Y:    -0.2073      Z:     0.0366     Total:     0.6059

*** Psi4 exiting successfully. Buy a developer a beer!
