                               Psi4 1.4a3.dev225

  ==> Input File <==

--------------------------------------------------------------------------
#psi4
#
memory 32 gb

molecule  {
0 1
  C       -0.4426020    -0.8338200     0.2172010
  C       -2.7550300    -0.2335230    -0.2686280
  C       -1.3727340    -0.3393290    -0.9144000
  C       -1.1456910    -0.3766540     1.5340440
  C       -2.4139240     0.3715680     1.0951880
  C        0.9762580    -0.3476150     0.0696660
  C       -3.7696470     0.5602740    -1.0788290
  C        1.2785260     1.0190760     0.1766520
  C        2.0223850    -1.2394820    -0.1958260
  C        2.5868840     1.4777510     0.0263980
  C        3.3346800    -0.7855870    -0.3490730
  C        3.6619645     0.7708069    -0.2232532
  H       -0.4241810    -1.9311060     0.1924250
  H       -3.1414670    -1.2511910    -0.1070860
  H       -1.0573430     0.6588960    -1.2471640
  H       -1.3450850    -0.9967850    -1.7909970
  H       -0.4862050     0.2392810     2.1528250
  H       -1.4122900    -1.2543580     2.1330320
  H       -3.2323950     0.2935880     1.8197160
  H       -2.2008590     1.4410770     0.9595580
  H       -3.4037750     1.5784440    -1.2516650
  H       -3.9506210     0.0965540    -2.0538340
  H       -4.7289130     0.6299820    -0.5557020
  H        0.4812350     1.7322070     0.3831320
  H        1.8065840    -2.3037040    -0.2799060
  H        2.8010350     2.5405970     0.1152150
  H        4.1326410    -1.4960120    -0.5534930
  H        4.6413930     0.9324010    -0.3562540
units angstrom
no_reorient  #important for SAPT in psi4, default
symmetry c1  #important for SAPT in psi4, default
}

set PROPERTIES_ORIGIN ["COM"]
properties('MP2/aug-cc-pvtz', properties = ['dipole'])
--------------------------------------------------------------------------

    Molecular point group: c1
  Charge       = 0
  Multiplicity = 1
  Basis Set: AUG-CC-PVTZ
    Blend: AUG-CC-PVTZ
  Basis Set: (AUG-CC-PVTZ AUX)
    Blend: AUG-CC-PVTZ-JKFIT

    Orbital Energies [Eh]
    ---------------------

    Doubly Occupied:

       1A    -11.248971     2A    -11.239551     3A    -11.231225
       4A    -11.229287     5A    -11.228904     6A    -11.226824
       7A    -11.224914     8A    -11.221534     9A    -11.217146
      10A    -11.215414    11A    -11.215167    12A    -11.211834
      13A     -1.153138    14A     -1.122427    15A     -1.044025
      16A     -1.005865    17A     -0.984051    18A     -0.954977
      19A     -0.894858    20A     -0.833449    21A     -0.807611
      22A     -0.763815    23A     -0.758503    24A     -0.697200
      25A     -0.664764    26A     -0.646315    27A     -0.619346
      28A     -0.606146    29A     -0.584426    30A     -0.579453
      31A     -0.570679    32A     -0.554169    33A     -0.539207
      34A     -0.519595    35A     -0.507160    36A     -0.477529
      37A     -0.464334    38A     -0.461738    39A     -0.460770
      40A     -0.452085    41A     -0.445702    42A     -0.442565
      43A     -0.345598    44A     -0.305145

  @DF-RHF Final Energy:  -463.85246587769859

   => Energetics <=

    Nuclear Repulsion Energy =            674.1922296757711592
    One-Electron Energy =               -1964.1345611194710727
    Two-Electron Energy =                 826.0898655660013219
    Total Energy =                       -463.8524658776985916
  Basis Set: (AUG-CC-PVTZ AUX)
    Blend: AUG-CC-PVTZ-RI
    Molecular point group: c1

    Geometry (in Angstrom), charge = 0, multiplicity = 1:

       Center              X                  Y                   Z               Mass
    ------------   -----------------  -----------------  -----------------  -----------------
         C           -0.517058997808    -0.842804104721     0.213291340343    12.000000000000
         C           -2.829486997808    -0.242507104721    -0.272537659657    12.000000000000
         C           -1.447190997808    -0.348313104721    -0.918309659657    12.000000000000
         C           -1.220147997808    -0.385638104721     1.530134340343    12.000000000000
         C           -2.488380997808     0.362583895279     1.091278340343    12.000000000000
         C            0.901801002192    -0.356599104721     0.065756340343    12.000000000000
         C           -3.844103997808     0.551289895279    -1.082738659657    12.000000000000
         C            1.204069002192     1.010091895279     0.172742340343    12.000000000000
         C            1.947928002192    -1.248466104721    -0.199735659657    12.000000000000
         C            2.512427002192     1.468766895279     0.022488340343    12.000000000000
         C            3.260223002192    -0.794571104721    -0.352982659657    12.000000000000
         C            3.587507502192     0.761822795279    -0.227162859657    12.000000000000
         H           -0.498637997808    -1.940090104721     0.188515340343     1.007825032230
         H           -3.215923997808    -1.260175104721    -0.110995659657     1.007825032230
         H           -1.131799997808     0.649911895279    -1.251073659657     1.007825032230
         H           -1.419541997808    -1.005769104721    -1.794906659657     1.007825032230
         H           -0.560661997808     0.230296895279     2.148915340343     1.007825032230
         H           -1.486746997808    -1.263342104721     2.129122340343     1.007825032230
         H           -3.306851997808     0.284603895279     1.815806340343     1.007825032230
         H           -2.275315997808     1.432092895279     0.955648340343     1.007825032230
         H           -3.478231997808     1.569459895279    -1.255574659657     1.007825032230
         H           -4.025077997808     0.087569895279    -2.057743659657     1.007825032230
         H           -4.803369997808     0.620997895279    -0.559611659657     1.007825032230
         H            0.406778002192     1.723222895279     0.379222340343     1.007825032230
         H            1.732127002192    -2.312688104721    -0.283815659657     1.007825032230
         H            2.726578002192     2.531612895279     0.111305340343     1.007825032230
         H            4.058184002192    -1.504996104721    -0.557402659657     1.007825032230
         H            4.566936002192     0.923416895279    -0.360163659657     1.007825032230

  Basis Set: AUG-CC-PVTZ
    Blend: AUG-CC-PVTZ
  Basis Set: (AUG-CC-PVTZ AUX)
    Blend: AUG-CC-PVTZ-JKFIT
	 Reference Energy          =    -463.8524658776985916 [Eh]
	 Singles Energy            =      -0.0000000000000000 [Eh]
	 Same-Spin Energy          =      -0.5193359062632986 [Eh]
	 Opposite-Spin Energy      =      -1.7290778567220169 [Eh]
	 Correlation Energy        =      -2.2484137629853156 [Eh]
	 Total Energy              =    -466.1008796406838997 [Eh]

	 ================> DF-SCS-MP2 Energies <==================
	-----------------------------------------------------------
	 SCS Same-Spin Scale       =       0.3333333333333333 [-]
	 SCS Opposite-Spin Scale   =       1.2000000000000000 [-]
	 SCS Same-Spin Energy      =      -0.1731119687544329 [Eh]
	 SCS Opposite-Spin Energy  =      -2.0748934280664200 [Eh]
	 SCS Correlation Energy    =      -2.2480053968208527 [Eh]
	 SCS Total Energy          =    -466.1004712745194638 [Eh]
	-----------------------------------------------------------

  Dipole Moment: [D]
     X:    -0.5807      Y:    -0.2279      Z:     0.0325     Total:     0.6247

*** Psi4 exiting successfully. Buy a developer a beer!
