                               Psi4 1.4a3.dev225

  ==> Input File <==

--------------------------------------------------------------------------
#psi4
#
memory 32 gb

molecule  {
0 1
  C       -0.4426020    -0.8338200     0.2172010
  C       -2.7550300    -0.2335230    -0.2686280
  C       -1.3727340    -0.3393290    -0.9144000
  C       -1.1456910    -0.3766540     1.5340440
  C       -2.4139240     0.3715680     1.0951880
  C        0.9762580    -0.3476150     0.0696660
  C       -3.7696470     0.5602740    -1.0788290
  C        1.2785260     1.0190760     0.1766520
  C        2.0223850    -1.2394820    -0.1958260
  C        2.5868840     1.4777510     0.0263980
  C        3.3346800    -0.7855870    -0.3490730
  C        3.6209360     0.5756970    -0.2390260
  H       -0.4238454    -1.9510981     0.1919736
  H       -3.1414670    -1.2511910    -0.1070860
  H       -1.0573430     0.6588960    -1.2471640
  H       -1.3450850    -0.9967850    -1.7909970
  H       -0.4862050     0.2392810     2.1528250
  H       -1.4122900    -1.2543580     2.1330320
  H       -3.2323950     0.2935880     1.8197160
  H       -2.2008590     1.4410770     0.9595580
  H       -3.4037750     1.5784440    -1.2516650
  H       -3.9506210     0.0965540    -2.0538340
  H       -4.7289130     0.6299820    -0.5557020
  H        0.4812350     1.7322070     0.3831320
  H        1.8065840    -2.3037040    -0.2799060
  H        2.8010350     2.5405970     0.1152150
  H        4.1326410    -1.4960120    -0.5534930
  H        4.6413930     0.9324010    -0.3562540
units angstrom
no_reorient  #important for SAPT in psi4, default
symmetry c1  #important for SAPT in psi4, default
}

set PROPERTIES_ORIGIN ["COM"]
properties('MP2/aug-cc-pvtz', properties = ['dipole'])
--------------------------------------------------------------------------

    Molecular point group: c1
  Charge       = 0
  Multiplicity = 1
  Basis Set: AUG-CC-PVTZ
    Blend: AUG-CC-PVTZ
  Basis Set: (AUG-CC-PVTZ AUX)
    Blend: AUG-CC-PVTZ-JKFIT

    Orbital Energies [Eh]
    ---------------------

    Doubly Occupied:

       1A    -11.236670     2A    -11.233648     3A    -11.232851
       4A    -11.230853     5A    -11.228978     6A    -11.228551
       7A    -11.228119     8A    -11.221215     9A    -11.216849
      10A    -11.214975    11A    -11.214906    12A    -11.211632
      13A     -1.155914    14A     -1.124781    15A     -1.039251
      16A     -1.008474    17A     -0.988503    18A     -0.953561
      19A     -0.892350    20A     -0.826220    21A     -0.816272
      22A     -0.763597    23A     -0.756030    24A     -0.689518
      25A     -0.660091    26A     -0.635152    27A     -0.621772
      28A     -0.606446    29A     -0.586012    30A     -0.580005
      31A     -0.572790    32A     -0.556146    33A     -0.528526
      34A     -0.510855    35A     -0.510099    36A     -0.489979
      37A     -0.475374    38A     -0.463476    39A     -0.461371
      40A     -0.453557    41A     -0.449037    42A     -0.443890
      43A     -0.332377    44A     -0.318876

  @DF-RHF Final Energy:  -463.89379732263905

   => Energetics <=

    Nuclear Repulsion Energy =            675.8286301183491105
    One-Electron Energy =               -1967.5057618315008767
    Two-Electron Energy =                 827.7833343905126640
    Total Energy =                       -463.8937973226391023
  Basis Set: (AUG-CC-PVTZ AUX)
    Blend: AUG-CC-PVTZ-RI
    Molecular point group: c1

    Geometry (in Angstrom), charge = 0, multiplicity = 1:

       Center              X                  Y                   Z               Mass
    ------------   -----------------  -----------------  -----------------  -----------------
         C           -0.513986378555    -0.828056473922     0.214476216500    12.000000000000
         C           -2.826414378555    -0.227759473922    -0.271352783500    12.000000000000
         C           -1.444118378555    -0.333565473922    -0.917124783500    12.000000000000
         C           -1.217075378555    -0.370890473922     1.531319216500    12.000000000000
         C           -2.485308378555     0.377331526078     1.092463216500    12.000000000000
         C            0.904873621445    -0.341851473922     0.066941216500    12.000000000000
         C           -3.841031378555     0.566037526078    -1.081553783500    12.000000000000
         C            1.207141621445     1.024839526078     0.173927216500    12.000000000000
         C            1.951000621445    -1.233718473922    -0.198550783500    12.000000000000
         C            2.515499621445     1.483514526078     0.023673216500    12.000000000000
         C            3.263295621445    -0.779823473922    -0.351797783500    12.000000000000
         C            3.549551621445     0.581460526078    -0.241750783500    12.000000000000
         H           -0.495229778555    -1.945334573922     0.189248816500     1.007825032230
         H           -3.212851378555    -1.245427473922    -0.109810783500     1.007825032230
         H           -1.128727378555     0.664659526078    -1.249888783500     1.007825032230
         H           -1.416469378555    -0.991021473922    -1.793721783500     1.007825032230
         H           -0.557589378555     0.245044526078     2.150100216500     1.007825032230
         H           -1.483674378555    -1.248594473922     2.130307216500     1.007825032230
         H           -3.303779378555     0.299351526078     1.816991216500     1.007825032230
         H           -2.272243378555     1.446840526078     0.956833216500     1.007825032230
         H           -3.475159378555     1.584207526078    -1.254389783500     1.007825032230
         H           -4.022005378555     0.102317526078    -2.056558783500     1.007825032230
         H           -4.800297378555     0.635745526078    -0.558426783500     1.007825032230
         H            0.409850621445     1.737970526078     0.380407216500     1.007825032230
         H            1.735199621445    -2.297940473922    -0.282630783500     1.007825032230
         H            2.729650621445     2.546360526078     0.112490216500     1.007825032230
         H            4.061256621445    -1.490248473922    -0.556217783500     1.007825032230
         H            4.570008621445     0.938164526078    -0.358978783500     1.007825032230

  Basis Set: AUG-CC-PVTZ
    Blend: AUG-CC-PVTZ
  Basis Set: (AUG-CC-PVTZ AUX)
    Blend: AUG-CC-PVTZ-JKFIT
	 Reference Energy          =    -463.8937973226390454 [Eh]
	 Singles Energy            =      -0.0000000000000000 [Eh]
	 Same-Spin Energy          =      -0.5195420258547998 [Eh]
	 Opposite-Spin Energy      =      -1.7266164563045741 [Eh]
	 Correlation Energy        =      -2.2461584821593741 [Eh]
	 Total Energy              =    -466.1399558047984328 [Eh]

	 ================> DF-SCS-MP2 Energies <==================
	-----------------------------------------------------------
	 SCS Same-Spin Scale       =       0.3333333333333333 [-]
	 SCS Opposite-Spin Scale   =       1.2000000000000000 [-]
	 SCS Same-Spin Energy      =      -0.1731806752849332 [Eh]
	 SCS Opposite-Spin Energy  =      -2.0719397475654886 [Eh]
	 SCS Correlation Energy    =      -2.2451204228504218 [Eh]
	 SCS Total Energy          =    -466.1389177454894934 [Eh]
	-----------------------------------------------------------

  Dipole Moment: [D]
     X:    -0.5687      Y:    -0.1896      Z:     0.0375     Total:     0.6007

*** Psi4 exiting successfully. Buy a developer a beer!
