                               Psi4 1.4a3.dev225

  ==> Input File <==

--------------------------------------------------------------------------
#psi4
#
memory 32 gb

molecule  {
0 1
  C       -0.4343713    -0.8584307     0.2129070
  C       -2.7550300    -0.2335230    -0.2686280
  C       -1.3727340    -0.3393290    -0.9144000
  C       -1.1456910    -0.3766540     1.5340440
  C       -2.4139240     0.3715680     1.0951880
  C        0.9762580    -0.3476150     0.0696660
  C       -3.7696470     0.5602740    -1.0788290
  C        1.2785260     1.0190760     0.1766520
  C        2.0223850    -1.2394820    -0.1958260
  C        2.5868840     1.4777510     0.0263980
  C        3.3346800    -0.7855870    -0.3490730
  C        3.6209360     0.5756970    -0.2390260
  H       -0.4241810    -1.9311060     0.1924250
  H       -3.1414670    -1.2511910    -0.1070860
  H       -1.0573430     0.6588960    -1.2471640
  H       -1.3450850    -0.9967850    -1.7909970
  H       -0.4862050     0.2392810     2.1528250
  H       -1.4122900    -1.2543580     2.1330320
  H       -3.2323950     0.2935880     1.8197160
  H       -2.2008590     1.4410770     0.9595580
  H       -3.4037750     1.5784440    -1.2516650
  H       -3.9506210     0.0965540    -2.0538340
  H       -4.7289130     0.6299820    -0.5557020
  H        0.4812350     1.7322070     0.3831320
  H        1.8065840    -2.3037040    -0.2799060
  H        2.8010350     2.5405970     0.1152150
  H        4.1326410    -1.4960120    -0.5534930
  H        4.6413930     0.9324010    -0.3562540
units angstrom
no_reorient  #important for SAPT in psi4, default
symmetry c1  #important for SAPT in psi4, default
}

set PROPERTIES_ORIGIN ["COM"]
properties('MP2/aug-cc-pvtz', properties = ['dipole'])
--------------------------------------------------------------------------

    Molecular point group: c1
  Charge       = 0
  Multiplicity = 1
  Basis Set: AUG-CC-PVTZ
    Blend: AUG-CC-PVTZ
  Basis Set: (AUG-CC-PVTZ AUX)
    Blend: AUG-CC-PVTZ-JKFIT

    Orbital Energies [Eh]
    ---------------------

    Doubly Occupied:

       1A    -11.236592     2A    -11.233682     3A    -11.232644
       4A    -11.228742     5A    -11.228577     6A    -11.227635
       7A    -11.227550     8A    -11.221151     9A    -11.217118
      10A    -11.215197    11A    -11.214857    12A    -11.211582
      13A     -1.155312    14A     -1.123520    15A     -1.039494
      16A     -1.008358    17A     -0.987549    18A     -0.953217
      19A     -0.892475    20A     -0.826894    21A     -0.815610
      22A     -0.763278    23A     -0.759020    24A     -0.690248
      25A     -0.659567    26A     -0.634686    27A     -0.622062
      28A     -0.606014    29A     -0.586310    30A     -0.579898
      31A     -0.574687    32A     -0.556199    33A     -0.528548
      34A     -0.511049    35A     -0.509291    36A     -0.490213
      37A     -0.474070    38A     -0.462415    39A     -0.459247
      40A     -0.456452    41A     -0.451585    42A     -0.443795
      43A     -0.332282    44A     -0.318059

  @DF-RHF Final Energy:  -463.89394783957198

   => Energetics <=

    Nuclear Repulsion Energy =            675.6482328904113501
    One-Electron Energy =               -1967.1508923176663757
    Two-Electron Energy =                 827.6087115876829330
    Total Energy =                       -463.8939478395719789
  Basis Set: (AUG-CC-PVTZ AUX)
    Blend: AUG-CC-PVTZ-RI
    Molecular point group: c1

    Geometry (in Angstrom), charge = 0, multiplicity = 1:

       Center              X                  Y                   Z               Mass
    ------------   -----------------  -----------------  -----------------  -----------------
         C           -0.506370386132    -0.850948644544     0.210501173589    12.000000000000
         C           -2.827029086132    -0.226040944544    -0.271033826411    12.000000000000
         C           -1.444733086132    -0.331846944544    -0.916805826411    12.000000000000
         C           -1.217690086132    -0.369171944544     1.531638173589    12.000000000000
         C           -2.485923086132     0.379050055456     1.092782173589    12.000000000000
         C            0.904258913868    -0.340132944544     0.067260173589    12.000000000000
         C           -3.841646086132     0.567756055456    -1.081234826411    12.000000000000
         C            1.206526913868     1.026558055456     0.174246173589    12.000000000000
         C            1.950385913868    -1.231999944544    -0.198231826411    12.000000000000
         C            2.514884913868     1.485233055456     0.023992173589    12.000000000000
         C            3.262680913868    -0.778104944544    -0.351478826411    12.000000000000
         C            3.548936913868     0.583179055456    -0.241431826411    12.000000000000
         H           -0.496180086132    -1.923623944544     0.190019173589     1.007825032230
         H           -3.213466086132    -1.243708944544    -0.109491826411     1.007825032230
         H           -1.129342086132     0.666378055456    -1.249569826411     1.007825032230
         H           -1.417084086132    -0.989302944544    -1.793402826411     1.007825032230
         H           -0.558204086132     0.246763055456     2.150419173589     1.007825032230
         H           -1.484289086132    -1.246875944544     2.130626173589     1.007825032230
         H           -3.304394086132     0.301070055456     1.817310173589     1.007825032230
         H           -2.272858086132     1.448559055456     0.957152173589     1.007825032230
         H           -3.475774086132     1.585926055456    -1.254070826411     1.007825032230
         H           -4.022620086132     0.104036055456    -2.056239826411     1.007825032230
         H           -4.800912086132     0.637464055456    -0.558107826411     1.007825032230
         H            0.409235913868     1.739689055456     0.380726173589     1.007825032230
         H            1.734584913868    -2.296221944544    -0.282311826411     1.007825032230
         H            2.729035913868     2.548079055456     0.112809173589     1.007825032230
         H            4.060641913868    -1.488529944544    -0.555898826411     1.007825032230
         H            4.569393913868     0.939883055456    -0.358659826411     1.007825032230

  Basis Set: AUG-CC-PVTZ
    Blend: AUG-CC-PVTZ
  Basis Set: (AUG-CC-PVTZ AUX)
    Blend: AUG-CC-PVTZ-JKFIT
	 Reference Energy          =    -463.8939478395719789 [Eh]
	 Singles Energy            =      -0.0000000000000000 [Eh]
	 Same-Spin Energy          =      -0.5193828265237732 [Eh]
	 Opposite-Spin Energy      =      -1.7262913374960107 [Eh]
	 Correlation Energy        =      -2.2456741640197837 [Eh]
	 Total Energy              =    -466.1396220035917395 [Eh]

	 ================> DF-SCS-MP2 Energies <==================
	-----------------------------------------------------------
	 SCS Same-Spin Scale       =       0.3333333333333333 [-]
	 SCS Opposite-Spin Scale   =       1.2000000000000000 [-]
	 SCS Same-Spin Energy      =      -0.1731276088412577 [Eh]
	 SCS Opposite-Spin Energy  =      -2.0715496049952127 [Eh]
	 SCS Correlation Energy    =      -2.2446772138364706 [Eh]
	 SCS Total Energy          =    -466.1386250534084752 [Eh]
	-----------------------------------------------------------

  Dipole Moment: [D]
     X:    -0.5793      Y:    -0.2197      Z:     0.0349     Total:     0.6206

*** Psi4 exiting successfully. Buy a developer a beer!
