                               Psi4 1.4a3.dev225

  ==> Input File <==

--------------------------------------------------------------------------
#psi4
#
memory 32 gb

molecule  {
0 1
  C       -0.4426020    -0.8338200     0.2172010
  C       -2.8803487    -0.1337848    -0.2721265
  C       -1.3727340    -0.3393290    -0.9144000
  C       -1.1456910    -0.3766540     1.5340440
  C       -2.4139240     0.3715680     1.0951880
  C        0.9762580    -0.3476150     0.0696660
  C       -3.7696470     0.5602740    -1.0788290
  C        1.2785260     1.0190760     0.1766520
  C        2.0223850    -1.2394820    -0.1958260
  C        2.5868840     1.4777510     0.0263980
  C        3.3346800    -0.7855870    -0.3490730
  C        3.6209360     0.5756970    -0.2390260
  H       -0.4241810    -1.9311060     0.1924250
  H       -3.1414670    -1.2511910    -0.1070860
  H       -1.0573430     0.6588960    -1.2471640
  H       -1.3450850    -0.9967850    -1.7909970
  H       -0.4862050     0.2392810     2.1528250
  H       -1.4122900    -1.2543580     2.1330320
  H       -3.2323950     0.2935880     1.8197160
  H       -2.2008590     1.4410770     0.9595580
  H       -3.4037750     1.5784440    -1.2516650
  H       -3.9506210     0.0965540    -2.0538340
  H       -4.7289130     0.6299820    -0.5557020
  H        0.4812350     1.7322070     0.3831320
  H        1.8065840    -2.3037040    -0.2799060
  H        2.8010350     2.5405970     0.1152150
  H        4.1326410    -1.4960120    -0.5534930
  H        4.6413930     0.9324010    -0.3562540
units angstrom
no_reorient  #important for SAPT in psi4, default
symmetry c1  #important for SAPT in psi4, default
}

set PROPERTIES_ORIGIN ["COM"]
properties('MP2/aug-cc-pvtz', properties = ['dipole'])
--------------------------------------------------------------------------

    Molecular point group: c1
  Charge       = 0
  Multiplicity = 1
  Basis Set: AUG-CC-PVTZ
    Blend: AUG-CC-PVTZ
  Basis Set: (AUG-CC-PVTZ AUX)
    Blend: AUG-CC-PVTZ-JKFIT

    Orbital Energies [Eh]
    ---------------------

    Doubly Occupied:

       1A    -11.236889     2A    -11.233545     3A    -11.232852
       4A    -11.229181     5A    -11.229002     6A    -11.228468
       7A    -11.228265     8A    -11.226961     9A    -11.219484
      10A    -11.217622    11A    -11.217551    12A    -11.208422
      13A     -1.154401    14A     -1.121678    15A     -1.051783
      16A     -1.008670    17A     -1.000524    18A     -0.949059
      19A     -0.893311    20A     -0.826850    21A     -0.816681
      22A     -0.756941    23A     -0.753004    24A     -0.690025
      25A     -0.657274    26A     -0.634818    27A     -0.625786
      28A     -0.609213    29A     -0.592363    30A     -0.582098
      31A     -0.575748    32A     -0.561412    33A     -0.534465
      34A     -0.515550    35A     -0.510792    36A     -0.496774
      37A     -0.487663    38A     -0.467824    39A     -0.460812
      40A     -0.451526    41A     -0.437399    42A     -0.406957
      43A     -0.332325    44A     -0.318265

  @DF-RHF Final Energy:  -463.86615844571622

   => Energetics <=

    Nuclear Repulsion Energy =            674.8394498007809261
    One-Electron Energy =               -1965.4307517179909155
    Two-Electron Energy =                 826.7251434714936522
    Total Energy =                       -463.8661584457162235
  Basis Set: (AUG-CC-PVTZ AUX)
    Blend: AUG-CC-PVTZ-RI
    Molecular point group: c1

    Geometry (in Angstrom), charge = 0, multiplicity = 1:

       Center              X                  Y                   Z               Mass
    ------------   -----------------  -----------------  -----------------  -----------------
         C           -0.504592712716    -0.835656819994     0.214735557739    12.000000000000
         C           -2.942339412716    -0.135621619994    -0.274591942261    12.000000000000
         C           -1.434724712716    -0.341165819994    -0.916865442261    12.000000000000
         C           -1.207681712716    -0.378490819994     1.531578557739    12.000000000000
         C           -2.475914712716     0.369731180006     1.092722557739    12.000000000000
         C            0.914267287284    -0.349451819994     0.067200557739    12.000000000000
         C           -3.831637712716     0.558437180006    -1.081294442261    12.000000000000
         C            1.216535287284     1.017239180006     0.174186557739    12.000000000000
         C            1.960394287284    -1.241318819994    -0.198291442261    12.000000000000
         C            2.524893287284     1.475914180006     0.023932557739    12.000000000000
         C            3.272689287284    -0.787423819994    -0.351538442261    12.000000000000
         C            3.558945287284     0.573860180006    -0.241491442261    12.000000000000
         H           -0.486171712716    -1.932942819994     0.189959557739     1.007825032230
         H           -3.203457712716    -1.253027819994    -0.109551442261     1.007825032230
         H           -1.119333712716     0.657059180006    -1.249629442261     1.007825032230
         H           -1.407075712716    -0.998621819994    -1.793462442261     1.007825032230
         H           -0.548195712716     0.237444180006     2.150359557739     1.007825032230
         H           -1.474280712716    -1.256194819994     2.130566557739     1.007825032230
         H           -3.294385712716     0.291751180006     1.817250557739     1.007825032230
         H           -2.262849712716     1.439240180006     0.957092557739     1.007825032230
         H           -3.465765712716     1.576607180006    -1.254130442261     1.007825032230
         H           -4.012611712716     0.094717180006    -2.056299442261     1.007825032230
         H           -4.790903712716     0.628145180006    -0.558167442261     1.007825032230
         H            0.419244287284     1.730370180006     0.380666557739     1.007825032230
         H            1.744593287284    -2.305540819994    -0.282371442261     1.007825032230
         H            2.739044287284     2.538760180006     0.112749557739     1.007825032230
         H            4.070650287284    -1.497848819994    -0.555958442261     1.007825032230
         H            4.579402287284     0.930564180006    -0.358719442261     1.007825032230

  Basis Set: AUG-CC-PVTZ
    Blend: AUG-CC-PVTZ
  Basis Set: (AUG-CC-PVTZ AUX)
    Blend: AUG-CC-PVTZ-JKFIT
	 Reference Energy          =    -463.8661584457162235 [Eh]
	 Singles Energy            =      -0.0000000000000000 [Eh]
	 Same-Spin Energy          =      -0.5208999198533546 [Eh]
	 Opposite-Spin Energy      =      -1.7289159696220551 [Eh]
	 Correlation Energy        =      -2.2498158894754097 [Eh]
	 Total Energy              =    -466.1159743351916518 [Eh]

	 ================> DF-SCS-MP2 Energies <==================
	-----------------------------------------------------------
	 SCS Same-Spin Scale       =       0.3333333333333333 [-]
	 SCS Opposite-Spin Scale   =       1.2000000000000000 [-]
	 SCS Same-Spin Energy      =      -0.1736333066177849 [Eh]
	 SCS Opposite-Spin Energy  =      -2.0746991635464660 [Eh]
	 SCS Correlation Energy    =      -2.2483324701642506 [Eh]
	 SCS Total Energy          =    -466.1144909158804808 [Eh]
	-----------------------------------------------------------

  Dipole Moment: [D]
     X:    -0.6084      Y:    -0.1327      Z:    -0.0055     Total:     0.6227

*** Psi4 exiting successfully. Buy a developer a beer!
