                               Psi4 1.4a3.dev225

  ==> Input File <==

--------------------------------------------------------------------------
#psi4
#
memory 32 gb

molecule  {
0 1
  C       -0.4426020    -0.8338200     0.2172010
  C       -2.7403469    -0.1366120    -0.3111134
  C       -1.3727340    -0.3393290    -0.9144000
  C       -1.1456910    -0.3766540     1.5340440
  C       -2.4139240     0.3715680     1.0951880
  C        0.9762580    -0.3476150     0.0696660
  C       -3.7696470     0.5602740    -1.0788290
  C        1.2785260     1.0190760     0.1766520
  C        2.0223850    -1.2394820    -0.1958260
  C        2.5868840     1.4777510     0.0263980
  C        3.3346800    -0.7855870    -0.3490730
  C        3.6209360     0.5756970    -0.2390260
  H       -0.4241810    -1.9311060     0.1924250
  H       -3.1414670    -1.2511910    -0.1070860
  H       -1.0573430     0.6588960    -1.2471640
  H       -1.3450850    -0.9967850    -1.7909970
  H       -0.4862050     0.2392810     2.1528250
  H       -1.4122900    -1.2543580     2.1330320
  H       -3.2323950     0.2935880     1.8197160
  H       -2.2008590     1.4410770     0.9595580
  H       -3.4037750     1.5784440    -1.2516650
  H       -3.9506210     0.0965540    -2.0538340
  H       -4.7289130     0.6299820    -0.5557020
  H        0.4812350     1.7322070     0.3831320
  H        1.8065840    -2.3037040    -0.2799060
  H        2.8010350     2.5405970     0.1152150
  H        4.1326410    -1.4960120    -0.5534930
  H        4.6413930     0.9324010    -0.3562540
units angstrom
no_reorient  #important for SAPT in psi4, default
symmetry c1  #important for SAPT in psi4, default
}

set PROPERTIES_ORIGIN ["COM"]
properties('MP2/aug-cc-pvtz', properties = ['dipole'])
--------------------------------------------------------------------------

    Molecular point group: c1
  Charge       = 0
  Multiplicity = 1
  Basis Set: AUG-CC-PVTZ
    Blend: AUG-CC-PVTZ
  Basis Set: (AUG-CC-PVTZ AUX)
    Blend: AUG-CC-PVTZ-JKFIT

    Orbital Energies [Eh]
    ---------------------

    Doubly Occupied:

       1A    -11.237188     2A    -11.233931     3A    -11.233235
       4A    -11.230110     5A    -11.229457     6A    -11.228926
       7A    -11.228744     8A    -11.226890     9A    -11.218131
      10A    -11.216251    11A    -11.215422    12A    -11.211492
      13A     -1.157066    14A     -1.127576    15A     -1.044462
      16A     -1.008950    17A     -0.995054    18A     -0.956081
      19A     -0.897530    20A     -0.827033    21A     -0.817226
      22A     -0.759799    23A     -0.749409    24A     -0.691151
      25A     -0.661968    26A     -0.636023    27A     -0.625176
      28A     -0.608769    29A     -0.587536    30A     -0.580876
      31A     -0.574724    32A     -0.560552    33A     -0.528265
      34A     -0.514566    35A     -0.511150    36A     -0.490942
      37A     -0.483416    38A     -0.470495    39A     -0.463031
      40A     -0.452855    41A     -0.446656    42A     -0.421268
      43A     -0.332703    44A     -0.319677

  @DF-RHF Final Energy:  -463.88157292144649

   => Energetics <=

    Nuclear Repulsion Energy =            676.4673487007537460
    One-Electron Energy =               -1968.6743221052051922
    Two-Electron Energy =                 828.3254004830049553
    Total Energy =                       -463.8815729214464909
  Basis Set: (AUG-CC-PVTZ AUX)
    Blend: AUG-CC-PVTZ-RI
    Molecular point group: c1

    Geometry (in Angstrom), charge = 0, multiplicity = 1:

       Center              X                  Y                   Z               Mass
    ------------   -----------------  -----------------  -----------------  -----------------
         C           -0.515084637751    -0.835444945787     0.217657288975    12.000000000000
         C           -2.812829537751    -0.138236945787    -0.310657111025    12.000000000000
         C           -1.445216637751    -0.340953945787    -0.913943711025    12.000000000000
         C           -1.218173637751    -0.378278945787     1.534500288975    12.000000000000
         C           -2.486406637751     0.369943054213     1.095644288975    12.000000000000
         C            0.903775362249    -0.349239945787     0.070122288975    12.000000000000
         C           -3.842129637751     0.558649054213    -1.078372711025    12.000000000000
         C            1.206043362249     1.017451054213     0.177108288975    12.000000000000
         C            1.949902362249    -1.241106945787    -0.195369711025    12.000000000000
         C            2.514401362249     1.476126054213     0.026854288975    12.000000000000
         C            3.262197362249    -0.787211945787    -0.348616711025    12.000000000000
         C            3.548453362249     0.574072054213    -0.238569711025    12.000000000000
         H           -0.496663637751    -1.932730945787     0.192881288975     1.007825032230
         H           -3.213949637751    -1.252815945787    -0.106629711025     1.007825032230
         H           -1.129825637751     0.657271054213    -1.246707711025     1.007825032230
         H           -1.417567637751    -0.998409945787    -1.790540711025     1.007825032230
         H           -0.558687637751     0.237656054213     2.153281288975     1.007825032230
         H           -1.484772637751    -1.255982945787     2.133488288975     1.007825032230
         H           -3.304877637751     0.291963054213     1.820172288975     1.007825032230
         H           -2.273341637751     1.439452054213     0.960014288975     1.007825032230
         H           -3.476257637751     1.576819054213    -1.251208711025     1.007825032230
         H           -4.023103637751     0.094929054213    -2.053377711025     1.007825032230
         H           -4.801395637751     0.628357054213    -0.555245711025     1.007825032230
         H            0.408752362249     1.730582054213     0.383588288975     1.007825032230
         H            1.734101362249    -2.305328945787    -0.279449711025     1.007825032230
         H            2.728552362249     2.538972054213     0.115671288975     1.007825032230
         H            4.060158362249    -1.497636945787    -0.553036711025     1.007825032230
         H            4.568910362249     0.930776054213    -0.355797711025     1.007825032230

  Basis Set: AUG-CC-PVTZ
    Blend: AUG-CC-PVTZ
  Basis Set: (AUG-CC-PVTZ AUX)
    Blend: AUG-CC-PVTZ-JKFIT
	 Reference Energy          =    -463.8815729214464909 [Eh]
	 Singles Energy            =      -0.0000000000000000 [Eh]
	 Same-Spin Energy          =      -0.5202654775978609 [Eh]
	 Opposite-Spin Energy      =      -1.7276298049011989 [Eh]
	 Correlation Energy        =      -2.2478952824990599 [Eh]
	 Total Energy              =    -466.1294682039455779 [Eh]

	 ================> DF-SCS-MP2 Energies <==================
	-----------------------------------------------------------
	 SCS Same-Spin Scale       =       0.3333333333333333 [-]
	 SCS Opposite-Spin Scale   =       1.2000000000000000 [-]
	 SCS Same-Spin Energy      =      -0.1734218258659536 [Eh]
	 SCS Opposite-Spin Energy  =      -2.0731557658814386 [Eh]
	 SCS Correlation Energy    =      -2.2465775917473922 [Eh]
	 SCS Total Energy          =    -466.1281505131938729 [Eh]
	-----------------------------------------------------------

  Dipole Moment: [D]
     X:    -0.5270      Y:    -0.1217      Z:     0.0101     Total:     0.5409

*** Psi4 exiting successfully. Buy a developer a beer!
