                               Psi4 1.4a3.dev225

  ==> Input File <==

--------------------------------------------------------------------------
#psi4
#
memory 32 gb

molecule  {
0 1
  C       -0.4426020    -0.8338200     0.2172010
  C       -2.7550300    -0.2335230    -0.2686280
  C       -1.3727340    -0.3393290    -0.9144000
  C       -1.1456910    -0.3766540     1.5340440
  C       -2.3974160     0.3618287     1.1009004
  C        0.9762580    -0.3476150     0.0696660
  C       -3.7696470     0.5602740    -1.0788290
  C        1.2785260     1.0190760     0.1766520
  C        2.0223850    -1.2394820    -0.1958260
  C        2.5868840     1.4777510     0.0263980
  C        3.3346800    -0.7855870    -0.3490730
  C        3.6209360     0.5756970    -0.2390260
  H       -0.4241810    -1.9311060     0.1924250
  H       -3.1414670    -1.2511910    -0.1070860
  H       -1.0573430     0.6588960    -1.2471640
  H       -1.3450850    -0.9967850    -1.7909970
  H       -0.4862050     0.2392810     2.1528250
  H       -1.4122900    -1.2543580     2.1330320
  H       -3.2323950     0.2935880     1.8197160
  H       -2.2008590     1.4410770     0.9595580
  H       -3.4037750     1.5784440    -1.2516650
  H       -3.9506210     0.0965540    -2.0538340
  H       -4.7289130     0.6299820    -0.5557020
  H        0.4812350     1.7322070     0.3831320
  H        1.8065840    -2.3037040    -0.2799060
  H        2.8010350     2.5405970     0.1152150
  H        4.1326410    -1.4960120    -0.5534930
  H        4.6413930     0.9324010    -0.3562540
units angstrom
no_reorient  #important for SAPT in psi4, default
symmetry c1  #important for SAPT in psi4, default
}

set PROPERTIES_ORIGIN ["COM"]
properties('MP2/aug-cc-pvtz', properties = ['dipole'])
--------------------------------------------------------------------------

    Molecular point group: c1
  Charge       = 0
  Multiplicity = 1
  Basis Set: AUG-CC-PVTZ
    Blend: AUG-CC-PVTZ
  Basis Set: (AUG-CC-PVTZ AUX)
    Blend: AUG-CC-PVTZ-JKFIT

    Orbital Energies [Eh]
    ---------------------

    Doubly Occupied:

       1A    -11.236516     2A    -11.233602     3A    -11.232865
       4A    -11.228955     5A    -11.228467     6A    -11.228417
       7A    -11.228144     8A    -11.221334     9A    -11.216105
      10A    -11.215364    11A    -11.214589    12A    -11.211941
      13A     -1.156357    14A     -1.125561    15A     -1.039158
      16A     -1.008468    17A     -0.990331    18A     -0.954067
      19A     -0.892557    20A     -0.826222    21A     -0.815923
      22A     -0.763029    23A     -0.757138    24A     -0.689940
      25A     -0.660281    26A     -0.635490    27A     -0.621672
      28A     -0.607415    29A     -0.586770    30A     -0.579880
      31A     -0.573223    32A     -0.556136    33A     -0.528699
      34A     -0.510495    35A     -0.509545    36A     -0.489920
      37A     -0.477656    38A     -0.464852    39A     -0.459708
      40A     -0.454124    41A     -0.449031    42A     -0.443102
      43A     -0.332361    44A     -0.318844

  @DF-RHF Final Energy:  -463.89385961950450

   => Energetics <=

    Nuclear Repulsion Energy =            676.1481033528826856
    One-Electron Energy =               -1968.1354192882749885
    Two-Electron Energy =                 828.0934563158879200
    Total Energy =                       -463.8938596195044965
  Basis Set: (AUG-CC-PVTZ AUX)
    Blend: AUG-CC-PVTZ-RI
    Molecular point group: c1

    Geometry (in Angstrom), charge = 0, multiplicity = 1:

       Center              X                  Y                   Z               Mass
    ------------   -----------------  -----------------  -----------------  -----------------
         C           -0.515221398235    -0.827452427458     0.214045280383    12.000000000000
         C           -2.827649398235    -0.227155427458    -0.271783719617    12.000000000000
         C           -1.445353398235    -0.332961427458    -0.917555719617    12.000000000000
         C           -1.218310398235    -0.370286427458     1.530888280383    12.000000000000
         C           -2.470035398235     0.368196272542     1.097744680383    12.000000000000
         C            0.903638601765    -0.341247427458     0.066510280383    12.000000000000
         C           -3.842266398235     0.566641572542    -1.081984719617    12.000000000000
         C            1.205906601765     1.025443572542     0.173496280383    12.000000000000
         C            1.949765601765    -1.233114427458    -0.198981719617    12.000000000000
         C            2.514264601765     1.484118572542     0.023242280383    12.000000000000
         C            3.262060601765    -0.779219427458    -0.352228719617    12.000000000000
         C            3.548316601765     0.582064572542    -0.242181719617    12.000000000000
         H           -0.496800398235    -1.924738427458     0.189269280383     1.007825032230
         H           -3.214086398235    -1.244823427458    -0.110241719617     1.007825032230
         H           -1.129962398235     0.665263572542    -1.250319719617     1.007825032230
         H           -1.417704398235    -0.990417427458    -1.794152719617     1.007825032230
         H           -0.558824398235     0.245648572542     2.149669280383     1.007825032230
         H           -1.484909398235    -1.247990427458     2.129876280383     1.007825032230
         H           -3.305014398235     0.299955572542     1.816560280383     1.007825032230
         H           -2.273478398235     1.447444572542     0.956402280383     1.007825032230
         H           -3.476394398235     1.584811572542    -1.254820719617     1.007825032230
         H           -4.023240398235     0.102921572542    -2.056989719617     1.007825032230
         H           -4.801532398235     0.636349572542    -0.558857719617     1.007825032230
         H            0.408615601765     1.738574572542     0.379976280383     1.007825032230
         H            1.733964601765    -2.297336427458    -0.283061719617     1.007825032230
         H            2.728415601765     2.546964572542     0.112059280383     1.007825032230
         H            4.060021601765    -1.489644427458    -0.556648719617     1.007825032230
         H            4.568773601765     0.938768572542    -0.359409719617     1.007825032230

  Basis Set: AUG-CC-PVTZ
    Blend: AUG-CC-PVTZ
  Basis Set: (AUG-CC-PVTZ AUX)
    Blend: AUG-CC-PVTZ-JKFIT
	 Reference Energy          =    -463.8938596195044965 [Eh]
	 Singles Energy            =      -0.0000000000000000 [Eh]
	 Same-Spin Energy          =      -0.5196186881929734 [Eh]
	 Opposite-Spin Energy      =      -1.7265176947524448 [Eh]
	 Correlation Energy        =      -2.2461363829454184 [Eh]
	 Total Energy              =    -466.1399960024498910 [Eh]

	 ================> DF-SCS-MP2 Energies <==================
	-----------------------------------------------------------
	 SCS Same-Spin Scale       =       0.3333333333333333 [-]
	 SCS Opposite-Spin Scale   =       1.2000000000000000 [-]
	 SCS Same-Spin Energy      =      -0.1732062293976578 [Eh]
	 SCS Opposite-Spin Energy  =      -2.0718212337029338 [Eh]
	 SCS Correlation Energy    =      -2.2450274631005915 [Eh]
	 SCS Total Energy          =    -466.1388870826050947 [Eh]
	-----------------------------------------------------------

  Dipole Moment: [D]
     X:    -0.5671      Y:    -0.2051      Z:     0.0321     Total:     0.6039

*** Psi4 exiting successfully. Buy a developer a beer!
