                               Psi4 1.4a3.dev225

  ==> Input File <==

--------------------------------------------------------------------------
#psi4
#
memory 32 gb

molecule  {
0 1
  C       -0.4426020    -0.8338200     0.2172010
  C       -2.7550300    -0.2335230    -0.2686280
  C       -1.3727340    -0.3393290    -0.9144000
  C       -1.1456910    -0.3766540     1.5340440
  C       -2.4139240     0.3715680     1.0951880
  C        0.9762580    -0.3476150     0.0696660
  C       -3.7696470     0.5602740    -1.0788290
  C        1.2785260     1.0190760     0.1766520
  C        2.0223850    -1.2394820    -0.1958260
  C        2.5868840     1.4777510     0.0263980
  C        3.3346800    -0.7855870    -0.3490730
  C        3.6209360     0.5756970    -0.2390260
  H       -0.4241810    -1.9311060     0.1924250
  H       -3.1414670    -1.2511910    -0.1070860
  H       -1.0573430     0.6588960    -1.2471640
  H       -1.3450850    -0.9967850    -1.7909970
  H       -0.4862050     0.2392810     2.1528250
  H       -1.4122900    -1.2543580     2.1330320
  H       -3.2323950     0.2935880     1.8197160
  H       -2.2008590     1.4410770     0.9595580
  H       -3.4037750     1.5784440    -1.2516650
  H       -3.9506210     0.0965540    -2.0538340
  H       -4.7289130     0.6299820    -0.5557020
  H        0.4812350     1.7322070     0.3831320
  H        1.8065840    -2.3037040    -0.2799060
  H        2.8404069     2.7360023     0.1315441
  H        4.1326410    -1.4960120    -0.5534930
  H        4.6413930     0.9324010    -0.3562540
units angstrom
no_reorient  #important for SAPT in psi4, default
symmetry c1  #important for SAPT in psi4, default
}

set PROPERTIES_ORIGIN ["COM"]
properties('MP2/aug-cc-pvtz', properties = ['dipole'])
--------------------------------------------------------------------------

    Molecular point group: c1
  Charge       = 0
  Multiplicity = 1
  Basis Set: AUG-CC-PVTZ
    Blend: AUG-CC-PVTZ
  Basis Set: (AUG-CC-PVTZ AUX)
    Blend: AUG-CC-PVTZ-JKFIT

    Orbital Energies [Eh]
    ---------------------

    Doubly Occupied:

       1A    -11.255376     2A    -11.238239     3A    -11.234662
       4A    -11.231441     5A    -11.230903     6A    -11.229366
       7A    -11.229290     8A    -11.221591     9A    -11.217260
      10A    -11.215324    11A    -11.215275    12A    -11.211874
      13A     -1.156982    14A     -1.125333    15A     -1.039905
      16A     -1.005815    17A     -0.989082    18A     -0.954437
      19A     -0.893275    20A     -0.825954    21A     -0.809897
      22A     -0.763879    23A     -0.755287    24A     -0.687127
      25A     -0.660941    26A     -0.628298    27A     -0.622986
      28A     -0.601929    29A     -0.585596    30A     -0.577122
      31A     -0.562765    32A     -0.556696    33A     -0.529024
      34A     -0.512109    35A     -0.511236    36A     -0.480810
      37A     -0.474241    38A     -0.464124    39A     -0.462201
      40A     -0.453422    41A     -0.449626    42A     -0.444357
      43A     -0.333896    44A     -0.320289

  @DF-RHF Final Energy:  -463.87234792306532

   => Energetics <=

    Nuclear Repulsion Energy =            675.0049496232547881
    One-Electron Energy =               -1965.8161179048890972
    Two-Electron Energy =                 826.9388203585690462
    Total Energy =                       -463.8723479230652629
  Basis Set: (AUG-CC-PVTZ AUX)
    Blend: AUG-CC-PVTZ-RI
    Molecular point group: c1

    Geometry (in Angstrom), charge = 0, multiplicity = 1:

       Center              X                  Y                   Z               Mass
    ------------   -----------------  -----------------  -----------------  -----------------
         C           -0.514232072301    -0.829412181149     0.214370600346    12.000000000000
         C           -2.826660072301    -0.229115181149    -0.271458399654    12.000000000000
         C           -1.444364072301    -0.334921181149    -0.917230399654    12.000000000000
         C           -1.217321072301    -0.372246181149     1.531213600346    12.000000000000
         C           -2.485554072301     0.375975818851     1.092357600346    12.000000000000
         C            0.904627927699    -0.343207181149     0.066835600346    12.000000000000
         C           -3.841277072301     0.564681818851    -1.081659399654    12.000000000000
         C            1.206895927699     1.023483818851     0.173821600346    12.000000000000
         C            1.950754927699    -1.235074181149    -0.198656399654    12.000000000000
         C            2.515253927699     1.482158818851     0.023567600346    12.000000000000
         C            3.263049927699    -0.781179181149    -0.351903399654    12.000000000000
         C            3.549305927699     0.580104818851    -0.241856399654    12.000000000000
         H           -0.495811072301    -1.926698181149     0.189594600346     1.007825032230
         H           -3.213097072301    -1.246783181149    -0.109916399654     1.007825032230
         H           -1.128973072301     0.663303818851    -1.249994399654     1.007825032230
         H           -1.416715072301    -0.992377181149    -1.793827399654     1.007825032230
         H           -0.557835072301     0.243688818851     2.149994600346     1.007825032230
         H           -1.483920072301    -1.249950181149     2.130201600346     1.007825032230
         H           -3.304025072301     0.297995818851     1.816885600346     1.007825032230
         H           -2.272489072301     1.445484818851     0.956727600346     1.007825032230
         H           -3.475405072301     1.582851818851    -1.254495399654     1.007825032230
         H           -4.022251072301     0.100961818851    -2.056664399654     1.007825032230
         H           -4.800543072301     0.634389818851    -0.558532399654     1.007825032230
         H            0.409604927699     1.736614818851     0.380301600346     1.007825032230
         H            1.734953927699    -2.299296181149    -0.282736399654     1.007825032230
         H            2.768776827699     2.740410118851     0.128713700346     1.007825032230
         H            4.061010927699    -1.491604181149    -0.556323399654     1.007825032230
         H            4.569762927699     0.936808818851    -0.359084399654     1.007825032230

  Basis Set: AUG-CC-PVTZ
    Blend: AUG-CC-PVTZ
  Basis Set: (AUG-CC-PVTZ AUX)
    Blend: AUG-CC-PVTZ-JKFIT
	 Reference Energy          =    -463.8723479230653197 [Eh]
	 Singles Energy            =      -0.0000000000000000 [Eh]
	 Same-Spin Energy          =      -0.5199716767241138 [Eh]
	 Opposite-Spin Energy      =      -1.7286958893317317 [Eh]
	 Correlation Energy        =      -2.2486675660558455 [Eh]
	 Total Energy              =    -466.1210154891211914 [Eh]

	 ================> DF-SCS-MP2 Energies <==================
	-----------------------------------------------------------
	 SCS Same-Spin Scale       =       0.3333333333333333 [-]
	 SCS Opposite-Spin Scale   =       1.2000000000000000 [-]
	 SCS Same-Spin Energy      =      -0.1733238922413713 [Eh]
	 SCS Opposite-Spin Energy  =      -2.0744350671980780 [Eh]
	 SCS Correlation Energy    =      -2.2477589594394494 [Eh]
	 SCS Total Energy          =    -466.1201068825047855 [Eh]
	-----------------------------------------------------------

  Dipole Moment: [D]
     X:    -0.6163      Y:    -0.3236      Z:     0.0287     Total:     0.6967

*** Psi4 exiting successfully. Buy a developer a beer!
