                               Psi4 1.4a3.dev225

  ==> Input File <==

--------------------------------------------------------------------------
#psi4
#
memory 32 gb

molecule  {
0 1
  C       -0.4426020    -0.8338200     0.2172010
  C       -2.7550300    -0.2335230    -0.2686280
  C       -1.3727340    -0.3393290    -0.9144000
  C       -1.1456910    -0.3766540     1.5340440
  C       -2.4139240     0.3715680     1.0951880
  C        0.9762580    -0.3476150     0.0696660
  C       -3.7696470     0.5602740    -1.0788290
  C        1.2785260     1.0190760     0.1766520
  C        2.0223850    -1.2394820    -0.1958260
  C        2.5868840     1.4777510     0.0263980
  C        3.3346800    -0.7855870    -0.3490730
  C        3.5545544     0.5042429    -0.2368714
  H       -0.4241810    -1.9311060     0.1924250
  H       -3.1414670    -1.2511910    -0.1070860
  H       -1.0573430     0.6588960    -1.2471640
  H       -1.3450850    -0.9967850    -1.7909970
  H       -0.4862050     0.2392810     2.1528250
  H       -1.4122900    -1.2543580     2.1330320
  H       -3.2323950     0.2935880     1.8197160
  H       -2.2008590     1.4410770     0.9595580
  H       -3.4037750     1.5784440    -1.2516650
  H       -3.9506210     0.0965540    -2.0538340
  H       -4.7289130     0.6299820    -0.5557020
  H        0.4812350     1.7322070     0.3831320
  H        1.8065840    -2.3037040    -0.2799060
  H        2.8010350     2.5405970     0.1152150
  H        4.1326410    -1.4960120    -0.5534930
  H        4.6413930     0.9324010    -0.3562540
units angstrom
no_reorient  #important for SAPT in psi4, default
symmetry c1  #important for SAPT in psi4, default
}

set PROPERTIES_ORIGIN ["COM"]
properties('MP2/aug-cc-pvtz', properties = ['dipole'])
--------------------------------------------------------------------------

    Molecular point group: c1
  Charge       = 0
  Multiplicity = 1
  Basis Set: AUG-CC-PVTZ
    Blend: AUG-CC-PVTZ
  Basis Set: (AUG-CC-PVTZ AUX)
    Blend: AUG-CC-PVTZ-JKFIT

    Orbital Energies [Eh]
    ---------------------

    Doubly Occupied:

       1A    -11.234754     2A    -11.233527     3A    -11.229348
       4A    -11.228316     5A    -11.227949     6A    -11.227448
       7A    -11.222107     8A    -11.220969     9A    -11.216414
      10A    -11.214712    11A    -11.214378    12A    -11.211465
      13A     -1.161984    14A     -1.128202    15A     -1.042892
      16A     -1.013118    17A     -0.988705    18A     -0.953138
      19A     -0.891728    20A     -0.829713    21A     -0.815083
      22A     -0.763490    23A     -0.757209    24A     -0.686218
      25A     -0.660346    26A     -0.630684    27A     -0.625550
      28A     -0.607220    29A     -0.592970    30A     -0.582290
      31A     -0.571579    32A     -0.553659    33A     -0.524414
      34A     -0.514682    35A     -0.499210    36A     -0.495379
      37A     -0.473741    38A     -0.465957    39A     -0.459363
      40A     -0.452580    41A     -0.450400    42A     -0.442247
      43A     -0.336202    44A     -0.321309

  @DF-RHF Final Energy:  -463.88224527018144

   => Energetics <=

    Nuclear Repulsion Energy =            677.6940034471243735
    One-Electron Energy =               -1971.2072003009398031
    Two-Electron Energy =                 829.6309515836338733
    Total Energy =                       -463.8822452701814427
  Basis Set: (AUG-CC-PVTZ AUX)
    Blend: AUG-CC-PVTZ-RI
    Molecular point group: c1

    Geometry (in Angstrom), charge = 0, multiplicity = 1:

       Center              X                  Y                   Z               Mass
    ------------   -----------------  -----------------  -----------------  -----------------
         C           -0.509009539035    -0.822827436528     0.214311906747    12.000000000000
         C           -2.821437539035    -0.222530436528    -0.271517093253    12.000000000000
         C           -1.439141539035    -0.328336436528    -0.917289093253    12.000000000000
         C           -1.212098539035    -0.365661436528     1.531154906747    12.000000000000
         C           -2.480331539035     0.382560563472     1.092298906747    12.000000000000
         C            0.909850460965    -0.336622436528     0.066776906747    12.000000000000
         C           -3.836054539035     0.571266563472    -1.081718093253    12.000000000000
         C            1.212118460965     1.030068563472     0.173762906747    12.000000000000
         C            1.955977460965    -1.228489436528    -0.198715093253    12.000000000000
         C            2.520476460965     1.488743563472     0.023508906747    12.000000000000
         C            3.268272460965    -0.774594436528    -0.351962093253    12.000000000000
         C            3.488146860965     0.515235463472    -0.239760493253    12.000000000000
         H           -0.490588539035    -1.920113436528     0.189535906747     1.007825032230
         H           -3.207874539035    -1.240198436528    -0.109975093253     1.007825032230
         H           -1.123750539035     0.669888563472    -1.250053093253     1.007825032230
         H           -1.411492539035    -0.985792436528    -1.793886093253     1.007825032230
         H           -0.552612539035     0.250273563472     2.149935906747     1.007825032230
         H           -1.478697539035    -1.243365436528     2.130142906747     1.007825032230
         H           -3.298802539035     0.304580563472     1.816826906747     1.007825032230
         H           -2.267266539035     1.452069563472     0.956668906747     1.007825032230
         H           -3.470182539035     1.589436563472    -1.254554093253     1.007825032230
         H           -4.017028539035     0.107546563472    -2.056723093253     1.007825032230
         H           -4.795320539035     0.640974563472    -0.558591093253     1.007825032230
         H            0.414827460965     1.743199563472     0.380242906747     1.007825032230
         H            1.740176460965    -2.292711436528    -0.282795093253     1.007825032230
         H            2.734627460965     2.551589563472     0.112325906747     1.007825032230
         H            4.066233460965    -1.485019436528    -0.556382093253     1.007825032230
         H            4.574985460965     0.943393563472    -0.359143093253     1.007825032230

  Basis Set: AUG-CC-PVTZ
    Blend: AUG-CC-PVTZ
  Basis Set: (AUG-CC-PVTZ AUX)
    Blend: AUG-CC-PVTZ-JKFIT
	 Reference Energy          =    -463.8822452701814427 [Eh]
	 Singles Energy            =      -0.0000000000000000 [Eh]
	 Same-Spin Energy          =      -0.5196524517159886 [Eh]
	 Opposite-Spin Energy      =      -1.7266574110371358 [Eh]
	 Correlation Energy        =      -2.2463098627531242 [Eh]
	 Total Energy              =    -466.1285551329345935 [Eh]

	 ================> DF-SCS-MP2 Energies <==================
	-----------------------------------------------------------
	 SCS Same-Spin Scale       =       0.3333333333333333 [-]
	 SCS Opposite-Spin Scale   =       1.2000000000000000 [-]
	 SCS Same-Spin Energy      =      -0.1732174839053295 [Eh]
	 SCS Opposite-Spin Energy  =      -2.0719888932445629 [Eh]
	 SCS Correlation Energy    =      -2.2452063771498922 [Eh]
	 SCS Total Energy          =    -466.1274516473313270 [Eh]
	-----------------------------------------------------------

  Dipole Moment: [D]
     X:    -0.6058      Y:    -0.2062      Z:     0.0446     Total:     0.6415

*** Psi4 exiting successfully. Buy a developer a beer!
