                               Psi4 1.4a3.dev225

  ==> Input File <==

--------------------------------------------------------------------------
#psi4
#
memory 32 gb

molecule  {
0 1
  C       -0.4426020    -0.8338200     0.2172010
  C       -2.7550300    -0.2335230    -0.2686280
  C       -1.3727340    -0.3393290    -0.9144000
  C       -1.1456910    -0.3766540     1.5340440
  C       -2.4139240     0.3715680     1.0951880
  C        1.0233308    -0.3314844     0.0647713
  C       -3.7696470     0.5602740    -1.0788290
  C        1.2785260     1.0190760     0.1766520
  C        2.0223850    -1.2394820    -0.1958260
  C        2.5868840     1.4777510     0.0263980
  C        3.3346800    -0.7855870    -0.3490730
  C        3.6209360     0.5756970    -0.2390260
  H       -0.4241810    -1.9311060     0.1924250
  H       -3.1414670    -1.2511910    -0.1070860
  H       -1.0573430     0.6588960    -1.2471640
  H       -1.3450850    -0.9967850    -1.7909970
  H       -0.4862050     0.2392810     2.1528250
  H       -1.4122900    -1.2543580     2.1330320
  H       -3.2323950     0.2935880     1.8197160
  H       -2.2008590     1.4410770     0.9595580
  H       -3.4037750     1.5784440    -1.2516650
  H       -3.9506210     0.0965540    -2.0538340
  H       -4.7289130     0.6299820    -0.5557020
  H        0.4812350     1.7322070     0.3831320
  H        1.8065840    -2.3037040    -0.2799060
  H        2.8010350     2.5405970     0.1152150
  H        4.1326410    -1.4960120    -0.5534930
  H        4.6413930     0.9324010    -0.3562540
units angstrom
no_reorient  #important for SAPT in psi4, default
symmetry c1  #important for SAPT in psi4, default
}

set PROPERTIES_ORIGIN ["COM"]
properties('MP2/aug-cc-pvtz', properties = ['dipole'])
--------------------------------------------------------------------------

    Molecular point group: c1
  Charge       = 0
  Multiplicity = 1
  Basis Set: AUG-CC-PVTZ
    Blend: AUG-CC-PVTZ
  Basis Set: (AUG-CC-PVTZ AUX)
    Blend: AUG-CC-PVTZ-JKFIT

    Orbital Energies [Eh]
    ---------------------

    Doubly Occupied:

       1A    -11.233842     2A    -11.233105     3A    -11.232976
       4A    -11.229582     5A    -11.228684     6A    -11.226124
       7A    -11.225663     8A    -11.220456     9A    -11.215603
      10A    -11.214164    11A    -11.213554    12A    -11.211062
      13A     -1.158114    14A     -1.124868    15A     -1.035813
      16A     -1.011434    17A     -0.989004    18A     -0.953375
      19A     -0.890375    20A     -0.828047    21A     -0.814701
      22A     -0.762697    23A     -0.756674    24A     -0.691249
      25A     -0.658835    26A     -0.632197    27A     -0.622865
      28A     -0.606362    29A     -0.588940    30A     -0.581065
      31A     -0.572514    32A     -0.554791    33A     -0.528283
      34A     -0.511288    35A     -0.509617    36A     -0.494519
      37A     -0.473129    38A     -0.462636    39A     -0.460228
      40A     -0.450697    41A     -0.449484    42A     -0.438501
      43A     -0.333392    44A     -0.323489

  @DF-RHF Final Energy:  -463.89282574251899

   => Energetics <=

    Nuclear Repulsion Energy =            675.9610553142124445
    One-Electron Energy =               -1967.7997671187724791
    Two-Electron Energy =                 827.9458860620410405
    Total Energy =                       -463.8928257425189940
  Basis Set: (AUG-CC-PVTZ AUX)
    Blend: AUG-CC-PVTZ-RI
    Molecular point group: c1

    Geometry (in Angstrom), charge = 0, multiplicity = 1:

       Center              X                  Y                   Z               Mass
    ------------   -----------------  -----------------  -----------------  -----------------
         C           -0.517511965859    -0.829391152899     0.214840190863    12.000000000000
         C           -2.829939965859    -0.229094152899    -0.270988809137    12.000000000000
         C           -1.447643965859    -0.334900152899    -0.916760809137    12.000000000000
         C           -1.220600965859    -0.372225152899     1.531683190863    12.000000000000
         C           -2.488833965859     0.375996847101     1.092827190863    12.000000000000
         C            0.948420834141    -0.327055552899     0.062410490863    12.000000000000
         C           -3.844556965859     0.564702847101    -1.081189809137    12.000000000000
         C            1.203616034141     1.023504847101     0.174291190863    12.000000000000
         C            1.947475034141    -1.235053152899    -0.198186809137    12.000000000000
         C            2.511974034141     1.482179847101     0.024037190863    12.000000000000
         C            3.259770034141    -0.781158152899    -0.351433809137    12.000000000000
         C            3.546026034141     0.580125847101    -0.241386809137    12.000000000000
         H           -0.499090965859    -1.926677152899     0.190064190863     1.007825032230
         H           -3.216376965859    -1.246762152899    -0.109446809137     1.007825032230
         H           -1.132252965859     0.663324847101    -1.249524809137     1.007825032230
         H           -1.419994965859    -0.992356152899    -1.793357809137     1.007825032230
         H           -0.561114965859     0.243709847101     2.150464190863     1.007825032230
         H           -1.487199965859    -1.249929152899     2.130671190863     1.007825032230
         H           -3.307304965859     0.298016847101     1.817355190863     1.007825032230
         H           -2.275768965859     1.445505847101     0.957197190863     1.007825032230
         H           -3.478684965859     1.582872847101    -1.254025809137     1.007825032230
         H           -4.025530965859     0.100982847101    -2.056194809137     1.007825032230
         H           -4.803822965859     0.634410847101    -0.558062809137     1.007825032230
         H            0.406325034141     1.736635847101     0.380771190863     1.007825032230
         H            1.731674034141    -2.299275152899    -0.282266809137     1.007825032230
         H            2.726125034141     2.545025847101     0.112854190863     1.007825032230
         H            4.057731034141    -1.491583152899    -0.555853809137     1.007825032230
         H            4.566483034141     0.936829847101    -0.358614809137     1.007825032230

  Basis Set: AUG-CC-PVTZ
    Blend: AUG-CC-PVTZ
  Basis Set: (AUG-CC-PVTZ AUX)
    Blend: AUG-CC-PVTZ-JKFIT
	 Reference Energy          =    -463.8928257425189940 [Eh]
	 Singles Energy            =      -0.0000000000000000 [Eh]
	 Same-Spin Energy          =      -0.5190958174230943 [Eh]
	 Opposite-Spin Energy      =      -1.7257739412031847 [Eh]
	 Correlation Energy        =      -2.2448697586262791 [Eh]
	 Total Energy              =    -466.1376955011452878 [Eh]

	 ================> DF-SCS-MP2 Energies <==================
	-----------------------------------------------------------
	 SCS Same-Spin Scale       =       0.3333333333333333 [-]
	 SCS Opposite-Spin Scale   =       1.2000000000000000 [-]
	 SCS Same-Spin Energy      =      -0.1730319391410314 [Eh]
	 SCS Opposite-Spin Energy  =      -2.0709287294438217 [Eh]
	 SCS Correlation Energy    =      -2.2439606685848532 [Eh]
	 SCS Total Energy          =    -466.1367864111038557 [Eh]
	-----------------------------------------------------------

  Dipole Moment: [D]
     X:    -0.4766      Y:    -0.1967      Z:     0.0305     Total:     0.5165

*** Psi4 exiting successfully. Buy a developer a beer!
