                               Psi4 1.4a3.dev225

  ==> Input File <==

--------------------------------------------------------------------------
#psi4
#
memory 32 gb

molecule  {
0 1
  C       -0.4426020    -0.8338200     0.2172010
  C       -2.7550300    -0.2335230    -0.2686280
  C       -1.3727340    -0.3393290    -0.9144000
  C       -1.1456910    -0.3766540     1.5340440
  C       -2.4139240     0.3715680     1.0951880
  C        0.9762580    -0.3476150     0.0696660
  C       -3.7696470     0.5602740    -1.0788290
  C        1.2785260     1.0190760     0.1766520
  C        2.0223850    -1.2394820    -0.1958260
  C        2.5868840     1.4777510     0.0263980
  C        3.3346800    -0.7855870    -0.3490730
  C        3.6209360     0.5756970    -0.2390260
  H       -0.4241810    -1.9311060     0.1924250
  H       -3.1414670    -1.2511910    -0.1070860
  H       -1.0723021     0.6932385    -1.1384571
  H       -1.3450850    -0.9967850    -1.7909970
  H       -0.4862050     0.2392810     2.1528250
  H       -1.4122900    -1.2543580     2.1330320
  H       -3.2323950     0.2935880     1.8197160
  H       -2.2008590     1.4410770     0.9595580
  H       -3.4037750     1.5784440    -1.2516650
  H       -3.9506210     0.0965540    -2.0538340
  H       -4.7289130     0.6299820    -0.5557020
  H        0.4812350     1.7322070     0.3831320
  H        1.8065840    -2.3037040    -0.2799060
  H        2.8010350     2.5405970     0.1152150
  H        4.1326410    -1.4960120    -0.5534930
  H        4.6413930     0.9324010    -0.3562540
units angstrom
no_reorient  #important for SAPT in psi4, default
symmetry c1  #important for SAPT in psi4, default
}

set PROPERTIES_ORIGIN ["COM"]
properties('MP2/aug-cc-pvtz', properties = ['dipole'])
--------------------------------------------------------------------------

    Molecular point group: c1
  Charge       = 0
  Multiplicity = 1
  Basis Set: AUG-CC-PVTZ
    Blend: AUG-CC-PVTZ
  Basis Set: (AUG-CC-PVTZ AUX)
    Blend: AUG-CC-PVTZ-JKFIT

    Orbital Energies [Eh]
    ---------------------

    Doubly Occupied:

       1A    -11.236439     2A    -11.233678     3A    -11.232893
       4A    -11.228987     5A    -11.228568     6A    -11.228164
       7A    -11.227825     8A    -11.220625     9A    -11.216722
      10A    -11.215240    11A    -11.214976    12A    -11.211563
      13A     -1.156312    14A     -1.125373    15A     -1.039519
      16A     -1.008523    17A     -0.988412    18A     -0.953770
      19A     -0.892785    20A     -0.826466    21A     -0.816191
      22A     -0.762815    23A     -0.756329    24A     -0.690076
      25A     -0.662017    26A     -0.634810    27A     -0.622116
      28A     -0.606456    29A     -0.585958    30A     -0.580508
      31A     -0.574211    32A     -0.556853    33A     -0.529915
      34A     -0.511025    35A     -0.509608    36A     -0.490523
      37A     -0.476328    38A     -0.462268    39A     -0.461331
      40A     -0.452458    41A     -0.449396    42A     -0.443737
      43A     -0.332386    44A     -0.318901

  @DF-RHF Final Energy:  -463.89286780403427

   => Energetics <=

    Nuclear Repulsion Energy =            676.1417123618368805
    One-Electron Energy =               -1968.1230503462895740
    Two-Electron Energy =                 828.0884701804184260
    Total Energy =                       -463.8928678040342675
  Basis Set: (AUG-CC-PVTZ AUX)
    Blend: AUG-CC-PVTZ-RI
    Molecular point group: c1

    Geometry (in Angstrom), charge = 0, multiplicity = 1:

       Center              X                  Y                   Z               Mass
    ------------   -----------------  -----------------  -----------------  -----------------
         C           -0.513890113998    -0.828398454883     0.213789176192    12.000000000000
         C           -2.826318113998    -0.228101454883    -0.272039823808    12.000000000000
         C           -1.444022113998    -0.333907454883    -0.917811823808    12.000000000000
         C           -1.216979113998    -0.371232454883     1.530632176192    12.000000000000
         C           -2.485212113998     0.376989545117     1.091776176192    12.000000000000
         C            0.904969886002    -0.342193454883     0.066254176192    12.000000000000
         C           -3.840935113998     0.565695545117    -1.082240823808    12.000000000000
         C            1.207237886002     1.024497545117     0.173240176192    12.000000000000
         C            1.951096886002    -1.234060454883    -0.199237823808    12.000000000000
         C            2.515595886002     1.483172545117     0.022986176192    12.000000000000
         C            3.263391886002    -0.780165454883    -0.352484823808    12.000000000000
         C            3.549647886002     0.581118545117    -0.242437823808    12.000000000000
         H           -0.495469113998    -1.925684454883     0.189013176192     1.007825032230
         H           -3.212755113998    -1.245769454883    -0.110497823808     1.007825032230
         H           -1.143590213998     0.698660045117    -1.141868923808     1.007825032230
         H           -1.416373113998    -0.991363454883    -1.794408823808     1.007825032230
         H           -0.557493113998     0.244702545117     2.149413176192     1.007825032230
         H           -1.483578113998    -1.248936454883     2.129620176192     1.007825032230
         H           -3.303683113998     0.299009545117     1.816304176192     1.007825032230
         H           -2.272147113998     1.446498545117     0.956146176192     1.007825032230
         H           -3.475063113998     1.583865545117    -1.255076823808     1.007825032230
         H           -4.021909113998     0.101975545117    -2.057245823808     1.007825032230
         H           -4.800201113998     0.635403545117    -0.559113823808     1.007825032230
         H            0.409946886002     1.737628545117     0.379720176192     1.007825032230
         H            1.735295886002    -2.298282454883    -0.283317823808     1.007825032230
         H            2.729746886002     2.546018545117     0.111803176192     1.007825032230
         H            4.061352886002    -1.490590454883    -0.556904823808     1.007825032230
         H            4.570104886002     0.937822545117    -0.359665823808     1.007825032230

  Basis Set: AUG-CC-PVTZ
    Blend: AUG-CC-PVTZ
  Basis Set: (AUG-CC-PVTZ AUX)
    Blend: AUG-CC-PVTZ-JKFIT
	 Reference Energy          =    -463.8928678040342675 [Eh]
	 Singles Energy            =      -0.0000000000000000 [Eh]
	 Same-Spin Energy          =      -0.5197646559551309 [Eh]
	 Opposite-Spin Energy      =      -1.7267958689973457 [Eh]
	 Correlation Energy        =      -2.2465605249524767 [Eh]
	 Total Energy              =    -466.1394283289867531 [Eh]

	 ================> DF-SCS-MP2 Energies <==================
	-----------------------------------------------------------
	 SCS Same-Spin Scale       =       0.3333333333333333 [-]
	 SCS Opposite-Spin Scale   =       1.2000000000000000 [-]
	 SCS Same-Spin Energy      =      -0.1732548853183770 [Eh]
	 SCS Opposite-Spin Energy  =      -2.0721550427968149 [Eh]
	 SCS Correlation Energy    =      -2.2454099281151918 [Eh]
	 SCS Total Energy          =    -466.1382777321494473 [Eh]
	-----------------------------------------------------------

  Dipole Moment: [D]
     X:    -0.5703      Y:    -0.2160      Z:     0.0584     Total:     0.6127

*** Psi4 exiting successfully. Buy a developer a beer!
