                               Psi4 1.4a3.dev225

  ==> Input File <==

--------------------------------------------------------------------------
#psi4
#
memory 32 gb

molecule  {
0 1
  C       -0.4426020    -0.8338200     0.2172010
  C       -2.7550300    -0.2335230    -0.2686280
  C       -1.3727340    -0.3393290    -0.9144000
  C       -1.1456910    -0.3766540     1.5340440
  C       -2.4139240     0.3715680     1.0951880
  C        0.9762580    -0.3476150     0.0696660
  C       -3.7696470     0.5602740    -1.0788290
  C        1.2785260     1.0190760     0.1766520
  C        2.0223850    -1.2394820    -0.1958260
  C        2.5868840     1.4777510     0.0263980
  C        3.3346800    -0.7855870    -0.3490730
  C        3.6209360     0.5756970    -0.2390260
  H       -0.4241810    -1.9311060     0.1924250
  H       -3.1414670    -1.2511910    -0.1070860
  H       -1.0573430     0.6588960    -1.2471640
  H       -1.3450850    -0.9967850    -1.7909970
  H       -0.4560684     0.2674275     2.1811015
  H       -1.4122900    -1.2543580     2.1330320
  H       -3.2323950     0.2935880     1.8197160
  H       -2.2008590     1.4410770     0.9595580
  H       -3.4037750     1.5784440    -1.2516650
  H       -3.9506210     0.0965540    -2.0538340
  H       -4.7289130     0.6299820    -0.5557020
  H        0.4812350     1.7322070     0.3831320
  H        1.8065840    -2.3037040    -0.2799060
  H        2.8010350     2.5405970     0.1152150
  H        4.1326410    -1.4960120    -0.5534930
  H        4.6413930     0.9324010    -0.3562540
units angstrom
no_reorient  #important for SAPT in psi4, default
symmetry c1  #important for SAPT in psi4, default
}

set PROPERTIES_ORIGIN ["COM"]
properties('MP2/aug-cc-pvtz', properties = ['dipole'])
--------------------------------------------------------------------------

    Molecular point group: c1
  Charge       = 0
  Multiplicity = 1
  Basis Set: AUG-CC-PVTZ
    Blend: AUG-CC-PVTZ
  Basis Set: (AUG-CC-PVTZ AUX)
    Blend: AUG-CC-PVTZ-JKFIT

    Orbital Energies [Eh]
    ---------------------

    Doubly Occupied:

       1A    -11.236479     2A    -11.233451     3A    -11.232736
       4A    -11.228946     5A    -11.228827     6A    -11.228288
       7A    -11.228055     8A    -11.222635     9A    -11.221570
      10A    -11.215416    11A    -11.215091    12A    -11.211892
      13A     -1.155912    14A     -1.124833    15A     -1.039513
      16A     -1.008324    17A     -0.987422    18A     -0.953602
      19A     -0.892040    20A     -0.825795    21A     -0.815548
      22A     -0.763920    23A     -0.755243    24A     -0.689214
      25A     -0.660781    26A     -0.634353    27A     -0.621536
      28A     -0.605255    29A     -0.585737    30A     -0.579867
      31A     -0.573520    32A     -0.555206    33A     -0.528581
      34A     -0.510578    35A     -0.509286    36A     -0.489768
      37A     -0.474494    38A     -0.463692    39A     -0.461608
      40A     -0.454013    41A     -0.448919    42A     -0.443284
      43A     -0.332204    44A     -0.318693

  @DF-RHF Final Energy:  -463.89213932636932

   => Energetics <=

    Nuclear Repulsion Energy =            675.7154004104163505
    One-Electron Energy =               -1967.2828240037692922
    Two-Electron Energy =                 827.6752842669836809
    Total Energy =                       -463.8921393263692607
  Basis Set: (AUG-CC-PVTZ AUX)
    Blend: AUG-CC-PVTZ-RI
    Molecular point group: c1

    Geometry (in Angstrom), charge = 0, multiplicity = 1:

       Center              X                  Y                   Z               Mass
    ------------   -----------------  -----------------  -----------------  -----------------
         C           -0.514173945495    -0.828359457375     0.214295403632    12.000000000000
         C           -2.826601945495    -0.228062457375    -0.271533596368    12.000000000000
         C           -1.444305945495    -0.333868457375    -0.917305596368    12.000000000000
         C           -1.217262945495    -0.371193457375     1.531138403632    12.000000000000
         C           -2.485495945495     0.377028542625     1.092282403632    12.000000000000
         C            0.904686054505    -0.342154457375     0.066760403632    12.000000000000
         C           -3.841218945495     0.565734542625    -1.081734596368    12.000000000000
         C            1.206954054505     1.024536542625     0.173746403632    12.000000000000
         C            1.950813054505    -1.234021457375    -0.198731596368    12.000000000000
         C            2.515312054505     1.483211542625     0.023492403632    12.000000000000
         C            3.263108054505    -0.780126457375    -0.351978596368    12.000000000000
         C            3.549364054505     0.581157542625    -0.241931596368    12.000000000000
         H           -0.495752945495    -1.925645457375     0.189519403632     1.007825032230
         H           -3.213038945495    -1.245730457375    -0.109991596368     1.007825032230
         H           -1.128914945495     0.664356542625    -1.250069596368     1.007825032230
         H           -1.416656945495    -0.991324457375    -1.793902596368     1.007825032230
         H           -0.527640345495     0.272888042625     2.178195903632     1.007825032230
         H           -1.483861945495    -1.248897457375     2.130126403632     1.007825032230
         H           -3.303966945495     0.299048542625     1.816810403632     1.007825032230
         H           -2.272430945495     1.446537542625     0.956652403632     1.007825032230
         H           -3.475346945495     1.583904542625    -1.254570596368     1.007825032230
         H           -4.022192945495     0.102014542625    -2.056739596368     1.007825032230
         H           -4.800484945495     0.635442542625    -0.558607596368     1.007825032230
         H            0.409663054505     1.737667542625     0.380226403632     1.007825032230
         H            1.735012054505    -2.298243457375    -0.282811596368     1.007825032230
         H            2.729463054505     2.546057542625     0.112309403632     1.007825032230
         H            4.061069054505    -1.490551457375    -0.556398596368     1.007825032230
         H            4.569821054505     0.937861542625    -0.359159596368     1.007825032230

  Basis Set: AUG-CC-PVTZ
    Blend: AUG-CC-PVTZ
  Basis Set: (AUG-CC-PVTZ AUX)
    Blend: AUG-CC-PVTZ-JKFIT
	 Reference Energy          =    -463.8921393263693176 [Eh]
	 Singles Energy            =      -0.0000000000000000 [Eh]
	 Same-Spin Energy          =      -0.5195822256143389 [Eh]
	 Opposite-Spin Energy      =      -1.7268784705193148 [Eh]
	 Correlation Energy        =      -2.2464606961336537 [Eh]
	 Total Energy              =    -466.1386000225029989 [Eh]

	 ================> DF-SCS-MP2 Energies <==================
	-----------------------------------------------------------
	 SCS Same-Spin Scale       =       0.3333333333333333 [-]
	 SCS Opposite-Spin Scale   =       1.2000000000000000 [-]
	 SCS Same-Spin Energy      =      -0.1731940752047796 [Eh]
	 SCS Opposite-Spin Energy  =      -2.0722541646231778 [Eh]
	 SCS Correlation Energy    =      -2.2454482398279576 [Eh]
	 SCS Total Energy          =    -466.1375875661972827 [Eh]
	-----------------------------------------------------------

  Dipole Moment: [D]
     X:    -0.5931      Y:    -0.2110      Z:     0.0113     Total:     0.6296

*** Psi4 exiting successfully. Buy a developer a beer!
