                               Psi4 1.4a3.dev225

  ==> Input File <==

--------------------------------------------------------------------------
#psi4
#
memory 32 gb

molecule  {
0 1
  C       -0.4711798    -0.7339719     0.2339146
  C       -2.7550300    -0.2335230    -0.2686280
  C       -1.3727340    -0.3393290    -0.9144000
  C       -1.1456910    -0.3766540     1.5340440
  C       -2.4139240     0.3715680     1.0951880
  C        0.9762580    -0.3476150     0.0696660
  C       -3.7696470     0.5602740    -1.0788290
  C        1.2785260     1.0190760     0.1766520
  C        2.0223850    -1.2394820    -0.1958260
  C        2.5868840     1.4777510     0.0263980
  C        3.3346800    -0.7855870    -0.3490730
  C        3.6209360     0.5756970    -0.2390260
  H       -0.4241810    -1.9311060     0.1924250
  H       -3.1414670    -1.2511910    -0.1070860
  H       -1.0573430     0.6588960    -1.2471640
  H       -1.3450850    -0.9967850    -1.7909970
  H       -0.4862050     0.2392810     2.1528250
  H       -1.4122900    -1.2543580     2.1330320
  H       -3.2323950     0.2935880     1.8197160
  H       -2.2008590     1.4410770     0.9595580
  H       -3.4037750     1.5784440    -1.2516650
  H       -3.9506210     0.0965540    -2.0538340
  H       -4.7289130     0.6299820    -0.5557020
  H        0.4812350     1.7322070     0.3831320
  H        1.8065840    -2.3037040    -0.2799060
  H        2.8010350     2.5405970     0.1152150
  H        4.1326410    -1.4960120    -0.5534930
  H        4.6413930     0.9324010    -0.3562540
units angstrom
no_reorient  #important for SAPT in psi4, default
symmetry c1  #important for SAPT in psi4, default
}

set PROPERTIES_ORIGIN ["COM"]
properties('MP2/aug-cc-pvtz', properties = ['dipole'])
--------------------------------------------------------------------------

    Molecular point group: c1
  Charge       = 0
  Multiplicity = 1
  Basis Set: AUG-CC-PVTZ
    Blend: AUG-CC-PVTZ
  Basis Set: (AUG-CC-PVTZ AUX)
    Blend: AUG-CC-PVTZ-JKFIT

    Orbital Energies [Eh]
    ---------------------

    Doubly Occupied:

       1A    -11.236883     2A    -11.233741     3A    -11.233285
       4A    -11.233010     5A    -11.230192     6A    -11.229768
       7A    -11.227831     8A    -11.221414     9A    -11.215739
      10A    -11.215120    11A    -11.213829    12A    -11.211704
      13A     -1.159645    14A     -1.129808    15A     -1.040001
      16A     -1.008828    17A     -0.992414    18A     -0.956342
      19A     -0.894010    20A     -0.824581    21A     -0.818804
      22A     -0.765663    23A     -0.751134    24A     -0.689490
      25A     -0.663817    26A     -0.638071    27A     -0.621129
      28A     -0.608079    29A     -0.586497    30A     -0.580624
      31A     -0.569550    32A     -0.555911    33A     -0.528913
      34A     -0.514454    35A     -0.510841    36A     -0.489961
      37A     -0.483340    38A     -0.470126    39A     -0.465147
      40A     -0.454396    41A     -0.443984    42A     -0.423362
      43A     -0.332679    44A     -0.321367

  @DF-RHF Final Energy:  -463.88164208106696

   => Energetics <=

    Nuclear Repulsion Energy =            677.0708186532700665
    One-Electron Energy =               -1969.9139479379239219
    Two-Electron Energy =                 828.9614872035870121
    Total Energy =                       -463.8816420810669570
  Basis Set: (AUG-CC-PVTZ AUX)
    Blend: AUG-CC-PVTZ-RI
    Molecular point group: c1

    Geometry (in Angstrom), charge = 0, multiplicity = 1:

       Center              X                  Y                   Z               Mass
    ------------   -----------------  -----------------  -----------------  -----------------
         C           -0.540420407150    -0.735816956050     0.229934435514    12.000000000000
         C           -2.824270607150    -0.235368056050    -0.272608164486    12.000000000000
         C           -1.441974607150    -0.341174056050    -0.918380164486    12.000000000000
         C           -1.214931607150    -0.378499056050     1.530063835514    12.000000000000
         C           -2.483164607150     0.369722943950     1.091207835514    12.000000000000
         C            0.907017392850    -0.349460056050     0.065685835514    12.000000000000
         C           -3.838887607150     0.558428943950    -1.082809164486    12.000000000000
         C            1.209285392850     1.017230943950     0.172671835514    12.000000000000
         C            1.953144392850    -1.241327056050    -0.199806164486    12.000000000000
         C            2.517643392850     1.475905943950     0.022417835514    12.000000000000
         C            3.265439392850    -0.787432056050    -0.353053164486    12.000000000000
         C            3.551695392850     0.573851943950    -0.243006164486    12.000000000000
         H           -0.493421607150    -1.932951056050     0.188444835514     1.007825032230
         H           -3.210707607150    -1.253036056050    -0.111066164486     1.007825032230
         H           -1.126583607150     0.657050943950    -1.251144164486     1.007825032230
         H           -1.414325607150    -0.998630056050    -1.794977164486     1.007825032230
         H           -0.555445607150     0.237435943950     2.148844835514     1.007825032230
         H           -1.481530607150    -1.256203056050     2.129051835514     1.007825032230
         H           -3.301635607150     0.291742943950     1.815735835514     1.007825032230
         H           -2.270099607150     1.439231943950     0.955577835514     1.007825032230
         H           -3.473015607150     1.576598943950    -1.255645164486     1.007825032230
         H           -4.019861607150     0.094708943950    -2.057814164486     1.007825032230
         H           -4.798153607150     0.628136943950    -0.559682164486     1.007825032230
         H            0.411994392850     1.730361943950     0.379151835514     1.007825032230
         H            1.737343392850    -2.305549056050    -0.283886164486     1.007825032230
         H            2.731794392850     2.538751943950     0.111234835514     1.007825032230
         H            4.063400392850    -1.497857056050    -0.557473164486     1.007825032230
         H            4.572152392850     0.930555943950    -0.360234164486     1.007825032230

  Basis Set: AUG-CC-PVTZ
    Blend: AUG-CC-PVTZ
  Basis Set: (AUG-CC-PVTZ AUX)
    Blend: AUG-CC-PVTZ-JKFIT
	 Reference Energy          =    -463.8816420810669570 [Eh]
	 Singles Energy            =      -0.0000000000000000 [Eh]
	 Same-Spin Energy          =      -0.5204236833532621 [Eh]
	 Opposite-Spin Energy      =      -1.7279787880334028 [Eh]
	 Correlation Energy        =      -2.2484024713866648 [Eh]
	 Total Energy              =    -466.1300445524536258 [Eh]

	 ================> DF-SCS-MP2 Energies <==================
	-----------------------------------------------------------
	 SCS Same-Spin Scale       =       0.3333333333333333 [-]
	 SCS Opposite-Spin Scale   =       1.2000000000000000 [-]
	 SCS Same-Spin Energy      =      -0.1734745611177540 [Eh]
	 SCS Opposite-Spin Energy  =      -2.0735745456400831 [Eh]
	 SCS Correlation Energy    =      -2.2470491067578373 [Eh]
	 SCS Total Energy          =    -466.1286911878248134 [Eh]
	-----------------------------------------------------------

  Dipole Moment: [D]
     X:    -0.5321      Y:    -0.1159      Z:     0.0465     Total:     0.5466

*** Psi4 exiting successfully. Buy a developer a beer!
