                               Psi4 1.4a3.dev225

  ==> Input File <==

--------------------------------------------------------------------------
#psi4
#
memory 32 gb

molecule  {
0 1
  C       -0.4426020    -0.8338200     0.2172010
  C       -2.7550300    -0.2335230    -0.2686280
  C       -1.3727340    -0.3393290    -0.9144000
  C       -1.1456910    -0.3766540     1.5340440
  C       -2.4139240     0.3715680     1.0951880
  C        0.9762580    -0.3476150     0.0696660
  C       -3.7696470     0.5602740    -1.0788290
  C        1.2785260     1.0190760     0.1766520
  C        2.0223850    -1.2394820    -0.1958260
  C        2.5868840     1.4777510     0.0263980
  C        3.3534673    -0.7790889    -0.3512669
  C        3.6209360     0.5756970    -0.2390260
  H       -0.4241810    -1.9311060     0.1924250
  H       -3.1414670    -1.2511910    -0.1070860
  H       -1.0573430     0.6588960    -1.2471640
  H       -1.3450850    -0.9967850    -1.7909970
  H       -0.4862050     0.2392810     2.1528250
  H       -1.4122900    -1.2543580     2.1330320
  H       -3.2323950     0.2935880     1.8197160
  H       -2.2008590     1.4410770     0.9595580
  H       -3.4037750     1.5784440    -1.2516650
  H       -3.9506210     0.0965540    -2.0538340
  H       -4.7289130     0.6299820    -0.5557020
  H        0.4812350     1.7322070     0.3831320
  H        1.8065840    -2.3037040    -0.2799060
  H        2.8010350     2.5405970     0.1152150
  H        4.1326410    -1.4960120    -0.5534930
  H        4.6413930     0.9324010    -0.3562540
units angstrom
no_reorient  #important for SAPT in psi4, default
symmetry c1  #important for SAPT in psi4, default
}

set PROPERTIES_ORIGIN ["COM"]
properties('MP2/aug-cc-pvtz', properties = ['dipole'])
--------------------------------------------------------------------------

    Molecular point group: c1
  Charge       = 0
  Multiplicity = 1
  Basis Set: AUG-CC-PVTZ
    Blend: AUG-CC-PVTZ
  Basis Set: (AUG-CC-PVTZ AUX)
    Blend: AUG-CC-PVTZ-JKFIT

    Orbital Energies [Eh]
    ---------------------

    Doubly Occupied:

       1A    -11.236370     2A    -11.233709     3A    -11.233072
       4A    -11.230031     5A    -11.228879     6A    -11.228334
       7A    -11.228151     8A    -11.221153     9A    -11.216685
      10A    -11.214882    11A    -11.214698    12A    -11.211573
      13A     -1.155359    14A     -1.124576    15A     -1.040217
      16A     -1.006402    17A     -0.988850    18A     -0.953859
      19A     -0.892481    20A     -0.827283    21A     -0.815714
      22A     -0.763578    23A     -0.757453    24A     -0.689677
      25A     -0.660230    26A     -0.636391    27A     -0.621271
      28A     -0.607257    29A     -0.586704    30A     -0.580303
      31A     -0.572165    32A     -0.556118    33A     -0.528080
      34A     -0.510389    35A     -0.509436    36A     -0.492417
      37A     -0.475009    38A     -0.463332    39A     -0.461005
      40A     -0.453526    41A     -0.450335    42A     -0.443632
      43A     -0.330149    44A     -0.320346

  @DF-RHF Final Energy:  -463.89391867674431

   => Energetics <=

    Nuclear Repulsion Energy =            675.6913949644194872
    One-Electron Energy =               -1967.2284645514937438
    Two-Electron Energy =                 827.6431509103299504
    Total Energy =                       -463.8939186767443061
  Basis Set: (AUG-CC-PVTZ AUX)
    Blend: AUG-CC-PVTZ-RI
    Molecular point group: c1

    Geometry (in Angstrom), charge = 0, multiplicity = 1:

       Center              X                  Y                   Z               Mass
    ------------   -----------------  -----------------  -----------------  -----------------
         C           -0.515392212073    -0.828669280267     0.214637789243    12.000000000000
         C           -2.827820212073    -0.228372280267    -0.271191210757    12.000000000000
         C           -1.445524212073    -0.334178280267    -0.916963210757    12.000000000000
         C           -1.218481212073    -0.371503280267     1.531480789243    12.000000000000
         C           -2.486714212073     0.376718719733     1.092624789243    12.000000000000
         C            0.903467787927    -0.342464280267     0.067102789243    12.000000000000
         C           -3.842437212073     0.565424719733    -1.081392210757    12.000000000000
         C            1.205735787927     1.024226719733     0.174088789243    12.000000000000
         C            1.949594787927    -1.234331280267    -0.198389210757    12.000000000000
         C            2.514093787927     1.482901719733     0.023834789243    12.000000000000
         C            3.280677087927    -0.773938180267    -0.353830110757    12.000000000000
         C            3.548145787927     0.580847719733    -0.241589210757    12.000000000000
         H           -0.496971212073    -1.925955280267     0.189861789243     1.007825032230
         H           -3.214257212073    -1.246040280267    -0.109649210757     1.007825032230
         H           -1.130133212073     0.664046719733    -1.249727210757     1.007825032230
         H           -1.417875212073    -0.991634280267    -1.793560210757     1.007825032230
         H           -0.558995212073     0.244431719733     2.150261789243     1.007825032230
         H           -1.485080212073    -1.249207280267     2.130468789243     1.007825032230
         H           -3.305185212073     0.298738719733     1.817152789243     1.007825032230
         H           -2.273649212073     1.446227719733     0.956994789243     1.007825032230
         H           -3.476565212073     1.583594719733    -1.254228210757     1.007825032230
         H           -4.023411212073     0.101704719733    -2.056397210757     1.007825032230
         H           -4.801703212073     0.635132719733    -0.558265210757     1.007825032230
         H            0.408444787927     1.737357719733     0.380568789243     1.007825032230
         H            1.733793787927    -2.298553280267    -0.282469210757     1.007825032230
         H            2.728244787927     2.545747719733     0.112651789243     1.007825032230
         H            4.059850787927    -1.490861280267    -0.556056210757     1.007825032230
         H            4.568602787927     0.937551719733    -0.358817210757     1.007825032230

  Basis Set: AUG-CC-PVTZ
    Blend: AUG-CC-PVTZ
  Basis Set: (AUG-CC-PVTZ AUX)
    Blend: AUG-CC-PVTZ-JKFIT
	 Reference Energy          =    -463.8939186767443061 [Eh]
	 Singles Energy            =      -0.0000000000000000 [Eh]
	 Same-Spin Energy          =      -0.5194521022866226 [Eh]
	 Opposite-Spin Energy      =      -1.7264848540862832 [Eh]
	 Correlation Energy        =      -2.2459369563729057 [Eh]
	 Total Energy              =    -466.1398556331172358 [Eh]

	 ================> DF-SCS-MP2 Energies <==================
	-----------------------------------------------------------
	 SCS Same-Spin Scale       =       0.3333333333333333 [-]
	 SCS Opposite-Spin Scale   =       1.2000000000000000 [-]
	 SCS Same-Spin Energy      =      -0.1731507007622075 [Eh]
	 SCS Opposite-Spin Energy  =      -2.0717818249035398 [Eh]
	 SCS Correlation Energy    =      -2.2449325256657473 [Eh]
	 SCS Total Energy          =    -466.1388512024100805 [Eh]
	-----------------------------------------------------------

  Dipole Moment: [D]
     X:    -0.5683      Y:    -0.2069      Z:     0.0368     Total:     0.6059

*** Psi4 exiting successfully. Buy a developer a beer!
