                               Psi4 1.4a3.dev225

  ==> Input File <==

--------------------------------------------------------------------------
#psi4
#
memory 32 gb

molecule  {
0 1
  C       -0.4426020    -0.8338200     0.2172010
  C       -2.7550300    -0.2335230    -0.2686280
  C       -1.3624117    -0.2885302    -0.8993996
  C       -1.1456910    -0.3766540     1.5340440
  C       -2.4139240     0.3715680     1.0951880
  C        0.9762580    -0.3476150     0.0696660
  C       -3.7696470     0.5602740    -1.0788290
  C        1.2785260     1.0190760     0.1766520
  C        2.0223850    -1.2394820    -0.1958260
  C        2.5868840     1.4777510     0.0263980
  C        3.3346800    -0.7855870    -0.3490730
  C        3.6209360     0.5756970    -0.2390260
  H       -0.4241810    -1.9311060     0.1924250
  H       -3.1414670    -1.2511910    -0.1070860
  H       -1.0573430     0.6588960    -1.2471640
  H       -1.3450850    -0.9967850    -1.7909970
  H       -0.4862050     0.2392810     2.1528250
  H       -1.4122900    -1.2543580     2.1330320
  H       -3.2323950     0.2935880     1.8197160
  H       -2.2008590     1.4410770     0.9595580
  H       -3.4037750     1.5784440    -1.2516650
  H       -3.9506210     0.0965540    -2.0538340
  H       -4.7289130     0.6299820    -0.5557020
  H        0.4812350     1.7322070     0.3831320
  H        1.8065840    -2.3037040    -0.2799060
  H        2.8010350     2.5405970     0.1152150
  H        4.1326410    -1.4960120    -0.5534930
  H        4.6413930     0.9324010    -0.3562540
units angstrom
no_reorient  #important for SAPT in psi4, default
symmetry c1  #important for SAPT in psi4, default
}

set PROPERTIES_ORIGIN ["COM"]
properties('MP2/aug-cc-pvtz', properties = ['dipole'])
--------------------------------------------------------------------------

    Molecular point group: c1
  Charge       = 0
  Multiplicity = 1
  Basis Set: AUG-CC-PVTZ
    Blend: AUG-CC-PVTZ
  Basis Set: (AUG-CC-PVTZ AUX)
    Blend: AUG-CC-PVTZ-JKFIT

    Orbital Energies [Eh]
    ---------------------

    Doubly Occupied:

       1A    -11.236508     2A    -11.233761     3A    -11.232952
       4A    -11.228910     5A    -11.228652     6A    -11.228495
       7A    -11.228072     8A    -11.221267     9A    -11.216313
      10A    -11.214786    11A    -11.214561    12A    -11.211603
      13A     -1.156498    14A     -1.125532    15A     -1.039798
      16A     -1.008540    17A     -0.988518    18A     -0.952867
      19A     -0.893100    20A     -0.826790    21A     -0.815953
      22A     -0.766193    23A     -0.757160    24A     -0.689996
      25A     -0.656724    26A     -0.635341    27A     -0.623016
      28A     -0.606600    29A     -0.587551    30A     -0.581625
      31A     -0.575072    32A     -0.554831    33A     -0.530658
      34A     -0.511472    35A     -0.509513    36A     -0.490639
      37A     -0.468638    38A     -0.467044    39A     -0.460388
      40A     -0.456337    41A     -0.452274    42A     -0.440383
      43A     -0.332514    44A     -0.318543

  @DF-RHF Final Energy:  -463.89102755333136

   => Energetics <=

    Nuclear Repulsion Energy =            676.2778262351080230
    One-Electron Energy =               -1968.3857287551793434
    Two-Electron Energy =                 828.2168749667399652
    Total Energy =                       -463.8910275533313552
  Basis Set: (AUG-CC-PVTZ AUX)
    Blend: AUG-CC-PVTZ-RI
    Molecular point group: c1

    Geometry (in Angstrom), charge = 0, multiplicity = 1:

       Center              X                  Y                   Z               Mass
    ------------   -----------------  -----------------  -----------------  -----------------
         C           -0.514757833476    -0.831989234891     0.213349225048    12.000000000000
         C           -2.827185833476    -0.231692234891    -0.272479774952    12.000000000000
         C           -1.434567533476    -0.286699434891    -0.903251374952    12.000000000000
         C           -1.217846833476    -0.374823234891     1.530192225048    12.000000000000
         C           -2.486079833476     0.373398765109     1.091336225048    12.000000000000
         C            0.904102166524    -0.345784234891     0.065814225048    12.000000000000
         C           -3.841802833476     0.562104765109    -1.082680774952    12.000000000000
         C            1.206370166524     1.020906765109     0.172800225048    12.000000000000
         C            1.950229166524    -1.237651234891    -0.199677774952    12.000000000000
         C            2.514728166524     1.479581765109     0.022546225048    12.000000000000
         C            3.262524166524    -0.783756234891    -0.352924774952    12.000000000000
         C            3.548780166524     0.577527765109    -0.242877774952    12.000000000000
         H           -0.496336833476    -1.929275234891     0.188573225048     1.007825032230
         H           -3.213622833476    -1.249360234891    -0.110937774952     1.007825032230
         H           -1.129498833476     0.660726765109    -1.251015774952     1.007825032230
         H           -1.417240833476    -0.994954234891    -1.794848774952     1.007825032230
         H           -0.558360833476     0.241111765109     2.148973225048     1.007825032230
         H           -1.484445833476    -1.252527234891     2.129180225048     1.007825032230
         H           -3.304550833476     0.295418765109     1.815864225048     1.007825032230
         H           -2.273014833476     1.442907765109     0.955706225048     1.007825032230
         H           -3.475930833476     1.580274765109    -1.255516774952     1.007825032230
         H           -4.022776833476     0.098384765109    -2.057685774952     1.007825032230
         H           -4.801068833476     0.631812765109    -0.559553774952     1.007825032230
         H            0.409079166524     1.734037765109     0.379280225048     1.007825032230
         H            1.734428166524    -2.301873234891    -0.283757774952     1.007825032230
         H            2.728879166524     2.542427765109     0.111363225048     1.007825032230
         H            4.060485166524    -1.494181234891    -0.557344774952     1.007825032230
         H            4.569237166524     0.934231765109    -0.360105774952     1.007825032230

  Basis Set: AUG-CC-PVTZ
    Blend: AUG-CC-PVTZ
  Basis Set: (AUG-CC-PVTZ AUX)
    Blend: AUG-CC-PVTZ-JKFIT
	 Reference Energy          =    -463.8910275533313552 [Eh]
	 Singles Energy            =      -0.0000000000000000 [Eh]
	 Same-Spin Energy          =      -0.5195988285355977 [Eh]
	 Opposite-Spin Energy      =      -1.7266222305626135 [Eh]
	 Correlation Energy        =      -2.2462210590982110 [Eh]
	 Total Energy              =    -466.1372486124295733 [Eh]

	 ================> DF-SCS-MP2 Energies <==================
	-----------------------------------------------------------
	 SCS Same-Spin Scale       =       0.3333333333333333 [-]
	 SCS Opposite-Spin Scale   =       1.2000000000000000 [-]
	 SCS Same-Spin Energy      =      -0.1731996095118659 [Eh]
	 SCS Opposite-Spin Energy  =      -2.0719466766751360 [Eh]
	 SCS Correlation Energy    =      -2.2451462861870017 [Eh]
	 SCS Total Energy          =    -466.1361738395183352 [Eh]
	-----------------------------------------------------------

  Dipole Moment: [D]
     X:    -0.5693      Y:    -0.1766      Z:     0.0480     Total:     0.5980

*** Psi4 exiting successfully. Buy a developer a beer!
