                               Psi4 1.4a3.dev225

  ==> Input File <==

--------------------------------------------------------------------------
#psi4
#
memory 32 gb

molecule  {
0 1
  C       -0.4426020    -0.8338200     0.2172010
  C       -2.7550300    -0.2335230    -0.2686280
  C       -1.3384192    -0.1889869    -0.8653375
  C       -1.1456910    -0.3766540     1.5340440
  C       -2.4139240     0.3715680     1.0951880
  C        0.9762580    -0.3476150     0.0696660
  C       -3.7696470     0.5602740    -1.0788290
  C        1.2785260     1.0190760     0.1766520
  C        2.0223850    -1.2394820    -0.1958260
  C        2.5868840     1.4777510     0.0263980
  C        3.3346800    -0.7855870    -0.3490730
  C        3.6209360     0.5756970    -0.2390260
  H       -0.4241810    -1.9311060     0.1924250
  H       -3.1414670    -1.2511910    -0.1070860
  H       -1.0573430     0.6588960    -1.2471640
  H       -1.3450850    -0.9967850    -1.7909970
  H       -0.4862050     0.2392810     2.1528250
  H       -1.4122900    -1.2543580     2.1330320
  H       -3.2323950     0.2935880     1.8197160
  H       -2.2008590     1.4410770     0.9595580
  H       -3.4037750     1.5784440    -1.2516650
  H       -3.9506210     0.0965540    -2.0538340
  H       -4.7289130     0.6299820    -0.5557020
  H        0.4812350     1.7322070     0.3831320
  H        1.8065840    -2.3037040    -0.2799060
  H        2.8010350     2.5405970     0.1152150
  H        4.1326410    -1.4960120    -0.5534930
  H        4.6413930     0.9324010    -0.3562540
units angstrom
no_reorient  #important for SAPT in psi4, default
symmetry c1  #important for SAPT in psi4, default
}

set PROPERTIES_ORIGIN ["COM"]
properties('MP2/aug-cc-pvtz', properties = ['dipole'])
--------------------------------------------------------------------------

    Molecular point group: c1
  Charge       = 0
  Multiplicity = 1
  Basis Set: AUG-CC-PVTZ
    Blend: AUG-CC-PVTZ
  Basis Set: (AUG-CC-PVTZ AUX)
    Blend: AUG-CC-PVTZ-JKFIT

    Orbital Energies [Eh]
    ---------------------

    Doubly Occupied:

       1A    -11.236714     2A    -11.234151     3A    -11.233195
       4A    -11.230608     5A    -11.228920     6A    -11.228729
       7A    -11.228046     8A    -11.223097     9A    -11.217304
      10A    -11.216090    11A    -11.214462    12A    -11.211839
      13A     -1.157835    14A     -1.127122    15A     -1.040660
      16A     -1.008804    17A     -0.988956    18A     -0.952588
      19A     -0.894833    20A     -0.828235    21A     -0.815776
      22A     -0.775743    23A     -0.756703    24A     -0.690382
      25A     -0.651755    26A     -0.637035    27A     -0.625522
      28A     -0.608231    29A     -0.591137    30A     -0.584335
      31A     -0.576674    32A     -0.552318    33A     -0.535935
      34A     -0.512809    35A     -0.508717    36A     -0.493320
      37A     -0.478257    38A     -0.464180    39A     -0.461002
      40A     -0.456574    41A     -0.444962    42A     -0.425962
      43A     -0.332863    44A     -0.317997

  @DF-RHF Final Energy:  -463.86395758130521

   => Energetics <=

    Nuclear Repulsion Energy =            676.9323881427166043
    One-Electron Energy =               -1969.5919351582499530
    Two-Electron Energy =                 828.7955894342281908
    Total Energy =                       -463.8639575813052716
  Basis Set: (AUG-CC-PVTZ AUX)
    Blend: AUG-CC-PVTZ-RI
    Molecular point group: c1

    Geometry (in Angstrom), charge = 0, multiplicity = 1:

       Center              X                  Y                   Z               Mass
    ------------   -----------------  -----------------  -----------------  -----------------
         C           -0.516555864012    -0.839449144988     0.210796565013    12.000000000000
         C           -2.828983864012    -0.239152144988    -0.275032434987    12.000000000000
         C           -1.412373064012    -0.194616044988    -0.871741934987    12.000000000000
         C           -1.219644864012    -0.382283144988     1.527639565013    12.000000000000
         C           -2.487877864012     0.365938855012     1.088783565013    12.000000000000
         C            0.902304135988    -0.353244144988     0.063261565013    12.000000000000
         C           -3.843600864012     0.554644855012    -1.085233434987    12.000000000000
         C            1.204572135988     1.013446855012     0.170247565013    12.000000000000
         C            1.948431135988    -1.245111144988    -0.202230434987    12.000000000000
         C            2.512930135988     1.472121855012     0.019993565013    12.000000000000
         C            3.260726135988    -0.791216144988    -0.355477434987    12.000000000000
         C            3.546982135988     0.570067855012    -0.245430434987    12.000000000000
         H           -0.498134864012    -1.936735144988     0.186020565013     1.007825032230
         H           -3.215420864012    -1.256820144988    -0.113490434987     1.007825032230
         H           -1.131296864012     0.653266855012    -1.253568434987     1.007825032230
         H           -1.419038864012    -1.002414144988    -1.797401434987     1.007825032230
         H           -0.560158864012     0.233651855012     2.146420565013     1.007825032230
         H           -1.486243864012    -1.259987144988     2.126627565013     1.007825032230
         H           -3.306348864012     0.287958855012     1.813311565013     1.007825032230
         H           -2.274812864012     1.435447855012     0.953153565013     1.007825032230
         H           -3.477728864012     1.572814855012    -1.258069434987     1.007825032230
         H           -4.024574864012     0.090924855012    -2.060238434987     1.007825032230
         H           -4.802866864012     0.624352855012    -0.562106434987     1.007825032230
         H            0.407281135988     1.726577855012     0.376727565013     1.007825032230
         H            1.732630135988    -2.309333144988    -0.286310434987     1.007825032230
         H            2.727081135988     2.534967855012     0.108810565013     1.007825032230
         H            4.058687135988    -1.501641144988    -0.559897434987     1.007825032230
         H            4.567439135988     0.926771855012    -0.362658434987     1.007825032230

  Basis Set: AUG-CC-PVTZ
    Blend: AUG-CC-PVTZ
  Basis Set: (AUG-CC-PVTZ AUX)
    Blend: AUG-CC-PVTZ-JKFIT
	 Reference Energy          =    -463.8639575813052147 [Eh]
	 Singles Energy            =      -0.0000000000000000 [Eh]
	 Same-Spin Energy          =      -0.5201326151262526 [Eh]
	 Opposite-Spin Energy      =      -1.7280468277618899 [Eh]
	 Correlation Energy        =      -2.2481794428881425 [Eh]
	 Total Energy              =    -466.1121370241933732 [Eh]

	 ================> DF-SCS-MP2 Energies <==================
	-----------------------------------------------------------
	 SCS Same-Spin Scale       =       0.3333333333333333 [-]
	 SCS Opposite-Spin Scale   =       1.2000000000000000 [-]
	 SCS Same-Spin Energy      =      -0.1733775383754175 [Eh]
	 SCS Opposite-Spin Energy  =      -2.0736561933142679 [Eh]
	 SCS Correlation Energy    =      -2.2470337316896853 [Eh]
	 SCS Total Energy          =    -466.1109913129948836 [Eh]
	-----------------------------------------------------------

  Dipole Moment: [D]
     X:    -0.5782      Y:    -0.1336      Z:     0.1031     Total:     0.6023

*** Psi4 exiting successfully. Buy a developer a beer!
