                               Psi4 1.4a3.dev225

  ==> Input File <==

--------------------------------------------------------------------------
#psi4
#
memory 32 gb

molecule  {
0 1
  C       -0.4426020    -0.8338200     0.2172010
  C       -2.7550300    -0.2335230    -0.2686280
  C       -1.3727340    -0.3393290    -0.9144000
  C       -1.1456910    -0.3766540     1.5340440
  C       -2.4139240     0.3715680     1.0951880
  C        0.9762580    -0.3476150     0.0696660
  C       -3.7696470     0.5602740    -1.0788290
  C        1.2785260     1.0190760     0.1766520
  C        2.0223850    -1.2394820    -0.1958260
  C        2.5868840     1.4777510     0.0263980
  C        3.3346800    -0.7855870    -0.3490730
  C        3.6209360     0.5756970    -0.2390260
  H       -0.4241810    -1.9311060     0.1924250
  H       -3.1414670    -1.2511910    -0.1070860
  H       -1.0573430     0.6588960    -1.2471640
  H       -1.3450850    -0.9967850    -1.7909970
  H       -0.4862050     0.2392810     2.1528250
  H       -1.4122900    -1.2543580     2.1330320
  H       -3.2323950     0.2935880     1.8197160
  H       -2.2008590     1.4410770     0.9595580
  H       -3.4037750     1.5784440    -1.2516650
  H       -3.9506210     0.0965540    -2.0538340
  H       -4.7289130     0.6299820    -0.5557020
  H        0.4812350     1.7322070     0.3831320
  H        1.8065840    -2.3037040    -0.2799060
  H        2.8010350     2.5405970     0.1152150
  H        4.1326410    -1.4960120    -0.5534930
  H        4.6226232     0.9258400    -0.3540978
units angstrom
no_reorient  #important for SAPT in psi4, default
symmetry c1  #important for SAPT in psi4, default
}

set PROPERTIES_ORIGIN ["COM"]
properties('MP2/aug-cc-pvtz', properties = ['dipole'])
--------------------------------------------------------------------------

    Molecular point group: c1
  Charge       = 0
  Multiplicity = 1
  Basis Set: AUG-CC-PVTZ
    Blend: AUG-CC-PVTZ
  Basis Set: (AUG-CC-PVTZ AUX)
    Blend: AUG-CC-PVTZ-JKFIT

    Orbital Energies [Eh]
    ---------------------

    Doubly Occupied:

       1A    -11.236414     2A    -11.233364     3A    -11.232628
       4A    -11.228330     5A    -11.228268     6A    -11.227986
       7A    -11.226572     8A    -11.221131     9A    -11.216647
      10A    -11.214847    11A    -11.214690    12A    -11.211557
      13A     -1.155949    14A     -1.124814    15A     -1.039731
      16A     -1.008291    17A     -0.988619    18A     -0.953967
      19A     -0.892802    20A     -0.826473    21A     -0.816806
      22A     -0.763549    23A     -0.757272    24A     -0.691577
      25A     -0.660485    26A     -0.635980    27A     -0.621833
      28A     -0.606632    29A     -0.586096    30A     -0.579879
      31A     -0.573636    32A     -0.556464    33A     -0.529148
      34A     -0.511581    35A     -0.509939    36A     -0.489923
      37A     -0.475292    38A     -0.463332    39A     -0.461271
      40A     -0.453724    41A     -0.450234    42A     -0.443845
      43A     -0.332214    44A     -0.318703

  @DF-RHF Final Energy:  -463.89453873331894

   => Energetics <=

    Nuclear Repulsion Energy =            676.0449846814537977
    One-Electron Energy =               -1967.9340558451503966
    Two-Electron Energy =                 827.9945324303776033
    Total Energy =                       -463.8945387333189956
  Basis Set: (AUG-CC-PVTZ AUX)
    Blend: AUG-CC-PVTZ-RI
    Molecular point group: c1

    Geometry (in Angstrom), charge = 0, multiplicity = 1:

       Center              X                  Y                   Z               Mass
    ------------   -----------------  -----------------  -----------------  -----------------
         C           -0.513866129523    -0.828141009015     0.214459804314    12.000000000000
         C           -2.826294129523    -0.227844009015    -0.271369195686    12.000000000000
         C           -1.443998129523    -0.333650009015    -0.917141195686    12.000000000000
         C           -1.216955129523    -0.370975009015     1.531302804314    12.000000000000
         C           -2.485188129523     0.377246990985     1.092446804314    12.000000000000
         C            0.904993870477    -0.341936009015     0.066924804314    12.000000000000
         C           -3.840911129523     0.565952990985    -1.081570195686    12.000000000000
         C            1.207261870477     1.024754990985     0.173910804314    12.000000000000
         C            1.951120870477    -1.233803009015    -0.198567195686    12.000000000000
         C            2.515619870477     1.483429990985     0.023656804314    12.000000000000
         C            3.263415870477    -0.779908009015    -0.351814195686    12.000000000000
         C            3.549671870477     0.581375990985    -0.241767195686    12.000000000000
         H           -0.495445129523    -1.925427009015     0.189683804314     1.007825032230
         H           -3.212731129523    -1.245512009015    -0.109827195686     1.007825032230
         H           -1.128607129523     0.664574990985    -1.249905195686     1.007825032230
         H           -1.416349129523    -0.991106009015    -1.793738195686     1.007825032230
         H           -0.557469129523     0.244959990985     2.150083804314     1.007825032230
         H           -1.483554129523    -1.248679009015     2.130290804314     1.007825032230
         H           -3.303659129523     0.299266990985     1.816974804314     1.007825032230
         H           -2.272123129523     1.446755990985     0.956816804314     1.007825032230
         H           -3.475039129523     1.584122990985    -1.254406195686     1.007825032230
         H           -4.021885129523     0.102232990985    -2.056575195686     1.007825032230
         H           -4.800177129523     0.635660990985    -0.558443195686     1.007825032230
         H            0.409970870477     1.737885990985     0.380390804314     1.007825032230
         H            1.735319870477    -2.298025009015    -0.282647195686     1.007825032230
         H            2.729770870477     2.546275990985     0.112473804314     1.007825032230
         H            4.061376870477    -1.490333009015    -0.556234195686     1.007825032230
         H            4.551359070477     0.931518990985    -0.356838995686     1.007825032230

  Basis Set: AUG-CC-PVTZ
    Blend: AUG-CC-PVTZ
  Basis Set: (AUG-CC-PVTZ AUX)
    Blend: AUG-CC-PVTZ-JKFIT
	 Reference Energy          =    -463.8945387333189387 [Eh]
	 Singles Energy            =      -0.0000000000000000 [Eh]
	 Same-Spin Energy          =      -0.5194764421918308 [Eh]
	 Opposite-Spin Energy      =      -1.7262956664050617 [Eh]
	 Correlation Energy        =      -2.2457721085968925 [Eh]
	 Total Energy              =    -466.1403108419158343 [Eh]

	 ================> DF-SCS-MP2 Energies <==================
	-----------------------------------------------------------
	 SCS Same-Spin Scale       =       0.3333333333333333 [-]
	 SCS Opposite-Spin Scale   =       1.2000000000000000 [-]
	 SCS Same-Spin Energy      =      -0.1731588140639436 [Eh]
	 SCS Opposite-Spin Energy  =      -2.0715547996860741 [Eh]
	 SCS Correlation Energy    =      -2.2447136137500179 [Eh]
	 SCS Total Energy          =    -466.1392523470689753 [Eh]
	-----------------------------------------------------------

  Dipole Moment: [D]
     X:    -0.5606      Y:    -0.1999      Z:     0.0364     Total:     0.5963

*** Psi4 exiting successfully. Buy a developer a beer!
