                               Psi4 1.4a3.dev225

  ==> Input File <==

--------------------------------------------------------------------------
#psi4
#
memory 32 gb

molecule  {
0 1
  C       -0.4426020    -0.8338200     0.2172010
  C       -2.7550300    -0.2335230    -0.2686280
  C       -1.3727340    -0.3393290    -0.9144000
  C       -1.1456910    -0.3766540     1.5340440
  C       -2.4139240     0.3715680     1.0951880
  C        0.9762580    -0.3476150     0.0696660
  C       -3.7696470     0.5602740    -1.0788290
  C        1.2785260     1.0190760     0.1766520
  C        2.0223850    -1.2394820    -0.1958260
  C        2.5868840     1.4777510     0.0263980
  C        3.3346800    -0.7855870    -0.3490730
  C        3.6209360     0.5756970    -0.2390260
  H       -0.4241810    -1.9311060     0.1924250
  H       -3.1414670    -1.2511910    -0.1070860
  H       -1.0573430     0.6588960    -1.2471640
  H       -1.3450850    -0.9967850    -1.7909970
  H       -0.4862050     0.2392810     2.1528250
  H       -1.4122900    -1.2543580     2.1330320
  H       -3.2323950     0.2935880     1.8197160
  H       -2.2008590     1.4410770     0.9595580
  H       -3.4050839     1.5755343    -1.2705190
  H       -3.9506210     0.0965540    -2.0538340
  H       -4.7289130     0.6299820    -0.5557020
  H        0.4812350     1.7322070     0.3831320
  H        1.8065840    -2.3037040    -0.2799060
  H        2.8010350     2.5405970     0.1152150
  H        4.1326410    -1.4960120    -0.5534930
  H        4.6413930     0.9324010    -0.3562540
units angstrom
no_reorient  #important for SAPT in psi4, default
symmetry c1  #important for SAPT in psi4, default
}

set PROPERTIES_ORIGIN ["COM"]
properties('MP2/aug-cc-pvtz', properties = ['dipole'])
--------------------------------------------------------------------------

    Molecular point group: c1
  Charge       = 0
  Multiplicity = 1
  Basis Set: AUG-CC-PVTZ
    Blend: AUG-CC-PVTZ
  Basis Set: (AUG-CC-PVTZ AUX)
    Blend: AUG-CC-PVTZ-JKFIT

    Orbital Energies [Eh]
    ---------------------

    Doubly Occupied:

       1A    -11.236493     2A    -11.233583     3A    -11.232844
       4A    -11.228925     5A    -11.228425     6A    -11.228362
       7A    -11.228111     8A    -11.221283     9A    -11.216677
      10A    -11.214854    11A    -11.214751    12A    -11.211550
      13A     -1.155992    14A     -1.124793    15A     -1.039443
      16A     -1.008435    17A     -0.988430    18A     -0.953757
      19A     -0.892746    20A     -0.826378    21A     -0.816201
      22A     -0.763685    23A     -0.757200    24A     -0.689891
      25A     -0.660359    26A     -0.635229    27A     -0.621778
      28A     -0.606605    29A     -0.585755    30A     -0.579901
      31A     -0.573650    32A     -0.556274    33A     -0.528221
      34A     -0.511007    35A     -0.510020    36A     -0.490046
      37A     -0.475269    38A     -0.463623    39A     -0.461317
      40A     -0.453655    41A     -0.450192    42A     -0.443849
      43A     -0.332343    44A     -0.318795

  @DF-RHF Final Energy:  -463.89440090131717

   => Energetics <=

    Nuclear Repulsion Energy =            675.9203629200389969
    One-Electron Energy =               -1967.6881269406167121
    Two-Electron Energy =                 827.8733631192606026
    Total Energy =                       -463.8944009013171126
  Basis Set: (AUG-CC-PVTZ AUX)
    Blend: AUG-CC-PVTZ-RI
    Molecular point group: c1

    Geometry (in Angstrom), charge = 0, multiplicity = 1:

       Center              X                  Y                   Z               Mass
    ------------   -----------------  -----------------  -----------------  -----------------
         C           -0.513976028103    -0.828163990230     0.214592042122    12.000000000000
         C           -2.826404028103    -0.227866990230    -0.271236957878    12.000000000000
         C           -1.444108028103    -0.333672990230    -0.917008957878    12.000000000000
         C           -1.217065028103    -0.370997990230     1.531435042122    12.000000000000
         C           -2.485298028103     0.377224009770     1.092579042122    12.000000000000
         C            0.904883971897    -0.341958990230     0.067057042122    12.000000000000
         C           -3.841021028103     0.565930009770    -1.081437957878    12.000000000000
         C            1.207151971897     1.024732009770     0.174043042122    12.000000000000
         C            1.951010971897    -1.233825990230    -0.198434957878    12.000000000000
         C            2.515509971897     1.483407009770     0.023789042122    12.000000000000
         C            3.263305971897    -0.779930990230    -0.351681957878    12.000000000000
         C            3.549561971897     0.581353009770    -0.241634957878    12.000000000000
         H           -0.495555028103    -1.925449990230     0.189816042122     1.007825032230
         H           -3.212841028103    -1.245534990230    -0.109694957878     1.007825032230
         H           -1.128717028103     0.664552009770    -1.249772957878     1.007825032230
         H           -1.416459028103    -0.991128990230    -1.793605957878     1.007825032230
         H           -0.557579028103     0.244937009770     2.150216042122     1.007825032230
         H           -1.483664028103    -1.248701990230     2.130423042122     1.007825032230
         H           -3.303769028103     0.299244009770     1.817107042122     1.007825032230
         H           -2.272233028103     1.446733009770     0.956949042122     1.007825032230
         H           -3.476457928103     1.581190309770    -1.273127957878     1.007825032230
         H           -4.021995028103     0.102210009770    -2.056442957878     1.007825032230
         H           -4.800287028103     0.635638009770    -0.558310957878     1.007825032230
         H            0.409860971897     1.737863009770     0.380523042122     1.007825032230
         H            1.735209971897    -2.298047990230    -0.282514957878     1.007825032230
         H            2.729660971897     2.546253009770     0.112606042122     1.007825032230
         H            4.061266971897    -1.490355990230    -0.556101957878     1.007825032230
         H            4.570018971897     0.938057009770    -0.358862957878     1.007825032230

  Basis Set: AUG-CC-PVTZ
    Blend: AUG-CC-PVTZ
  Basis Set: (AUG-CC-PVTZ AUX)
    Blend: AUG-CC-PVTZ-JKFIT
	 Reference Energy          =    -463.8944009013171694 [Eh]
	 Singles Energy            =      -0.0000000000000000 [Eh]
	 Same-Spin Energy          =      -0.5194976553497443 [Eh]
	 Opposite-Spin Energy      =      -1.7264174365342431 [Eh]
	 Correlation Energy        =      -2.2459150918839876 [Eh]
	 Total Energy              =    -466.1403159932011704 [Eh]

	 ================> DF-SCS-MP2 Energies <==================
	-----------------------------------------------------------
	 SCS Same-Spin Scale       =       0.3333333333333333 [-]
	 SCS Opposite-Spin Scale   =       1.2000000000000000 [-]
	 SCS Same-Spin Energy      =      -0.1731658851165814 [Eh]
	 SCS Opposite-Spin Energy  =      -2.0717009238410915 [Eh]
	 SCS Correlation Energy    =      -2.2448668089576729 [Eh]
	 SCS Total Energy          =    -466.1392677102748507 [Eh]
	-----------------------------------------------------------

  Dipole Moment: [D]
     X:    -0.5677      Y:    -0.2013      Z:     0.0326     Total:     0.6033

*** Psi4 exiting successfully. Buy a developer a beer!
