                               Psi4 1.4a3.dev225

  ==> Input File <==

--------------------------------------------------------------------------
#psi4
#
memory 32 gb

molecule  {
0 1
  C       -0.4828317    -0.6833113     0.2419763
  C       -2.7550300    -0.2335230    -0.2686280
  C       -1.3727340    -0.3393290    -0.9144000
  C       -1.1456910    -0.3766540     1.5340440
  C       -2.4139240     0.3715680     1.0951880
  C        0.9762580    -0.3476150     0.0696660
  C       -3.7696470     0.5602740    -1.0788290
  C        1.2785260     1.0190760     0.1766520
  C        2.0223850    -1.2394820    -0.1958260
  C        2.5868840     1.4777510     0.0263980
  C        3.3346800    -0.7855870    -0.3490730
  C        3.6209360     0.5756970    -0.2390260
  H       -0.4241810    -1.9311060     0.1924250
  H       -3.1414670    -1.2511910    -0.1070860
  H       -1.0573430     0.6588960    -1.2471640
  H       -1.3450850    -0.9967850    -1.7909970
  H       -0.4862050     0.2392810     2.1528250
  H       -1.4122900    -1.2543580     2.1330320
  H       -3.2323950     0.2935880     1.8197160
  H       -2.2008590     1.4410770     0.9595580
  H       -3.4037750     1.5784440    -1.2516650
  H       -3.9506210     0.0965540    -2.0538340
  H       -4.7289130     0.6299820    -0.5557020
  H        0.4812350     1.7322070     0.3831320
  H        1.8065840    -2.3037040    -0.2799060
  H        2.8010350     2.5405970     0.1152150
  H        4.1326410    -1.4960120    -0.5534930
  H        4.6413930     0.9324010    -0.3562540
units angstrom
no_reorient  #important for SAPT in psi4, default
symmetry c1  #important for SAPT in psi4, default
}

set PROPERTIES_ORIGIN ["COM"]
properties('MP2/aug-cc-pvtz', properties = ['dipole'])
--------------------------------------------------------------------------

    Molecular point group: c1
  Charge       = 0
  Multiplicity = 1
  Basis Set: AUG-CC-PVTZ
    Blend: AUG-CC-PVTZ
  Basis Set: (AUG-CC-PVTZ AUX)
    Blend: AUG-CC-PVTZ-JKFIT

    Orbital Energies [Eh]
    ---------------------

    Doubly Occupied:

       1A    -11.237574     2A    -11.236181     3A    -11.234210
       4A    -11.233248     5A    -11.231199     6A    -11.230252
       7A    -11.227691     8A    -11.221651     9A    -11.215902
      10A    -11.215210    11A    -11.213970    12A    -11.211831
      13A     -1.162044    14A     -1.132095    15A     -1.040597
      16A     -1.009081    17A     -0.994581    18A     -0.957729
      19A     -0.894972    20A     -0.823944    21A     -0.820236
      22A     -0.766836    23A     -0.749038    24A     -0.689959
      25A     -0.665345    26A     -0.639784    27A     -0.620950
      28A     -0.608684    29A     -0.587184    30A     -0.581125
      31A     -0.568349    32A     -0.556034    33A     -0.529201
      34A     -0.517470    35A     -0.511041    36A     -0.491171
      37A     -0.486709    38A     -0.472096    39A     -0.465884
      40A     -0.454978    41A     -0.443884    42A     -0.407744
      43A     -0.332908    44A     -0.322483

  @DF-RHF Final Energy:  -463.86781287422650

   => Energetics <=

    Nuclear Repulsion Energy =            677.6034562294660191
    One-Electron Energy =               -1970.9164257736561012
    Two-Electron Energy =                 829.4451566699635805
    Total Energy =                       -463.8678128742265017
  Basis Set: (AUG-CC-PVTZ AUX)
    Blend: AUG-CC-PVTZ-RI
    Molecular point group: c1

    Geometry (in Angstrom), charge = 0, multiplicity = 1:

       Center              X                  Y                   Z               Mass
    ------------   -----------------  -----------------  -----------------  -----------------
         C           -0.551199097939    -0.688952930218     0.237391980767    12.000000000000
         C           -2.823397397939    -0.239164630218    -0.273212319233    12.000000000000
         C           -1.441101397939    -0.344970630218    -0.918984319233    12.000000000000
         C           -1.214058397939    -0.382295630218     1.529459680767    12.000000000000
         C           -2.482291397939     0.365926369782     1.090603680767    12.000000000000
         C            0.907890602061    -0.353256630218     0.065081680767    12.000000000000
         C           -3.838014397939     0.554632369782    -1.083413319233    12.000000000000
         C            1.210158602061     1.013434369782     0.172067680767    12.000000000000
         C            1.954017602061    -1.245123630218    -0.200410319233    12.000000000000
         C            2.518516602061     1.472109369782     0.021813680767    12.000000000000
         C            3.266312602061    -0.791228630218    -0.353657319233    12.000000000000
         C            3.552568602061     0.570055369782    -0.243610319233    12.000000000000
         H           -0.492548397939    -1.936747630218     0.187840680767     1.007825032230
         H           -3.209834397939    -1.256832630218    -0.111670319233     1.007825032230
         H           -1.125710397939     0.653254369782    -1.251748319233     1.007825032230
         H           -1.413452397939    -1.002426630218    -1.795581319233     1.007825032230
         H           -0.554572397939     0.233639369782     2.148240680767     1.007825032230
         H           -1.480657397939    -1.259999630218     2.128447680767     1.007825032230
         H           -3.300762397939     0.287946369782     1.815131680767     1.007825032230
         H           -2.269226397939     1.435435369782     0.954973680767     1.007825032230
         H           -3.472142397939     1.572802369782    -1.256249319233     1.007825032230
         H           -4.018988397939     0.090912369782    -2.058418319233     1.007825032230
         H           -4.797280397939     0.624340369782    -0.560286319233     1.007825032230
         H            0.412867602061     1.726565369782     0.378547680767     1.007825032230
         H            1.738216602061    -2.309345630218    -0.284490319233     1.007825032230
         H            2.732667602061     2.534955369782     0.110630680767     1.007825032230
         H            4.064273602061    -1.501653630218    -0.558077319233     1.007825032230
         H            4.573025602061     0.926759369782    -0.360838319233     1.007825032230

  Basis Set: AUG-CC-PVTZ
    Blend: AUG-CC-PVTZ
  Basis Set: (AUG-CC-PVTZ AUX)
    Blend: AUG-CC-PVTZ-JKFIT
	 Reference Energy          =    -463.8678128742265017 [Eh]
	 Singles Energy            =      -0.0000000000000000 [Eh]
	 Same-Spin Energy          =      -0.5211156054620842 [Eh]
	 Opposite-Spin Energy      =      -1.7292824294305211 [Eh]
	 Correlation Energy        =      -2.2503980348926054 [Eh]
	 Total Energy              =    -466.1182109091191137 [Eh]

	 ================> DF-SCS-MP2 Energies <==================
	-----------------------------------------------------------
	 SCS Same-Spin Scale       =       0.3333333333333333 [-]
	 SCS Opposite-Spin Scale   =       1.2000000000000000 [-]
	 SCS Same-Spin Energy      =      -0.1737052018206947 [Eh]
	 SCS Opposite-Spin Energy  =      -2.0751389153166251 [Eh]
	 SCS Correlation Energy    =      -2.2488441171373199 [Eh]
	 SCS Total Energy          =    -466.1166569913638114 [Eh]
	-----------------------------------------------------------

  Dipole Moment: [D]
     X:    -0.5154      Y:    -0.0627      Z:     0.0507     Total:     0.5217

*** Psi4 exiting successfully. Buy a developer a beer!
