                               Psi4 1.4a3.dev225

  ==> Input File <==

--------------------------------------------------------------------------
#psi4
#
memory 32 gb

molecule  {
0 1
  C       -0.4426020    -0.8338200     0.2172010
  C       -2.7550300    -0.2335230    -0.2686280
  C       -1.3727340    -0.3393290    -0.9144000
  C       -1.1456910    -0.3766540     1.5340440
  C       -2.4139240     0.3715680     1.0951880
  C        0.9762580    -0.3476150     0.0696660
  C       -3.7696470     0.5602740    -1.0788290
  C        1.2785260     1.0190760     0.1766520
  C        2.0223850    -1.2394820    -0.1958260
  C        2.5868840     1.4777510     0.0263980
  C        3.3346800    -0.7855870    -0.3490730
  C        3.6209360     0.5756970    -0.2390260
  H       -0.4241810    -1.9311060     0.1924250
  H       -3.1414670    -1.2511910    -0.1070860
  H       -1.0551819     0.6520970    -1.2649590
  H       -1.3450850    -0.9967850    -1.7909970
  H       -0.4862050     0.2392810     2.1528250
  H       -1.4122900    -1.2543580     2.1330320
  H       -3.2323950     0.2935880     1.8197160
  H       -2.2008590     1.4410770     0.9595580
  H       -3.4037750     1.5784440    -1.2516650
  H       -3.9506210     0.0965540    -2.0538340
  H       -4.7289130     0.6299820    -0.5557020
  H        0.4812350     1.7322070     0.3831320
  H        1.8065840    -2.3037040    -0.2799060
  H        2.8010350     2.5405970     0.1152150
  H        4.1326410    -1.4960120    -0.5534930
  H        4.6413930     0.9324010    -0.3562540
units angstrom
no_reorient  #important for SAPT in psi4, default
symmetry c1  #important for SAPT in psi4, default
}

set PROPERTIES_ORIGIN ["COM"]
properties('MP2/aug-cc-pvtz', properties = ['dipole'])
--------------------------------------------------------------------------

    Molecular point group: c1
  Charge       = 0
  Multiplicity = 1
  Basis Set: AUG-CC-PVTZ
    Blend: AUG-CC-PVTZ
  Basis Set: (AUG-CC-PVTZ AUX)
    Blend: AUG-CC-PVTZ-JKFIT

    Orbital Energies [Eh]
    ---------------------

    Doubly Occupied:

       1A    -11.236496     2A    -11.233564     3A    -11.232833
       4A    -11.228912     5A    -11.228475     6A    -11.228382
       7A    -11.228102     8A    -11.221267     9A    -11.216691
      10A    -11.214874    11A    -11.214654    12A    -11.211589
      13A     -1.155947    14A     -1.124732    15A     -1.039473
      16A     -1.008418    17A     -0.988462    18A     -0.953793
      19A     -0.892641    20A     -0.826349    21A     -0.816194
      22A     -0.763758    23A     -0.757331    24A     -0.689853
      25A     -0.660235    26A     -0.635255    27A     -0.621825
      28A     -0.606511    29A     -0.586154    30A     -0.579873
      31A     -0.573358    32A     -0.555988    33A     -0.528303
      34A     -0.510899    35A     -0.510110    36A     -0.489939
      37A     -0.475220    38A     -0.463598    39A     -0.461236
      40A     -0.453777    41A     -0.450343    42A     -0.443829
      43A     -0.332332    44A     -0.318774

  @DF-RHF Final Energy:  -463.89440475220135

   => Energetics <=

    Nuclear Repulsion Energy =            675.9072696889154486
    One-Electron Energy =               -1967.6626488146882821
    Two-Electron Energy =                 827.8609743735714801
    Total Energy =                       -463.8944047522013534
  Basis Set: (AUG-CC-PVTZ AUX)
    Blend: AUG-CC-PVTZ-RI
    Molecular point group: c1

    Geometry (in Angstrom), charge = 0, multiplicity = 1:

       Center              X                  Y                   Z               Mass
    ------------   -----------------  -----------------  -----------------  -----------------
         C           -0.513997868218    -0.828139511048     0.214585376796    12.000000000000
         C           -2.826425868218    -0.227842511048    -0.271243623204    12.000000000000
         C           -1.444129868218    -0.333648511048    -0.917015623204    12.000000000000
         C           -1.217086868218    -0.370973511048     1.531428376796    12.000000000000
         C           -2.485319868218     0.377248488952     1.092572376796    12.000000000000
         C            0.904862131782    -0.341934511048     0.067050376796    12.000000000000
         C           -3.841042868218     0.565954488952    -1.081444623204    12.000000000000
         C            1.207130131782     1.024756488952     0.174036376796    12.000000000000
         C            1.950989131782    -1.233801511048    -0.198441623204    12.000000000000
         C            2.515488131782     1.483431488952     0.023782376796    12.000000000000
         C            3.263284131782    -0.779906511048    -0.351688623204    12.000000000000
         C            3.549540131782     0.581377488952    -0.241641623204    12.000000000000
         H           -0.495576868218    -1.925425511048     0.189809376796     1.007825032230
         H           -3.212862868218    -1.245510511048    -0.109701623204     1.007825032230
         H           -1.126577768218     0.657777488952    -1.267574623204     1.007825032230
         H           -1.416480868218    -0.991104511048    -1.793612623204     1.007825032230
         H           -0.557600868218     0.244961488952     2.150209376796     1.007825032230
         H           -1.483685868218    -1.248677511048     2.130416376796     1.007825032230
         H           -3.303790868218     0.299268488952     1.817100376796     1.007825032230
         H           -2.272254868218     1.446757488952     0.956942376796     1.007825032230
         H           -3.475170868218     1.584124488952    -1.254280623204     1.007825032230
         H           -4.022016868218     0.102234488952    -2.056449623204     1.007825032230
         H           -4.800308868218     0.635662488952    -0.558317623204     1.007825032230
         H            0.409839131782     1.737887488952     0.380516376796     1.007825032230
         H            1.735188131782    -2.298023511048    -0.282521623204     1.007825032230
         H            2.729639131782     2.546277488952     0.112599376796     1.007825032230
         H            4.061245131782    -1.490331511048    -0.556108623204     1.007825032230
         H            4.569997131782     0.938081488952    -0.358869623204     1.007825032230

  Basis Set: AUG-CC-PVTZ
    Blend: AUG-CC-PVTZ
  Basis Set: (AUG-CC-PVTZ AUX)
    Blend: AUG-CC-PVTZ-JKFIT
	 Reference Energy          =    -463.8944047522013534 [Eh]
	 Singles Energy            =      -0.0000000000000000 [Eh]
	 Same-Spin Energy          =      -0.5194799936143737 [Eh]
	 Opposite-Spin Energy      =      -1.7263964655859985 [Eh]
	 Correlation Energy        =      -2.2458764592003719 [Eh]
	 Total Energy              =    -466.1402812114017138 [Eh]

	 ================> DF-SCS-MP2 Energies <==================
	-----------------------------------------------------------
	 SCS Same-Spin Scale       =       0.3333333333333333 [-]
	 SCS Opposite-Spin Scale   =       1.2000000000000000 [-]
	 SCS Same-Spin Energy      =      -0.1731599978714579 [Eh]
	 SCS Opposite-Spin Energy  =      -2.0716757587031980 [Eh]
	 SCS Correlation Energy    =      -2.2448357565746559 [Eh]
	 SCS Total Energy          =    -466.1392405087760267 [Eh]
	-----------------------------------------------------------

  Dipole Moment: [D]
     X:    -0.5692      Y:    -0.2008      Z:     0.0335     Total:     0.6045

*** Psi4 exiting successfully. Buy a developer a beer!
