                               Psi4 1.4a3.dev225

  ==> Input File <==

--------------------------------------------------------------------------
#psi4
#
memory 32 gb

molecule  {
0 1
  C       -0.4426020    -0.8338200     0.2172010
  C       -2.7876135    -0.2754278    -0.2706213
  C       -1.3727340    -0.3393290    -0.9144000
  C       -1.1456910    -0.3766540     1.5340440
  C       -2.4139240     0.3715680     1.0951880
  C        0.9762580    -0.3476150     0.0696660
  C       -3.7696470     0.5602740    -1.0788290
  C        1.2785260     1.0190760     0.1766520
  C        2.0223850    -1.2394820    -0.1958260
  C        2.5868840     1.4777510     0.0263980
  C        3.3346800    -0.7855870    -0.3490730
  C        3.6209360     0.5756970    -0.2390260
  H       -0.4241810    -1.9311060     0.1924250
  H       -3.1414670    -1.2511910    -0.1070860
  H       -1.0573430     0.6588960    -1.2471640
  H       -1.3450850    -0.9967850    -1.7909970
  H       -0.4862050     0.2392810     2.1528250
  H       -1.4122900    -1.2543580     2.1330320
  H       -3.2323950     0.2935880     1.8197160
  H       -2.2008590     1.4410770     0.9595580
  H       -3.4037750     1.5784440    -1.2516650
  H       -3.9506210     0.0965540    -2.0538340
  H       -4.7289130     0.6299820    -0.5557020
  H        0.4812350     1.7322070     0.3831320
  H        1.8065840    -2.3037040    -0.2799060
  H        2.8010350     2.5405970     0.1152150
  H        4.1326410    -1.4960120    -0.5534930
  H        4.6413930     0.9324010    -0.3562540
units angstrom
no_reorient  #important for SAPT in psi4, default
symmetry c1  #important for SAPT in psi4, default
}

set PROPERTIES_ORIGIN ["COM"]
properties('MP2/aug-cc-pvtz', properties = ['dipole'])
--------------------------------------------------------------------------

    Molecular point group: c1
  Charge       = 0
  Multiplicity = 1
  Basis Set: AUG-CC-PVTZ
    Blend: AUG-CC-PVTZ
  Basis Set: (AUG-CC-PVTZ AUX)
    Blend: AUG-CC-PVTZ-JKFIT

    Orbital Energies [Eh]
    ---------------------

    Doubly Occupied:

       1A    -11.236325     2A    -11.233488     3A    -11.232736
       4A    -11.228804     5A    -11.228308     6A    -11.227978
       7A    -11.227870     8A    -11.219614     9A    -11.216280
      10A    -11.215501    11A    -11.215464    12A    -11.211438
      13A     -1.154960    14A     -1.121400    15A     -1.038725
      16A     -1.008320    17A     -0.988134    18A     -0.951384
      19A     -0.890342    20A     -0.825941    21A     -0.815341
      22A     -0.772118    23A     -0.755684    24A     -0.689614
      25A     -0.657852    26A     -0.635084    27A     -0.620713
      28A     -0.605550    29A     -0.586381    30A     -0.579763
      31A     -0.573582    32A     -0.555244    33A     -0.530388
      34A     -0.510748    35A     -0.509591    36A     -0.490535
      37A     -0.475011    38A     -0.470752    39A     -0.461284
      40A     -0.453286    41A     -0.449306    42A     -0.434504
      43A     -0.332238    44A     -0.318580

  @DF-RHF Final Energy:  -463.89165944205598

   => Energetics <=

    Nuclear Repulsion Energy =            675.2592442406651116
    One-Electron Energy =               -1966.3894779180579917
    Two-Electron Energy =                 827.2385742353369551
    Total Energy =                       -463.8916594420559250
  Basis Set: (AUG-CC-PVTZ AUX)
    Blend: AUG-CC-PVTZ-RI
    Molecular point group: c1

    Geometry (in Angstrom), charge = 0, multiplicity = 1:

       Center              X                  Y                   Z               Mass
    ------------   -----------------  -----------------  -----------------  -----------------
         C           -0.511542414552    -0.825041901202     0.214622756006    12.000000000000
         C           -2.856553914552    -0.266649701202    -0.273199543994    12.000000000000
         C           -1.441674414552    -0.330550901202    -0.916978243994    12.000000000000
         C           -1.214631414552    -0.367875901202     1.531465756006    12.000000000000
         C           -2.482864414552     0.380346098798     1.092609756006    12.000000000000
         C            0.907317585448    -0.338836901202     0.067087756006    12.000000000000
         C           -3.838587414552     0.569052098798    -1.081407243994    12.000000000000
         C            1.209585585448     1.027854098798     0.174073756006    12.000000000000
         C            1.953444585448    -1.230703901202    -0.198404243994    12.000000000000
         C            2.517943585448     1.486529098798     0.023819756006    12.000000000000
         C            3.265739585448    -0.776808901202    -0.351651243994    12.000000000000
         C            3.551995585448     0.584475098798    -0.241604243994    12.000000000000
         H           -0.493121414552    -1.922327901202     0.189846756006     1.007825032230
         H           -3.210407414552    -1.242412901202    -0.109664243994     1.007825032230
         H           -1.126283414552     0.667674098798    -1.249742243994     1.007825032230
         H           -1.414025414552    -0.988006901202    -1.793575243994     1.007825032230
         H           -0.555145414552     0.248059098798     2.150246756006     1.007825032230
         H           -1.481230414552    -1.245579901202     2.130453756006     1.007825032230
         H           -3.301335414552     0.302366098798     1.817137756006     1.007825032230
         H           -2.269799414552     1.449855098798     0.956979756006     1.007825032230
         H           -3.472715414552     1.587222098798    -1.254243243994     1.007825032230
         H           -4.019561414552     0.105332098798    -2.056412243994     1.007825032230
         H           -4.797853414552     0.638760098798    -0.558280243994     1.007825032230
         H            0.412294585448     1.740985098798     0.380553756006     1.007825032230
         H            1.737643585448    -2.294925901202    -0.282484243994     1.007825032230
         H            2.732094585448     2.549375098798     0.112636756006     1.007825032230
         H            4.063700585448    -1.487233901202    -0.556071243994     1.007825032230
         H            4.572452585448     0.941179098798    -0.358832243994     1.007825032230

  Basis Set: AUG-CC-PVTZ
    Blend: AUG-CC-PVTZ
  Basis Set: (AUG-CC-PVTZ AUX)
    Blend: AUG-CC-PVTZ-JKFIT
	 Reference Energy          =    -463.8916594420559818 [Eh]
	 Singles Energy            =      -0.0000000000000000 [Eh]
	 Same-Spin Energy          =      -0.5192983678250109 [Eh]
	 Opposite-Spin Energy      =      -1.7263781180518905 [Eh]
	 Correlation Energy        =      -2.2456764858769014 [Eh]
	 Total Energy              =    -466.1373359279328952 [Eh]

	 ================> DF-SCS-MP2 Energies <==================
	-----------------------------------------------------------
	 SCS Same-Spin Scale       =       0.3333333333333333 [-]
	 SCS Opposite-Spin Scale   =       1.2000000000000000 [-]
	 SCS Same-Spin Energy      =      -0.1730994559416703 [Eh]
	 SCS Opposite-Spin Energy  =      -2.0716537416622685 [Eh]
	 SCS Correlation Energy    =      -2.2447531976039388 [Eh]
	 SCS Total Energy          =    -466.1364126396599090 [Eh]
	-----------------------------------------------------------

  Dipole Moment: [D]
     X:    -0.5880      Y:    -0.2197      Z:     0.0342     Total:     0.6287

*** Psi4 exiting successfully. Buy a developer a beer!
