                               Psi4 1.4a3.dev225

  ==> Input File <==

--------------------------------------------------------------------------
#psi4
#
memory 32 gb

molecule  {
0 1
  C       -0.4426020    -0.8338200     0.2172010
  C       -2.7550300    -0.2335230    -0.2686280
  C       -1.3727340    -0.3393290    -0.9144000
  C       -1.1456910    -0.3766540     1.5340440
  C       -2.4139240     0.3715680     1.0951880
  C        0.9762580    -0.3476150     0.0696660
  C       -3.7696470     0.5602740    -1.0788290
  C        1.2785260     1.0190760     0.1766520
  C        2.0223850    -1.2394820    -0.1958260
  C        2.5868840     1.4777510     0.0263980
  C        3.3346800    -0.7855870    -0.3490730
  C        3.6209360     0.5756970    -0.2390260
  H       -0.4241810    -1.9311060     0.1924250
  H       -3.1414670    -1.2511910    -0.1070860
  H       -1.0573430     0.6588960    -1.2471640
  H       -1.3450850    -0.9967850    -1.7909970
  H       -0.4862050     0.2392810     2.1528250
  H       -1.4122900    -1.2543580     2.1330320
  H       -3.2323950     0.2935880     1.8197160
  H       -2.2008590     1.4410770     0.9595580
  H       -3.3996574     1.5869740    -1.1757800
  H       -3.9506210     0.0965540    -2.0538340
  H       -4.7289130     0.6299820    -0.5557020
  H        0.4812350     1.7322070     0.3831320
  H        1.8065840    -2.3037040    -0.2799060
  H        2.8010350     2.5405970     0.1152150
  H        4.1326410    -1.4960120    -0.5534930
  H        4.6413930     0.9324010    -0.3562540
units angstrom
no_reorient  #important for SAPT in psi4, default
symmetry c1  #important for SAPT in psi4, default
}

set PROPERTIES_ORIGIN ["COM"]
properties('MP2/aug-cc-pvtz', properties = ['dipole'])
--------------------------------------------------------------------------

    Molecular point group: c1
  Charge       = 0
  Multiplicity = 1
  Basis Set: AUG-CC-PVTZ
    Blend: AUG-CC-PVTZ
  Basis Set: (AUG-CC-PVTZ AUX)
    Blend: AUG-CC-PVTZ-JKFIT

    Orbital Energies [Eh]
    ---------------------

    Doubly Occupied:

       1A    -11.236485     2A    -11.233582     3A    -11.232840
       4A    -11.228920     5A    -11.228428     6A    -11.228359
       7A    -11.228105     8A    -11.220723     9A    -11.216755
      10A    -11.215022    11A    -11.214668    12A    -11.211729
      13A     -1.156005    14A     -1.124895    15A     -1.039649
      16A     -1.008434    17A     -0.988581    18A     -0.953869
      19A     -0.892338    20A     -0.826315    21A     -0.816163
      22A     -0.763232    23A     -0.757219    24A     -0.689849
      25A     -0.660697    26A     -0.635022    27A     -0.622268
      28A     -0.606106    29A     -0.587963    30A     -0.580220
      31A     -0.572951    32A     -0.556093    33A     -0.528981
      34A     -0.510351    35A     -0.510048    36A     -0.489870
      37A     -0.475272    38A     -0.462548    39A     -0.460925
      40A     -0.453975    41A     -0.450608    42A     -0.443772
      43A     -0.332339    44A     -0.318790

  @DF-RHF Final Energy:  -463.89375269273944

   => Energetics <=

    Nuclear Repulsion Energy =            676.0194551752508687
    One-Electron Energy =               -1967.8844909945537438
    Two-Electron Energy =                 827.9712831265634350
    Total Energy =                       -463.8937526927394401
  Basis Set: (AUG-CC-PVTZ AUX)
    Blend: AUG-CC-PVTZ-RI
    Molecular point group: c1

    Geometry (in Angstrom), charge = 0, multiplicity = 1:

       Center              X                  Y                   Z               Mass
    ------------   -----------------  -----------------  -----------------  -----------------
         C           -0.514010182393    -0.828235991489     0.213995756619    12.000000000000
         C           -2.826438182393    -0.227938991489    -0.271833243381    12.000000000000
         C           -1.444142182393    -0.333744991489    -0.917605243381    12.000000000000
         C           -1.217099182393    -0.371069991489     1.530838756619    12.000000000000
         C           -2.485332182393     0.377152008511     1.091982756619    12.000000000000
         C            0.904849817607    -0.342030991489     0.066460756619    12.000000000000
         C           -3.841055182393     0.565858008511    -1.082034243381    12.000000000000
         C            1.207117817607     1.024660008511     0.173446756619    12.000000000000
         C            1.950976817607    -1.233897991489    -0.199031243381    12.000000000000
         C            2.515475817607     1.483335008511     0.023192756619    12.000000000000
         C            3.263271817607    -0.780002991489    -0.352278243381    12.000000000000
         C            3.549527817607     0.581281008511    -0.242231243381    12.000000000000
         H           -0.495589182393    -1.925521991489     0.189219756619     1.007825032230
         H           -3.212875182393    -1.245606991489    -0.110291243381     1.007825032230
         H           -1.128751182393     0.664480008511    -1.250369243381     1.007825032230
         H           -1.416493182393    -0.991200991489    -1.794202243381     1.007825032230
         H           -0.557613182393     0.244865008511     2.149619756619     1.007825032230
         H           -1.483698182393    -1.248773991489     2.129826756619     1.007825032230
         H           -3.303803182393     0.299172008511     1.816510756619     1.007825032230
         H           -2.272267182393     1.446661008511     0.956352756619     1.007825032230
         H           -3.471065582393     1.592558008511    -1.178985243381     1.007825032230
         H           -4.022029182393     0.102138008511    -2.057039243381     1.007825032230
         H           -4.800321182393     0.635566008511    -0.558907243381     1.007825032230
         H            0.409826817607     1.737791008511     0.379926756619     1.007825032230
         H            1.735175817607    -2.298119991489    -0.283111243381     1.007825032230
         H            2.729626817607     2.546181008511     0.112009756619     1.007825032230
         H            4.061232817607    -1.490427991489    -0.556698243381     1.007825032230
         H            4.569984817607     0.937985008511    -0.359459243381     1.007825032230

  Basis Set: AUG-CC-PVTZ
    Blend: AUG-CC-PVTZ
  Basis Set: (AUG-CC-PVTZ AUX)
    Blend: AUG-CC-PVTZ-JKFIT
	 Reference Energy          =    -463.8937526927394401 [Eh]
	 Singles Energy            =      -0.0000000000000000 [Eh]
	 Same-Spin Energy          =      -0.5195863147327018 [Eh]
	 Opposite-Spin Energy      =      -1.7265576194775039 [Eh]
	 Correlation Energy        =      -2.2461439342102056 [Eh]
	 Total Energy              =    -466.1398966269496213 [Eh]

	 ================> DF-SCS-MP2 Energies <==================
	-----------------------------------------------------------
	 SCS Same-Spin Scale       =       0.3333333333333333 [-]
	 SCS Opposite-Spin Scale   =       1.2000000000000000 [-]
	 SCS Same-Spin Energy      =      -0.1731954382442339 [Eh]
	 SCS Opposite-Spin Energy  =      -2.0718691433730045 [Eh]
	 SCS Correlation Energy    =      -2.2450645816172385 [Eh]
	 SCS Total Energy          =    -466.1388172743566543 [Eh]
	-----------------------------------------------------------

  Dipole Moment: [D]
     X:    -0.5750      Y:    -0.2095      Z:     0.0553     Total:     0.6145

*** Psi4 exiting successfully. Buy a developer a beer!
