                               Psi4 1.4a3.dev225

  ==> Input File <==

--------------------------------------------------------------------------
#psi4
#
memory 32 gb

molecule  {
0 1
  C       -0.4426020    -0.8338200     0.2172010
  C       -2.7550300    -0.2335230    -0.2686280
  C       -1.3727340    -0.3393290    -0.9144000
  C       -1.1456910    -0.3766540     1.5340440
  C       -2.4139240     0.3715680     1.0951880
  C        0.9762580    -0.3476150     0.0696660
  C       -3.7696470     0.5602740    -1.0788290
  C        1.2785260     1.0190760     0.1766520
  C        2.0223850    -1.2394820    -0.1958260
  C        2.5868840     1.4777510     0.0263980
  C        3.3346800    -0.7855870    -0.3490730
  C        3.6209360     0.5756970    -0.2390260
  H       -0.4241810    -1.9311060     0.1924250
  H       -3.1414670    -1.2511910    -0.1070860
  H       -1.0573430     0.6588960    -1.2471640
  H       -1.3450850    -0.9967850    -1.7909970
  H       -0.4862050     0.2392810     2.1528250
  H       -1.4122900    -1.2543580     2.1330320
  H       -3.2323950     0.2935880     1.8197160
  H       -2.2008590     1.4410770     0.9595580
  H       -3.4037750     1.5784440    -1.2516650
  H       -3.9506210     0.0965540    -2.0538340
  H       -4.7289130     0.6299820    -0.5557020
  H        0.4812350     1.7322070     0.3831320
  H        1.8065840    -2.3037040    -0.2799060
  H        2.8010350     2.5405970     0.1152150
  H        4.1326410    -1.4960120    -0.5534930
  H        4.6883174     0.9488036    -0.3616446
units angstrom
no_reorient  #important for SAPT in psi4, default
symmetry c1  #important for SAPT in psi4, default
}

set PROPERTIES_ORIGIN ["COM"]
properties('MP2/aug-cc-pvtz', properties = ['dipole'])
--------------------------------------------------------------------------

    Molecular point group: c1
  Charge       = 0
  Multiplicity = 1
  Basis Set: AUG-CC-PVTZ
    Blend: AUG-CC-PVTZ
  Basis Set: (AUG-CC-PVTZ AUX)
    Blend: AUG-CC-PVTZ-JKFIT

    Orbital Energies [Eh]
    ---------------------

    Doubly Occupied:

       1A    -11.236717     2A    -11.235346     3A    -11.233826
       4A    -11.233032     5A    -11.228807     6A    -11.228551
       7A    -11.228477     8A    -11.221267     9A    -11.216814
      10A    -11.214990    11A    -11.214857    12A    -11.211664
      13A     -1.156157    14A     -1.124849    15A     -1.038985
      16A     -1.008827    17A     -0.988124    18A     -0.953384
      19A     -0.892355    20A     -0.826285    21A     -0.814798
      22A     -0.763697    23A     -0.757106    24A     -0.686169
      25A     -0.660277    26A     -0.633259    27A     -0.621954
      28A     -0.606108    29A     -0.586259    30A     -0.580225
      31A     -0.573165    32A     -0.555277    33A     -0.527112
      34A     -0.510361    35A     -0.508760    36A     -0.490233
      37A     -0.475189    38A     -0.463524    39A     -0.461254
      40A     -0.453760    41A     -0.450433    42A     -0.443882
      43A     -0.332692    44A     -0.319066

  @DF-RHF Final Energy:  -463.89195913382912

   => Energetics <=

    Nuclear Repulsion Energy =            675.6865710251166774
    One-Electron Energy =               -1967.2213208773328006
    Two-Electron Energy =                 827.6427907183868911
    Total Energy =                       -463.8919591338291184
  Basis Set: (AUG-CC-PVTZ AUX)
    Blend: AUG-CC-PVTZ-RI
    Molecular point group: c1

    Geometry (in Angstrom), charge = 0, multiplicity = 1:

       Center              X                  Y                   Z               Mass
    ------------   -----------------  -----------------  -----------------  -----------------
         C           -0.514279607595    -0.828285541486     0.214507303733    12.000000000000
         C           -2.826707607595    -0.227988541486    -0.271321696267    12.000000000000
         C           -1.444411607595    -0.333794541486    -0.917093696267    12.000000000000
         C           -1.217368607595    -0.371119541486     1.531350303733    12.000000000000
         C           -2.485601607595     0.377102458514     1.092494303733    12.000000000000
         C            0.904580392405    -0.342080541486     0.066972303733    12.000000000000
         C           -3.841324607595     0.565808458514    -1.081522696267    12.000000000000
         C            1.206848392405     1.024610458514     0.173958303733    12.000000000000
         C            1.950707392405    -1.233947541486    -0.198519696267    12.000000000000
         C            2.515206392405     1.483285458514     0.023704303733    12.000000000000
         C            3.263002392405    -0.780052541486    -0.351766696267    12.000000000000
         C            3.549258392405     0.581231458514    -0.241719696267    12.000000000000
         H           -0.495858607595    -1.925571541486     0.189731303733     1.007825032230
         H           -3.213144607595    -1.245656541486    -0.109779696267     1.007825032230
         H           -1.129020607595     0.664430458514    -1.249857696267     1.007825032230
         H           -1.416762607595    -0.991250541486    -1.793690696267     1.007825032230
         H           -0.557882607595     0.244815458514     2.150131303733     1.007825032230
         H           -1.483967607595    -1.248823541486     2.130338303733     1.007825032230
         H           -3.304072607595     0.299122458514     1.817022303733     1.007825032230
         H           -2.272536607595     1.446611458514     0.956864303733     1.007825032230
         H           -3.475452607595     1.583978458514    -1.254358696267     1.007825032230
         H           -4.022298607595     0.102088458514    -2.056527696267     1.007825032230
         H           -4.800590607595     0.635516458514    -0.558395696267     1.007825032230
         H            0.409557392405     1.737741458514     0.380438303733     1.007825032230
         H            1.734906392405    -2.298169541486    -0.282599696267     1.007825032230
         H            2.729357392405     2.546131458514     0.112521303733     1.007825032230
         H            4.060963392405    -1.490477541486    -0.556186696267     1.007825032230
         H            4.616639792405     0.954338058514    -0.364338296267     1.007825032230

  Basis Set: AUG-CC-PVTZ
    Blend: AUG-CC-PVTZ
  Basis Set: (AUG-CC-PVTZ AUX)
    Blend: AUG-CC-PVTZ-JKFIT
	 Reference Energy          =    -463.8919591338291184 [Eh]
	 Singles Energy            =      -0.0000000000000000 [Eh]
	 Same-Spin Energy          =      -0.5195997159597536 [Eh]
	 Opposite-Spin Energy      =      -1.7268576275575012 [Eh]
	 Correlation Energy        =      -2.2464573435172550 [Eh]
	 Total Energy              =    -466.1384164773463681 [Eh]

	 ================> DF-SCS-MP2 Energies <==================
	-----------------------------------------------------------
	 SCS Same-Spin Scale       =       0.3333333333333333 [-]
	 SCS Opposite-Spin Scale   =       1.2000000000000000 [-]
	 SCS Same-Spin Energy      =      -0.1731999053199179 [Eh]
	 SCS Opposite-Spin Energy  =      -2.0722291530690011 [Eh]
	 SCS Correlation Energy    =      -2.2454290583889192 [Eh]
	 SCS Total Energy          =    -466.1373881922180544 [Eh]
	-----------------------------------------------------------

  Dipole Moment: [D]
     X:    -0.5941      Y:    -0.2105      Z:     0.0399     Total:     0.6315

*** Psi4 exiting successfully. Buy a developer a beer!
