                               Psi4 1.4a3.dev225

  ==> Input File <==

--------------------------------------------------------------------------
#psi4
#
memory 32 gb

molecule  {
0 1
  C       -0.4426020    -0.8338200     0.2172010
  C       -2.7550300    -0.2335230    -0.2686280
  C       -1.3727340    -0.3393290    -0.9144000
  C       -1.1456910    -0.3766540     1.5340440
  C       -2.4139240     0.3715680     1.0951880
  C        0.9762580    -0.3476150     0.0696660
  C       -3.7696470     0.5602740    -1.0788290
  C        1.2785260     1.0190760     0.1766520
  C        2.0223850    -1.2394820    -0.1958260
  C        2.5868840     1.4777510     0.0263980
  C        3.3346800    -0.7855870    -0.3490730
  C        3.6209360     0.5756970    -0.2390260
  H       -0.4241810    -1.9311060     0.1924250
  H       -3.1414670    -1.2511910    -0.1070860
  H       -1.0573430     0.6588960    -1.2471640
  H       -1.3450850    -0.9967850    -1.7909970
  H       -0.4862050     0.2392810     2.1528250
  H       -1.4122900    -1.2543580     2.1330320
  H       -3.2323950     0.2935880     1.8197160
  H       -2.2008590     1.4410770     0.9595580
  H       -3.4037750     1.5784440    -1.2516650
  H       -3.9506210     0.0965540    -2.0538340
  H       -4.7289130     0.6299820    -0.5557020
  H        0.4812350     1.7322070     0.3831320
  H        1.8065840    -2.3037040    -0.2799060
  H        2.8010350     2.5405970     0.1152150
  H        4.1326410    -1.4960120    -0.5534930
  H        4.7352418     0.9652061    -0.3670352
units angstrom
no_reorient  #important for SAPT in psi4, default
symmetry c1  #important for SAPT in psi4, default
}

set PROPERTIES_ORIGIN ["COM"]
properties('MP2/aug-cc-pvtz', properties = ['dipole'])
--------------------------------------------------------------------------

    Molecular point group: c1
  Charge       = 0
  Multiplicity = 1
  Basis Set: AUG-CC-PVTZ
    Blend: AUG-CC-PVTZ
  Basis Set: (AUG-CC-PVTZ AUX)
    Blend: AUG-CC-PVTZ-JKFIT

    Orbital Energies [Eh]
    ---------------------

    Doubly Occupied:

       1A    -11.240626     2A    -11.236992     3A    -11.234566
       4A    -11.233807     5A    -11.229234     6A    -11.228941
       7A    -11.228700     8A    -11.221385     9A    -11.216962
      10A    -11.215114    11A    -11.215003    12A    -11.211757
      13A     -1.156388    14A     -1.124954    15A     -1.038662
      16A     -1.009268    17A     -0.987908    18A     -0.953105
      19A     -0.892154    20A     -0.826394    21A     -0.813646
      22A     -0.763826    23A     -0.757104    24A     -0.683189
      25A     -0.660163    26A     -0.631537    27A     -0.622036
      28A     -0.605660    29A     -0.586416    30A     -0.580515
      31A     -0.572887    32A     -0.554483    33A     -0.525859
      34A     -0.510689    35A     -0.506045    36A     -0.490402
      37A     -0.475065    38A     -0.463705    39A     -0.461191
      40A     -0.453771    41A     -0.450604    42A     -0.443900
      43A     -0.333083    44A     -0.319402

  @DF-RHF Final Energy:  -463.88706529639290

   => Energetics <=

    Nuclear Repulsion Energy =            675.4472873078045723
    One-Electron Energy =               -1966.7345092332136574
    Two-Electron Energy =                 827.4001566290162373
    Total Energy =                       -463.8870652963928478
  Basis Set: (AUG-CC-PVTZ AUX)
    Blend: AUG-CC-PVTZ-RI
    Molecular point group: c1

    Geometry (in Angstrom), charge = 0, multiplicity = 1:

       Center              X                  Y                   Z               Mass
    ------------   -----------------  -----------------  -----------------  -----------------
         C           -0.514574948896    -0.828388778516     0.214541232069    12.000000000000
         C           -2.827002948896    -0.228091778516    -0.271287767931    12.000000000000
         C           -1.444706948896    -0.333897778516    -0.917059767931    12.000000000000
         C           -1.217663948896    -0.371222778516     1.531384232069    12.000000000000
         C           -2.485896948896     0.376999221484     1.092528232069    12.000000000000
         C            0.904285051104    -0.342183778516     0.067006232069    12.000000000000
         C           -3.841619948896     0.565705221484    -1.081488767931    12.000000000000
         C            1.206553051104     1.024507221484     0.173992232069    12.000000000000
         C            1.950412051104    -1.234050778516    -0.198485767931    12.000000000000
         C            2.514911051104     1.483182221484     0.023738232069    12.000000000000
         C            3.262707051104    -0.780155778516    -0.351732767931    12.000000000000
         C            3.548963051104     0.581128221484    -0.241685767931    12.000000000000
         H           -0.496153948896    -1.925674778516     0.189765232069     1.007825032230
         H           -3.213439948896    -1.245759778516    -0.109745767931     1.007825032230
         H           -1.129315948896     0.664327221484    -1.249823767931     1.007825032230
         H           -1.417057948896    -0.991353778516    -1.793656767931     1.007825032230
         H           -0.558177948896     0.244712221484     2.150165232069     1.007825032230
         H           -1.484262948896    -1.248926778516     2.130372232069     1.007825032230
         H           -3.304367948896     0.299019221484     1.817056232069     1.007825032230
         H           -2.272831948896     1.446508221484     0.956898232069     1.007825032230
         H           -3.475747948896     1.583875221484    -1.254324767931     1.007825032230
         H           -4.022593948896     0.101985221484    -2.056493767931     1.007825032230
         H           -4.800885948896     0.635413221484    -0.558361767931     1.007825032230
         H            0.409262051104     1.737638221484     0.380472232069     1.007825032230
         H            1.734611051104    -2.298272778516    -0.282565767931     1.007825032230
         H            2.729062051104     2.546028221484     0.112555232069     1.007825032230
         H            4.060668051104    -1.490580778516    -0.556152767931     1.007825032230
         H            4.663268851104     0.970637321484    -0.369694967931     1.007825032230

  Basis Set: AUG-CC-PVTZ
    Blend: AUG-CC-PVTZ
  Basis Set: (AUG-CC-PVTZ AUX)
    Blend: AUG-CC-PVTZ-JKFIT
	 Reference Energy          =    -463.8870652963929047 [Eh]
	 Singles Energy            =      -0.0000000000000000 [Eh]
	 Same-Spin Energy          =      -0.5197044675803961 [Eh]
	 Opposite-Spin Energy      =      -1.7273688622331949 [Eh]
	 Correlation Energy        =      -2.2470733298135910 [Eh]
	 Total Energy              =    -466.1341386262064930 [Eh]

	 ================> DF-SCS-MP2 Energies <==================
	-----------------------------------------------------------
	 SCS Same-Spin Scale       =       0.3333333333333333 [-]
	 SCS Opposite-Spin Scale   =       1.2000000000000000 [-]
	 SCS Same-Spin Energy      =      -0.1732348225267987 [Eh]
	 SCS Opposite-Spin Energy  =      -2.0728426346798337 [Eh]
	 SCS Correlation Energy    =      -2.2460774572066322 [Eh]
	 SCS Total Energy          =    -466.1331427535995431 [Eh]
	-----------------------------------------------------------

  Dipole Moment: [D]
     X:    -0.6236      Y:    -0.2198      Z:     0.0431     Total:     0.6626

*** Psi4 exiting successfully. Buy a developer a beer!
