                               Psi4 1.4a3.dev225

  ==> Input File <==

--------------------------------------------------------------------------
#psi4
#
memory 32 gb

molecule  {
0 1
  C       -0.4426020    -0.8338200     0.2172010
  C       -2.7550300    -0.2335230    -0.2686280
  C       -1.3125711    -0.3713137    -0.8412057
  C       -1.1456910    -0.3766540     1.5340440
  C       -2.4139240     0.3715680     1.0951880
  C        0.9762580    -0.3476150     0.0696660
  C       -3.7696470     0.5602740    -1.0788290
  C        1.2785260     1.0190760     0.1766520
  C        2.0223850    -1.2394820    -0.1958260
  C        2.5868840     1.4777510     0.0263980
  C        3.3346800    -0.7855870    -0.3490730
  C        3.6209360     0.5756970    -0.2390260
  H       -0.4241810    -1.9311060     0.1924250
  H       -3.1414670    -1.2511910    -0.1070860
  H       -1.0573430     0.6588960    -1.2471640
  H       -1.3450850    -0.9967850    -1.7909970
  H       -0.4862050     0.2392810     2.1528250
  H       -1.4122900    -1.2543580     2.1330320
  H       -3.2323950     0.2935880     1.8197160
  H       -2.2008590     1.4410770     0.9595580
  H       -3.4037750     1.5784440    -1.2516650
  H       -3.9506210     0.0965540    -2.0538340
  H       -4.7289130     0.6299820    -0.5557020
  H        0.4812350     1.7322070     0.3831320
  H        1.8065840    -2.3037040    -0.2799060
  H        2.8010350     2.5405970     0.1152150
  H        4.1326410    -1.4960120    -0.5534930
  H        4.6413930     0.9324010    -0.3562540
units angstrom
no_reorient  #important for SAPT in psi4, default
symmetry c1  #important for SAPT in psi4, default
}

set PROPERTIES_ORIGIN ["COM"]
properties('MP2/aug-cc-pvtz', properties = ['dipole'])
--------------------------------------------------------------------------

    Molecular point group: c1
  Charge       = 0
  Multiplicity = 1
  Basis Set: AUG-CC-PVTZ
    Blend: AUG-CC-PVTZ
  Basis Set: (AUG-CC-PVTZ AUX)
    Blend: AUG-CC-PVTZ-JKFIT

    Orbital Energies [Eh]
    ---------------------

    Doubly Occupied:

       1A    -11.237095     2A    -11.233789     3A    -11.233055
       4A    -11.229330     5A    -11.228901     6A    -11.228661
       7A    -11.224497     8A    -11.222302     9A    -11.218142
      10A    -11.217188    11A    -11.214185    12A    -11.213303
      13A     -1.160678    14A     -1.128365    15A     -1.041516
      16A     -1.008771    17A     -0.988147    18A     -0.960130
      19A     -0.891479    20A     -0.826382    21A     -0.816390
      22A     -0.763875    23A     -0.754344    24A     -0.692452
      25A     -0.660025    26A     -0.637854    27A     -0.623559
      28A     -0.607966    29A     -0.586720    30A     -0.578742
      31A     -0.573760    32A     -0.555910    33A     -0.525161
      34A     -0.518638    35A     -0.510846    36A     -0.489787
      37A     -0.479433    38A     -0.468843    39A     -0.461250
      40A     -0.451769    41A     -0.442830    42A     -0.433477
      43A     -0.332538    44A     -0.320442

  @DF-RHF Final Energy:  -463.88332481837404

   => Energetics <=

    Nuclear Repulsion Energy =            677.2258530580329534
    One-Electron Energy =               -1970.2333047888250803
    Two-Electron Energy =                 829.1241269124180917
    Total Energy =                       -463.8833248183740352
  Basis Set: (AUG-CC-PVTZ AUX)
    Blend: AUG-CC-PVTZ-RI
    Molecular point group: c1

    Geometry (in Angstrom), charge = 0, multiplicity = 1:

       Center              X                  Y                   Z               Mass
    ------------   -----------------  -----------------  -----------------  -----------------
         C           -0.518492955731    -0.825785326969     0.208988095147    12.000000000000
         C           -2.830920955731    -0.225488326969    -0.276840904853    12.000000000000
         C           -1.388462055731    -0.363279026969    -0.849418604853    12.000000000000
         C           -1.221581955731    -0.368619326969     1.525831095147    12.000000000000
         C           -2.489814955731     0.379602673031     1.086975095147    12.000000000000
         C            0.900367044269    -0.339580326969     0.061453095147    12.000000000000
         C           -3.845537955731     0.568308673031    -1.087041904853    12.000000000000
         C            1.202635044269     1.027110673031     0.168439095147    12.000000000000
         C            1.946494044269    -1.231447326969    -0.204038904853    12.000000000000
         C            2.510993044269     1.485785673031     0.018185095147    12.000000000000
         C            3.258789044269    -0.777552326969    -0.357285904853    12.000000000000
         C            3.545045044269     0.583731673031    -0.247238904853    12.000000000000
         H           -0.500071955731    -1.923071326969     0.184212095147     1.007825032230
         H           -3.217357955731    -1.243156326969    -0.115298904853     1.007825032230
         H           -1.133233955731     0.666930673031    -1.255376904853     1.007825032230
         H           -1.420975955731    -0.988750326969    -1.799209904853     1.007825032230
         H           -0.562095955731     0.247315673031     2.144612095147     1.007825032230
         H           -1.488180955731    -1.246323326969     2.124819095147     1.007825032230
         H           -3.308285955731     0.301622673031     1.811503095147     1.007825032230
         H           -2.276749955731     1.449111673031     0.951345095147     1.007825032230
         H           -3.479665955731     1.586478673031    -1.259877904853     1.007825032230
         H           -4.026511955731     0.104588673031    -2.062046904853     1.007825032230
         H           -4.804803955731     0.638016673031    -0.563914904853     1.007825032230
         H            0.405344044269     1.740241673031     0.374919095147     1.007825032230
         H            1.730693044269    -2.295669326969    -0.288118904853     1.007825032230
         H            2.725144044269     2.548631673031     0.107002095147     1.007825032230
         H            4.056750044269    -1.487977326969    -0.561705904853     1.007825032230
         H            4.565502044269     0.940435673031    -0.364466904853     1.007825032230

  Basis Set: AUG-CC-PVTZ
    Blend: AUG-CC-PVTZ
  Basis Set: (AUG-CC-PVTZ AUX)
    Blend: AUG-CC-PVTZ-JKFIT
	 Reference Energy          =    -463.8833248183740352 [Eh]
	 Singles Energy            =      -0.0000000000000000 [Eh]
	 Same-Spin Energy          =      -0.5204737286822199 [Eh]
	 Opposite-Spin Energy      =      -1.7275876248742352 [Eh]
	 Correlation Energy        =      -2.2480613535564551 [Eh]
	 Total Energy              =    -466.1313861719305010 [Eh]

	 ================> DF-SCS-MP2 Energies <==================
	-----------------------------------------------------------
	 SCS Same-Spin Scale       =       0.3333333333333333 [-]
	 SCS Opposite-Spin Scale   =       1.2000000000000000 [-]
	 SCS Same-Spin Energy      =      -0.1734912428940733 [Eh]
	 SCS Opposite-Spin Energy  =      -2.0731051498490820 [Eh]
	 SCS Correlation Energy    =      -2.2465963927431551 [Eh]
	 SCS Total Energy          =    -466.1299212111171641 [Eh]
	-----------------------------------------------------------

  Dipole Moment: [D]
     X:    -0.5626      Y:    -0.1853      Z:     0.0584     Total:     0.5952

*** Psi4 exiting successfully. Buy a developer a beer!
