                               Psi4 1.4a3.dev225

  ==> Input File <==

--------------------------------------------------------------------------
#psi4
#
memory 32 gb

molecule  {
0 1
  C       -0.4426020    -0.8338200     0.2172010
  C       -2.7550300    -0.2335230    -0.2686280
  C       -1.3727340    -0.3393290    -0.9144000
  C       -1.1456910    -0.3766540     1.5340440
  C       -2.4551941     0.3959162     1.0809070
  C        0.9762580    -0.3476150     0.0696660
  C       -3.7696470     0.5602740    -1.0788290
  C        1.2785260     1.0190760     0.1766520
  C        2.0223850    -1.2394820    -0.1958260
  C        2.5868840     1.4777510     0.0263980
  C        3.3346800    -0.7855870    -0.3490730
  C        3.6209360     0.5756970    -0.2390260
  H       -0.4241810    -1.9311060     0.1924250
  H       -3.1414670    -1.2511910    -0.1070860
  H       -1.0573430     0.6588960    -1.2471640
  H       -1.3450850    -0.9967850    -1.7909970
  H       -0.4862050     0.2392810     2.1528250
  H       -1.4122900    -1.2543580     2.1330320
  H       -3.2323950     0.2935880     1.8197160
  H       -2.2008590     1.4410770     0.9595580
  H       -3.4037750     1.5784440    -1.2516650
  H       -3.9506210     0.0965540    -2.0538340
  H       -4.7289130     0.6299820    -0.5557020
  H        0.4812350     1.7322070     0.3831320
  H        1.8065840    -2.3037040    -0.2799060
  H        2.8010350     2.5405970     0.1152150
  H        4.1326410    -1.4960120    -0.5534930
  H        4.6413930     0.9324010    -0.3562540
units angstrom
no_reorient  #important for SAPT in psi4, default
symmetry c1  #important for SAPT in psi4, default
}

set PROPERTIES_ORIGIN ["COM"]
properties('MP2/aug-cc-pvtz', properties = ['dipole'])
--------------------------------------------------------------------------

    Molecular point group: c1
  Charge       = 0
  Multiplicity = 1
  Basis Set: AUG-CC-PVTZ
    Blend: AUG-CC-PVTZ
  Basis Set: (AUG-CC-PVTZ AUX)
    Blend: AUG-CC-PVTZ-JKFIT

    Orbital Energies [Eh]
    ---------------------

    Doubly Occupied:

       1A    -11.236452     2A    -11.233544     3A    -11.232801
       4A    -11.228860     5A    -11.228377     6A    -11.228247
       7A    -11.228041     8A    -11.220937     9A    -11.218251
      10A    -11.215147    11A    -11.213826    12A    -11.210745
      13A     -1.155259    14A     -1.123190    15A     -1.040313
      16A     -1.008372    17A     -0.984447    18A     -0.953001
      19A     -0.892822    20A     -0.826741    21A     -0.816788
      22A     -0.765424    23A     -0.756926    24A     -0.689784
      25A     -0.660999    26A     -0.634626    27A     -0.622464
      28A     -0.604284    29A     -0.584932    30A     -0.580583
      31A     -0.573929    32A     -0.556408    33A     -0.528252
      34A     -0.513705    35A     -0.509711    36A     -0.490248
      37A     -0.473171    38A     -0.464234    39A     -0.461100
      40A     -0.454485    41A     -0.450848    42A     -0.440227
      43A     -0.332305    44A     -0.318660

  @DF-RHF Final Energy:  -463.89259566695563

   => Energetics <=

    Nuclear Repulsion Energy =            675.4269497912963516
    One-Electron Energy =               -1966.7121549714427147
    Two-Electron Energy =                 827.3926095131907914
    Total Energy =                       -463.8925956669556854
  Basis Set: (AUG-CC-PVTZ AUX)
    Blend: AUG-CC-PVTZ-RI
    Molecular point group: c1

    Geometry (in Angstrom), charge = 0, multiplicity = 1:

       Center              X                  Y                   Z               Mass
    ------------   -----------------  -----------------  -----------------  -----------------
         C           -0.510891428950    -0.830006991004     0.215543612933    12.000000000000
         C           -2.823319428950    -0.229709991004    -0.270285387067    12.000000000000
         C           -1.441023428950    -0.335515991004    -0.916057387067    12.000000000000
         C           -1.213980428950    -0.372840991004     1.532386612933    12.000000000000
         C           -2.523483528950     0.399729208996     1.079249612933    12.000000000000
         C            0.907968571050    -0.343801991004     0.068008612933    12.000000000000
         C           -3.837936428950     0.564087008996    -1.080486387067    12.000000000000
         C            1.210236571050     1.022889008996     0.174994612933    12.000000000000
         C            1.954095571050    -1.235668991004    -0.197483387067    12.000000000000
         C            2.518594571050     1.481564008996     0.024740612933    12.000000000000
         C            3.266390571050    -0.781773991004    -0.350730387067    12.000000000000
         C            3.552646571050     0.579510008996    -0.240683387067    12.000000000000
         H           -0.492470428950    -1.927292991004     0.190767612933     1.007825032230
         H           -3.209756428950    -1.247377991004    -0.108743387067     1.007825032230
         H           -1.125632428950     0.662709008996    -1.248821387067     1.007825032230
         H           -1.413374428950    -0.992971991004    -1.792654387067     1.007825032230
         H           -0.554494428950     0.243094008996     2.151167612933     1.007825032230
         H           -1.480579428950    -1.250544991004     2.131374612933     1.007825032230
         H           -3.300684428950     0.297401008996     1.818058612933     1.007825032230
         H           -2.269148428950     1.444890008996     0.957900612933     1.007825032230
         H           -3.472064428950     1.582257008996    -1.253322387067     1.007825032230
         H           -4.018910428950     0.100367008996    -2.055491387067     1.007825032230
         H           -4.797202428950     0.633795008996    -0.557359387067     1.007825032230
         H            0.412945571050     1.736020008996     0.381474612933     1.007825032230
         H            1.738294571050    -2.299890991004    -0.281563387067     1.007825032230
         H            2.732745571050     2.544410008996     0.113557612933     1.007825032230
         H            4.064351571050    -1.492198991004    -0.555150387067     1.007825032230
         H            4.573103571050     0.936214008996    -0.357911387067     1.007825032230

  Basis Set: AUG-CC-PVTZ
    Blend: AUG-CC-PVTZ
  Basis Set: (AUG-CC-PVTZ AUX)
    Blend: AUG-CC-PVTZ-JKFIT
	 Reference Energy          =    -463.8925956669556285 [Eh]
	 Singles Energy            =      -0.0000000000000000 [Eh]
	 Same-Spin Energy          =      -0.5193805389680968 [Eh]
	 Opposite-Spin Energy      =      -1.7264860891467662 [Eh]
	 Correlation Energy        =      -2.2458666281148627 [Eh]
	 Total Energy              =    -466.1384622950704966 [Eh]

	 ================> DF-SCS-MP2 Energies <==================
	-----------------------------------------------------------
	 SCS Same-Spin Scale       =       0.3333333333333333 [-]
	 SCS Opposite-Spin Scale   =       1.2000000000000000 [-]
	 SCS Same-Spin Energy      =      -0.1731268463226989 [Eh]
	 SCS Opposite-Spin Energy  =      -2.0717833069761191 [Eh]
	 SCS Correlation Energy    =      -2.2449101532988180 [Eh]
	 SCS Total Energy          =    -466.1375058202544324 [Eh]
	-----------------------------------------------------------

  Dipole Moment: [D]
     X:    -0.5706      Y:    -0.1991      Z:     0.0478     Total:     0.6063

*** Psi4 exiting successfully. Buy a developer a beer!
