                               Psi4 1.4a3.dev225

  ==> Input File <==

--------------------------------------------------------------------------
#psi4
#
memory 32 gb

molecule  {
0 1
  C       -0.4426020    -0.8338200     0.2172010
  C       -2.7515124    -0.2095534    -0.2798809
  C       -1.3727340    -0.3393290    -0.9144000
  C       -1.1456910    -0.3766540     1.5340440
  C       -2.4139240     0.3715680     1.0951880
  C        0.9762580    -0.3476150     0.0696660
  C       -3.7696470     0.5602740    -1.0788290
  C        1.2785260     1.0190760     0.1766520
  C        2.0223850    -1.2394820    -0.1958260
  C        2.5868840     1.4777510     0.0263980
  C        3.3346800    -0.7855870    -0.3490730
  C        3.6209360     0.5756970    -0.2390260
  H       -0.4241810    -1.9311060     0.1924250
  H       -3.1414670    -1.2511910    -0.1070860
  H       -1.0573430     0.6588960    -1.2471640
  H       -1.3450850    -0.9967850    -1.7909970
  H       -0.4862050     0.2392810     2.1528250
  H       -1.4122900    -1.2543580     2.1330320
  H       -3.2323950     0.2935880     1.8197160
  H       -2.2008590     1.4410770     0.9595580
  H       -3.4037750     1.5784440    -1.2516650
  H       -3.9506210     0.0965540    -2.0538340
  H       -4.7289130     0.6299820    -0.5557020
  H        0.4812350     1.7322070     0.3831320
  H        1.8065840    -2.3037040    -0.2799060
  H        2.8010350     2.5405970     0.1152150
  H        4.1326410    -1.4960120    -0.5534930
  H        4.6413930     0.9324010    -0.3562540
units angstrom
no_reorient  #important for SAPT in psi4, default
symmetry c1  #important for SAPT in psi4, default
}

set PROPERTIES_ORIGIN ["COM"]
properties('MP2/aug-cc-pvtz', properties = ['dipole'])
--------------------------------------------------------------------------

    Molecular point group: c1
  Charge       = 0
  Multiplicity = 1
  Basis Set: AUG-CC-PVTZ
    Blend: AUG-CC-PVTZ
  Basis Set: (AUG-CC-PVTZ AUX)
    Blend: AUG-CC-PVTZ-JKFIT

    Orbital Energies [Eh]
    ---------------------

    Doubly Occupied:

       1A    -11.236654     2A    -11.233656     3A    -11.232929
       4A    -11.229045     5A    -11.228774     6A    -11.228524
       7A    -11.228258     8A    -11.222309     9A    -11.217008
      10A    -11.215061    11A    -11.214728    12A    -11.211462
      13A     -1.156225    14A     -1.125417    15A     -1.040556
      16A     -1.008547    17A     -0.990122    18A     -0.954291
      19A     -0.893816    20A     -0.826489    21A     -0.816424
      22A     -0.759649    23A     -0.757770    24A     -0.690140
      25A     -0.660778    26A     -0.635211    27A     -0.622708
      28A     -0.606968    29A     -0.586459    30A     -0.580120
      31A     -0.573700    32A     -0.557267    33A     -0.528519
      34A     -0.511091    35A     -0.510526    36A     -0.490082
      37A     -0.476613    38A     -0.465447    39A     -0.461675
      40A     -0.451227    41A     -0.446916    42A     -0.444615
      43A     -0.332421    44A     -0.319015

  @DF-RHF Final Energy:  -463.89337439435531

   => Energetics <=

    Nuclear Repulsion Energy =            676.0771882031286850
    One-Electron Energy =               -1967.9827055808104888
    Two-Electron Energy =                 828.0121429833266120
    Total Energy =                       -463.8933743943553054
  Basis Set: (AUG-CC-PVTZ AUX)
    Blend: AUG-CC-PVTZ-RI
    Molecular point group: c1

    Geometry (in Angstrom), charge = 0, multiplicity = 1:

       Center              X                  Y                   Z               Mass
    ------------   -----------------  -----------------  -----------------  -----------------
         C           -0.514247880016    -0.829978618206     0.215316683006    12.000000000000
         C           -2.823158280016    -0.205712018206    -0.281765216994    12.000000000000
         C           -1.444379880016    -0.335487618206    -0.916284316994    12.000000000000
         C           -1.217336880016    -0.372812618206     1.532159683006    12.000000000000
         C           -2.485569880016     0.375409381794     1.093303683006    12.000000000000
         C            0.904612119984    -0.343773618206     0.067781683006    12.000000000000
         C           -3.841292880016     0.564115381794    -1.080713316994    12.000000000000
         C            1.206880119984     1.022917381794     0.174767683006    12.000000000000
         C            1.950739119984    -1.235640618206    -0.197710316994    12.000000000000
         C            2.515238119984     1.481592381794     0.024513683006    12.000000000000
         C            3.263034119984    -0.781745618206    -0.350957316994    12.000000000000
         C            3.549290119984     0.579538381794    -0.240910316994    12.000000000000
         H           -0.495826880016    -1.927264618206     0.190540683006     1.007825032230
         H           -3.213112880016    -1.247349618206    -0.108970316994     1.007825032230
         H           -1.128988880016     0.662737381794    -1.249048316994     1.007825032230
         H           -1.416730880016    -0.992943618206    -1.792881316994     1.007825032230
         H           -0.557850880016     0.243122381794     2.150940683006     1.007825032230
         H           -1.483935880016    -1.250516618206     2.131147683006     1.007825032230
         H           -3.304040880016     0.297429381794     1.817831683006     1.007825032230
         H           -2.272504880016     1.444918381794     0.957673683006     1.007825032230
         H           -3.475420880016     1.582285381794    -1.253549316994     1.007825032230
         H           -4.022266880016     0.100395381794    -2.055718316994     1.007825032230
         H           -4.800558880016     0.633823381794    -0.557586316994     1.007825032230
         H            0.409589119984     1.736048381794     0.381247683006     1.007825032230
         H            1.734938119984    -2.299862618206    -0.281790316994     1.007825032230
         H            2.729389119984     2.544438381794     0.113330683006     1.007825032230
         H            4.060995119984    -1.492170618206    -0.555377316994     1.007825032230
         H            4.569747119984     0.936242381794    -0.358138316994     1.007825032230

  Basis Set: AUG-CC-PVTZ
    Blend: AUG-CC-PVTZ
  Basis Set: (AUG-CC-PVTZ AUX)
    Blend: AUG-CC-PVTZ-JKFIT
	 Reference Energy          =    -463.8933743943553054 [Eh]
	 Singles Energy            =      -0.0000000000000000 [Eh]
	 Same-Spin Energy          =      -0.5196490170209047 [Eh]
	 Opposite-Spin Energy      =      -1.7266138173967196 [Eh]
	 Correlation Energy        =      -2.2462628344176245 [Eh]
	 Total Energy              =    -466.1396372287729264 [Eh]

	 ================> DF-SCS-MP2 Energies <==================
	-----------------------------------------------------------
	 SCS Same-Spin Scale       =       0.3333333333333333 [-]
	 SCS Opposite-Spin Scale   =       1.2000000000000000 [-]
	 SCS Same-Spin Energy      =      -0.1732163390069682 [Eh]
	 SCS Opposite-Spin Energy  =      -2.0719365808760632 [Eh]
	 SCS Correlation Energy    =      -2.2451529198830316 [Eh]
	 SCS Total Energy          =    -466.1385273142383312 [Eh]
	-----------------------------------------------------------

  Dipole Moment: [D]
     X:    -0.5609      Y:    -0.1859      Z:     0.0307     Total:     0.5917

*** Psi4 exiting successfully. Buy a developer a beer!
