                               Psi4 1.4a3.dev225

  ==> Input File <==

--------------------------------------------------------------------------
#psi4
#
memory 32 gb

molecule  {
0 1
  C       -0.4426020    -0.8338200     0.2172010
  C       -2.7550300    -0.2335230    -0.2686280
  C       -1.3509688    -0.2383958    -0.8830388
  C       -1.1456910    -0.3766540     1.5340440
  C       -2.4139240     0.3715680     1.0951880
  C        0.9762580    -0.3476150     0.0696660
  C       -3.7696470     0.5602740    -1.0788290
  C        1.2785260     1.0190760     0.1766520
  C        2.0223850    -1.2394820    -0.1958260
  C        2.5868840     1.4777510     0.0263980
  C        3.3346800    -0.7855870    -0.3490730
  C        3.6209360     0.5756970    -0.2390260
  H       -0.4241810    -1.9311060     0.1924250
  H       -3.1414670    -1.2511910    -0.1070860
  H       -1.0573430     0.6588960    -1.2471640
  H       -1.3450850    -0.9967850    -1.7909970
  H       -0.4862050     0.2392810     2.1528250
  H       -1.4122900    -1.2543580     2.1330320
  H       -3.2323950     0.2935880     1.8197160
  H       -2.2008590     1.4410770     0.9595580
  H       -3.4037750     1.5784440    -1.2516650
  H       -3.9506210     0.0965540    -2.0538340
  H       -4.7289130     0.6299820    -0.5557020
  H        0.4812350     1.7322070     0.3831320
  H        1.8065840    -2.3037040    -0.2799060
  H        2.8010350     2.5405970     0.1152150
  H        4.1326410    -1.4960120    -0.5534930
  H        4.6413930     0.9324010    -0.3562540
units angstrom
no_reorient  #important for SAPT in psi4, default
symmetry c1  #important for SAPT in psi4, default
}

set PROPERTIES_ORIGIN ["COM"]
properties('MP2/aug-cc-pvtz', properties = ['dipole'])
--------------------------------------------------------------------------

    Molecular point group: c1
  Charge       = 0
  Multiplicity = 1
  Basis Set: AUG-CC-PVTZ
    Blend: AUG-CC-PVTZ
  Basis Set: (AUG-CC-PVTZ AUX)
    Blend: AUG-CC-PVTZ-JKFIT

    Orbital Energies [Eh]
    ---------------------

    Doubly Occupied:

       1A    -11.236582     2A    -11.233950     3A    -11.233068
       4A    -11.229396     5A    -11.228905     6A    -11.228604
       7A    -11.228050     8A    -11.221918     9A    -11.216114
      10A    -11.215640    11A    -11.214421    12A    -11.211689
      13A     -1.157110    14A     -1.126307    15A     -1.040192
      16A     -1.008662    17A     -0.988686    18A     -0.952462
      19A     -0.893819    20A     -0.827402    21A     -0.815809
      22A     -0.770408    23A     -0.756970    24A     -0.690158
      25A     -0.653654    26A     -0.635951    27A     -0.624246
      28A     -0.607159    29A     -0.589387    30A     -0.583210
      31A     -0.576043    32A     -0.553555    33A     -0.533189
      34A     -0.512116    35A     -0.509087    36A     -0.491722
      37A     -0.473471    38A     -0.465155    39A     -0.460474
      40A     -0.454727    41A     -0.450756    42A     -0.434735
      43A     -0.332687    44A     -0.318276

  @DF-RHF Final Energy:  -463.88088399771334

   => Energetics <=

    Nuclear Repulsion Energy =            676.6088811978995636
    One-Electron Energy =               -1969.0076880339868239
    Two-Electron Energy =                 828.5179228383739201
    Total Energy =                       -463.8808839977133402
  Basis Set: (AUG-CC-PVTZ AUX)
    Blend: AUG-CC-PVTZ-RI
    Molecular point group: c1

    Geometry (in Angstrom), charge = 0, multiplicity = 1:

       Center              X                  Y                   Z               Mass
    ------------   -----------------  -----------------  -----------------  -----------------
         C           -0.515615379943    -0.835746374917     0.212123124476    12.000000000000
         C           -2.828043379943    -0.235449374917    -0.273705875524    12.000000000000
         C           -1.423982179943    -0.240322174917    -0.888116675524    12.000000000000
         C           -1.218704379943    -0.378580374917     1.528966124476    12.000000000000
         C           -2.486937379943     0.369641625083     1.090110124476    12.000000000000
         C            0.903244620057    -0.349541374917     0.064588124476    12.000000000000
         C           -3.842660379943     0.558347625083    -1.083906875524    12.000000000000
         C            1.205512620057     1.017149625083     0.171574124476    12.000000000000
         C            1.949371620057    -1.241408374917    -0.200903875524    12.000000000000
         C            2.513870620057     1.475824625083     0.021320124476    12.000000000000
         C            3.261666620057    -0.787513374917    -0.354150875524    12.000000000000
         C            3.547922620057     0.573770625083    -0.244103875524    12.000000000000
         H           -0.497194379943    -1.933032374917     0.187347124476     1.007825032230
         H           -3.214480379943    -1.253117374917    -0.112163875524     1.007825032230
         H           -1.130356379943     0.656969625083    -1.252241875524     1.007825032230
         H           -1.418098379943    -0.998711374917    -1.796074875524     1.007825032230
         H           -0.559218379943     0.237354625083     2.147747124476     1.007825032230
         H           -1.485303379943    -1.256284374917     2.127954124476     1.007825032230
         H           -3.305408379943     0.291661625083     1.814638124476     1.007825032230
         H           -2.273872379943     1.439150625083     0.954480124476     1.007825032230
         H           -3.476788379943     1.576517625083    -1.256742875524     1.007825032230
         H           -4.023634379943     0.094627625083    -2.058911875524     1.007825032230
         H           -4.801926379943     0.628055625083    -0.560779875524     1.007825032230
         H            0.408221620057     1.730280625083     0.378054124476     1.007825032230
         H            1.733570620057    -2.305630374917    -0.284983875524     1.007825032230
         H            2.728021620057     2.538670625083     0.110137124476     1.007825032230
         H            4.059627620057    -1.497938374917    -0.558570875524     1.007825032230
         H            4.568379620057     0.930474625083    -0.361331875524     1.007825032230

  Basis Set: AUG-CC-PVTZ
    Blend: AUG-CC-PVTZ
  Basis Set: (AUG-CC-PVTZ AUX)
    Blend: AUG-CC-PVTZ-JKFIT
	 Reference Energy          =    -463.8808839977133402 [Eh]
	 Singles Energy            =      -0.0000000000000000 [Eh]
	 Same-Spin Energy          =      -0.5198056444000946 [Eh]
	 Opposite-Spin Energy      =      -1.7271548786392452 [Eh]
	 Correlation Energy        =      -2.2469605230393399 [Eh]
	 Total Energy              =    -466.1278445207526602 [Eh]

	 ================> DF-SCS-MP2 Energies <==================
	-----------------------------------------------------------
	 SCS Same-Spin Scale       =       0.3333333333333333 [-]
	 SCS Opposite-Spin Scale   =       1.2000000000000000 [-]
	 SCS Same-Spin Energy      =      -0.1732685481333648 [Eh]
	 SCS Opposite-Spin Energy  =      -2.0725858543670941 [Eh]
	 SCS Correlation Energy    =      -2.2458544025004588 [Eh]
	 SCS Total Energy          =    -466.1267384002138101 [Eh]
	-----------------------------------------------------------

  Dipole Moment: [D]
     X:    -0.5725      Y:    -0.1536      Z:     0.0704     Total:     0.5969

*** Psi4 exiting successfully. Buy a developer a beer!
