                               Psi4 1.4a3.dev225

  ==> Input File <==

--------------------------------------------------------------------------
#psi4
#
memory 32 gb

molecule  {
0 1
  C       -0.4453696    -0.8597761     0.2250164
  C       -2.7550300    -0.2335230    -0.2686280
  C       -1.3727340    -0.3393290    -0.9144000
  C       -1.1456910    -0.3766540     1.5340440
  C       -2.4139240     0.3715680     1.0951880
  C        0.9762580    -0.3476150     0.0696660
  C       -3.7696470     0.5602740    -1.0788290
  C        1.2785260     1.0190760     0.1766520
  C        2.0223850    -1.2394820    -0.1958260
  C        2.5868840     1.4777510     0.0263980
  C        3.3346800    -0.7855870    -0.3490730
  C        3.6209360     0.5756970    -0.2390260
  H       -0.4241810    -1.9311060     0.1924250
  H       -3.1414670    -1.2511910    -0.1070860
  H       -1.0573430     0.6588960    -1.2471640
  H       -1.3450850    -0.9967850    -1.7909970
  H       -0.4862050     0.2392810     2.1528250
  H       -1.4122900    -1.2543580     2.1330320
  H       -3.2323950     0.2935880     1.8197160
  H       -2.2008590     1.4410770     0.9595580
  H       -3.4037750     1.5784440    -1.2516650
  H       -3.9506210     0.0965540    -2.0538340
  H       -4.7289130     0.6299820    -0.5557020
  H        0.4812350     1.7322070     0.3831320
  H        1.8065840    -2.3037040    -0.2799060
  H        2.8010350     2.5405970     0.1152150
  H        4.1326410    -1.4960120    -0.5534930
  H        4.6413930     0.9324010    -0.3562540
units angstrom
no_reorient  #important for SAPT in psi4, default
symmetry c1  #important for SAPT in psi4, default
}

set PROPERTIES_ORIGIN ["COM"]
properties('MP2/aug-cc-pvtz', properties = ['dipole'])
--------------------------------------------------------------------------

    Molecular point group: c1
  Charge       = 0
  Multiplicity = 1
  Basis Set: AUG-CC-PVTZ
    Blend: AUG-CC-PVTZ
  Basis Set: (AUG-CC-PVTZ AUX)
    Blend: AUG-CC-PVTZ-JKFIT

    Orbital Energies [Eh]
    ---------------------

    Doubly Occupied:

       1A    -11.236984     2A    -11.233570     3A    -11.232595
       4A    -11.228619     5A    -11.228427     6A    -11.227759
       7A    -11.227587     8A    -11.221009     9A    -11.216607
      10A    -11.215225    11A    -11.214904    12A    -11.211489
      13A     -1.154980    14A     -1.124164    15A     -1.038584
      16A     -1.008221    17A     -0.988349    18A     -0.952797
      19A     -0.893003    20A     -0.826426    21A     -0.815168
      22A     -0.763479    23A     -0.758846    24A     -0.690095
      25A     -0.660149    26A     -0.634174    27A     -0.621704
      28A     -0.606322    29A     -0.586724    30A     -0.579771
      31A     -0.574358    32A     -0.555623    33A     -0.528694
      34A     -0.511181    35A     -0.509059    36A     -0.490131
      37A     -0.474086    38A     -0.462807    39A     -0.461462
      40A     -0.455500    41A     -0.451806    42A     -0.442437
      43A     -0.332185    44A     -0.318292

  @DF-RHF Final Energy:  -463.89394484437923

   => Energetics <=

    Nuclear Repulsion Energy =            675.6192229522406478
    One-Electron Energy =               -1967.0956261035576063
    Two-Electron Energy =                 827.5824583069376104
    Total Energy =                       -463.8939448443792344
  Basis Set: (AUG-CC-PVTZ AUX)
    Blend: AUG-CC-PVTZ-RI
    Molecular point group: c1

    Geometry (in Angstrom), charge = 0, multiplicity = 1:

       Center              X                  Y                   Z               Mass
    ------------   -----------------  -----------------  -----------------  -----------------
         C           -0.516544458592    -0.852193218441     0.221703078707    12.000000000000
         C           -2.826204858592    -0.225940118441    -0.271941321293    12.000000000000
         C           -1.443908858592    -0.331746118441    -0.917713321293    12.000000000000
         C           -1.216865858592    -0.369071118441     1.530730678707    12.000000000000
         C           -2.485098858592     0.379150881559     1.091874678707    12.000000000000
         C            0.905083141408    -0.340032118441     0.066352678707    12.000000000000
         C           -3.840821858592     0.567856881559    -1.082142321293    12.000000000000
         C            1.207351141408     1.026658881559     0.173338678707    12.000000000000
         C            1.951210141408    -1.231899118441    -0.199139321293    12.000000000000
         C            2.515709141408     1.485333881559     0.023084678707    12.000000000000
         C            3.263505141408    -0.778004118441    -0.352386321293    12.000000000000
         C            3.549761141408     0.583279881559    -0.242339321293    12.000000000000
         H           -0.495355858592    -1.923523118441     0.189111678707     1.007825032230
         H           -3.212641858592    -1.243608118441    -0.110399321293     1.007825032230
         H           -1.128517858592     0.666478881559    -1.250477321293     1.007825032230
         H           -1.416259858592    -0.989202118441    -1.794310321293     1.007825032230
         H           -0.557379858592     0.246863881559     2.149511678707     1.007825032230
         H           -1.483464858592    -1.246775118441     2.129718678707     1.007825032230
         H           -3.303569858592     0.301170881559     1.816402678707     1.007825032230
         H           -2.272033858592     1.448659881559     0.956244678707     1.007825032230
         H           -3.474949858592     1.586026881559    -1.254978321293     1.007825032230
         H           -4.021795858592     0.104136881559    -2.057147321293     1.007825032230
         H           -4.800087858592     0.637564881559    -0.559015321293     1.007825032230
         H            0.410060141408     1.739789881559     0.379818678707     1.007825032230
         H            1.735409141408    -2.296121118441    -0.283219321293     1.007825032230
         H            2.729860141408     2.548179881559     0.111901678707     1.007825032230
         H            4.061466141408    -1.488429118441    -0.556806321293     1.007825032230
         H            4.570218141408     0.939983881559    -0.359567321293     1.007825032230

  Basis Set: AUG-CC-PVTZ
    Blend: AUG-CC-PVTZ
  Basis Set: (AUG-CC-PVTZ AUX)
    Blend: AUG-CC-PVTZ-JKFIT
	 Reference Energy          =    -463.8939448443792344 [Eh]
	 Singles Energy            =      -0.0000000000000000 [Eh]
	 Same-Spin Energy          =      -0.5193379842993560 [Eh]
	 Opposite-Spin Energy      =      -1.7262336855117570 [Eh]
	 Correlation Energy        =      -2.2455716698111132 [Eh]
	 Total Energy              =    -466.1395165141903476 [Eh]

	 ================> DF-SCS-MP2 Energies <==================
	-----------------------------------------------------------
	 SCS Same-Spin Scale       =       0.3333333333333333 [-]
	 SCS Opposite-Spin Scale   =       1.2000000000000000 [-]
	 SCS Same-Spin Energy      =      -0.1731126614331187 [Eh]
	 SCS Opposite-Spin Energy  =      -2.0714804226141084 [Eh]
	 SCS Correlation Energy    =      -2.2445930840472270 [Eh]
	 SCS Total Energy          =    -466.1385379284264445 [Eh]
	-----------------------------------------------------------

  Dipole Moment: [D]
     X:    -0.5818      Y:    -0.2225      Z:     0.0399     Total:     0.6242

*** Psi4 exiting successfully. Buy a developer a beer!
