                               Psi4 1.4a3.dev225

  ==> Input File <==

--------------------------------------------------------------------------
#psi4
#
memory 32 gb

molecule  {
0 1
  C       -0.4426020    -0.8338200     0.2172010
  C       -2.7550300    -0.2335230    -0.2686280
  C       -1.3727340    -0.3393290    -0.9144000
  C       -1.1456910    -0.3766540     1.5340440
  C       -2.4139240     0.3715680     1.0951880
  C        0.9762580    -0.3476150     0.0696660
  C       -3.7696470     0.5602740    -1.0788290
  C        1.2785260     1.0190760     0.1766520
  C        2.0223850    -1.2394820    -0.1958260
  C        2.5868840     1.4777510     0.0263980
  C        3.3346800    -0.7855870    -0.3490730
  C        3.6209360     0.5756970    -0.2390260
  H       -0.4208248    -2.1310269     0.1879109
  H       -3.1414670    -1.2511910    -0.1070860
  H       -1.0573430     0.6588960    -1.2471640
  H       -1.3450850    -0.9967850    -1.7909970
  H       -0.4862050     0.2392810     2.1528250
  H       -1.4122900    -1.2543580     2.1330320
  H       -3.2323950     0.2935880     1.8197160
  H       -2.2008590     1.4410770     0.9595580
  H       -3.4037750     1.5784440    -1.2516650
  H       -3.9506210     0.0965540    -2.0538340
  H       -4.7289130     0.6299820    -0.5557020
  H        0.4812350     1.7322070     0.3831320
  H        1.8065840    -2.3037040    -0.2799060
  H        2.8010350     2.5405970     0.1152150
  H        4.1326410    -1.4960120    -0.5534930
  H        4.6413930     0.9324010    -0.3562540
units angstrom
no_reorient  #important for SAPT in psi4, default
symmetry c1  #important for SAPT in psi4, default
}

set PROPERTIES_ORIGIN ["COM"]
properties('MP2/aug-cc-pvtz', properties = ['dipole'])
--------------------------------------------------------------------------

    Molecular point group: c1
  Charge       = 0
  Multiplicity = 1
  Basis Set: AUG-CC-PVTZ
    Blend: AUG-CC-PVTZ
  Basis Set: (AUG-CC-PVTZ AUX)
    Blend: AUG-CC-PVTZ-JKFIT

    Orbital Energies [Eh]
    ---------------------

    Doubly Occupied:

       1A    -11.251976     2A    -11.238587     3A    -11.234415
       4A    -11.233026     5A    -11.230168     6A    -11.229591
       7A    -11.228272     8A    -11.221857     9A    -11.218743
      10A    -11.216969    11A    -11.216044    12A    -11.212222
      13A     -1.155974    14A     -1.125148    15A     -1.038359
      16A     -1.008980    17A     -0.989352    18A     -0.952865
      19A     -0.890899    20A     -0.825606    21A     -0.817203
      22A     -0.764336    23A     -0.748664    24A     -0.687492
      25A     -0.657663    26A     -0.635254    27A     -0.621216
      28A     -0.606417    29A     -0.585724    30A     -0.580531
      31A     -0.566607    32A     -0.556359    33A     -0.528644
      34A     -0.511528    35A     -0.509936    36A     -0.489941
      37A     -0.476784    38A     -0.464734    39A     -0.462909
      40A     -0.454202    41A     -0.445484    42A     -0.431458
      43A     -0.332826    44A     -0.319851

  @DF-RHF Final Energy:  -463.87415435666594

   => Energetics <=

    Nuclear Repulsion Energy =            674.9122099267683552
    One-Electron Energy =               -1965.6230927698918549
    Two-Electron Energy =                 826.8367284864575595
    Total Energy =                       -463.8741543566659402
  Basis Set: (AUG-CC-PVTZ AUX)
    Blend: AUG-CC-PVTZ-RI
    Molecular point group: c1

    Geometry (in Angstrom), charge = 0, multiplicity = 1:

       Center              X                  Y                   Z               Mass
    ------------   -----------------  -----------------  -----------------  -----------------
         C           -0.514005390155    -0.826924005403     0.214501787059    12.000000000000
         C           -2.826433390155    -0.226627005403    -0.271327212941    12.000000000000
         C           -1.444137390155    -0.332433005403    -0.917099212941    12.000000000000
         C           -1.217094390155    -0.369758005403     1.531344787059    12.000000000000
         C           -2.485327390155     0.378463994597     1.092488787059    12.000000000000
         C            0.904854609845    -0.340719005403     0.066966787059    12.000000000000
         C           -3.841050390155     0.567169994597    -1.081528212941    12.000000000000
         C            1.207122609845     1.025971994597     0.173952787059    12.000000000000
         C            1.950981609845    -1.232586005403    -0.198525212941    12.000000000000
         C            2.515480609845     1.484646994597     0.023698787059    12.000000000000
         C            3.263276609845    -0.778691005403    -0.351772212941    12.000000000000
         C            3.549532609845     0.582592994597    -0.241725212941    12.000000000000
         H           -0.492228190155    -2.124130905403     0.185211687059     1.007825032230
         H           -3.212870390155    -1.244295005403    -0.109785212941     1.007825032230
         H           -1.128746390155     0.665791994597    -1.249863212941     1.007825032230
         H           -1.416488390155    -0.989889005403    -1.793696212941     1.007825032230
         H           -0.557608390155     0.246176994597     2.150125787059     1.007825032230
         H           -1.483693390155    -1.247462005403     2.130332787059     1.007825032230
         H           -3.303798390155     0.300483994597     1.817016787059     1.007825032230
         H           -2.272262390155     1.447972994597     0.956858787059     1.007825032230
         H           -3.475178390155     1.585339994597    -1.254364212941     1.007825032230
         H           -4.022024390155     0.103449994597    -2.056533212941     1.007825032230
         H           -4.800316390155     0.636877994597    -0.558401212941     1.007825032230
         H            0.409831609845     1.739102994597     0.380432787059     1.007825032230
         H            1.735180609845    -2.296808005403    -0.282605212941     1.007825032230
         H            2.729631609845     2.547492994597     0.112515787059     1.007825032230
         H            4.061237609845    -1.489116005403    -0.556192212941     1.007825032230
         H            4.569989609845     0.939296994597    -0.358953212941     1.007825032230

  Basis Set: AUG-CC-PVTZ
    Blend: AUG-CC-PVTZ
  Basis Set: (AUG-CC-PVTZ AUX)
    Blend: AUG-CC-PVTZ-JKFIT
	 Reference Energy          =    -463.8741543566659402 [Eh]
	 Singles Energy            =      -0.0000000000000000 [Eh]
	 Same-Spin Energy          =      -0.5198595173389824 [Eh]
	 Opposite-Spin Energy      =      -1.7284794576568845 [Eh]
	 Correlation Energy        =      -2.2483389749958667 [Eh]
	 Total Energy              =    -466.1224933316618149 [Eh]

	 ================> DF-SCS-MP2 Energies <==================
	-----------------------------------------------------------
	 SCS Same-Spin Scale       =       0.3333333333333333 [-]
	 SCS Opposite-Spin Scale   =       1.2000000000000000 [-]
	 SCS Same-Spin Energy      =      -0.1732865057796608 [Eh]
	 SCS Opposite-Spin Energy  =      -2.0741753491882613 [Eh]
	 SCS Correlation Energy    =      -2.2474618549679222 [Eh]
	 SCS Total Energy          =    -466.1216162116338637 [Eh]
	-----------------------------------------------------------

  Dipole Moment: [D]
     X:    -0.5641      Y:    -0.0356      Z:     0.0395     Total:     0.5666

*** Psi4 exiting successfully. Buy a developer a beer!
