                               Psi4 1.4a3.dev225

  ==> Input File <==

--------------------------------------------------------------------------
#psi4
#
memory 32 gb

molecule  {
0 1
  C       -0.4426020    -0.8338200     0.2172010
  C       -2.7550300    -0.2335230    -0.2686280
  C       -1.3727340    -0.3393290    -0.9144000
  C       -1.1456910    -0.3766540     1.5340440
  C       -2.4139240     0.3715680     1.0951880
  C        0.9762580    -0.3476150     0.0696660
  C       -3.7696470     0.5602740    -1.0788290
  C        1.2785260     1.0190760     0.1766520
  C        2.0223850    -1.2394820    -0.1958260
  C        2.5868840     1.4777510     0.0263980
  C        3.3346800    -0.7855870    -0.3490730
  C        3.6209360     0.5756970    -0.2390260
  H       -0.4275372    -1.7311851     0.1969391
  H       -3.1414670    -1.2511910    -0.1070860
  H       -1.0573430     0.6588960    -1.2471640
  H       -1.3450850    -0.9967850    -1.7909970
  H       -0.4862050     0.2392810     2.1528250
  H       -1.4122900    -1.2543580     2.1330320
  H       -3.2323950     0.2935880     1.8197160
  H       -2.2008590     1.4410770     0.9595580
  H       -3.4037750     1.5784440    -1.2516650
  H       -3.9506210     0.0965540    -2.0538340
  H       -4.7289130     0.6299820    -0.5557020
  H        0.4812350     1.7322070     0.3831320
  H        1.8065840    -2.3037040    -0.2799060
  H        2.8010350     2.5405970     0.1152150
  H        4.1326410    -1.4960120    -0.5534930
  H        4.6413930     0.9324010    -0.3562540
units angstrom
no_reorient  #important for SAPT in psi4, default
symmetry c1  #important for SAPT in psi4, default
}

set PROPERTIES_ORIGIN ["COM"]
properties('MP2/aug-cc-pvtz', properties = ['dipole'])
--------------------------------------------------------------------------

    Molecular point group: c1
  Charge       = 0
  Multiplicity = 1
  Basis Set: AUG-CC-PVTZ
    Blend: AUG-CC-PVTZ
  Basis Set: (AUG-CC-PVTZ AUX)
    Blend: AUG-CC-PVTZ-JKFIT

    Orbital Energies [Eh]
    ---------------------

    Doubly Occupied:

       1A    -11.235242     2A    -11.233120     3A    -11.232846
       4A    -11.228576     5A    -11.228212     6A    -11.227361
       7A    -11.220880     8A    -11.215678     9A    -11.214320
      10A    -11.213570    11A    -11.211289    12A    -11.202851
      13A     -1.158175    14A     -1.126003    15A     -1.043778
      16A     -1.008202    17A     -0.988485    18A     -0.957983
      19A     -0.897661    20A     -0.828991    21A     -0.815617
      22A     -0.774715    23A     -0.762602    24A     -0.694623
      25A     -0.663550    26A     -0.635850    27A     -0.623037
      28A     -0.607441    29A     -0.588693    30A     -0.580187
      31A     -0.578313    32A     -0.555960    33A     -0.529056
      34A     -0.511667    35A     -0.509508    36A     -0.490656
      37A     -0.474799    38A     -0.464971    39A     -0.462712
      40A     -0.459210    41A     -0.452147    42A     -0.443338
      43A     -0.332133    44A     -0.318240

  @DF-RHF Final Energy:  -463.86271494765481

   => Energetics <=

    Nuclear Repulsion Energy =            677.1866478528251037
    One-Electron Energy =               -1970.0942326126166790
    Two-Electron Energy =                 829.0448698121366533
    Total Energy =                       -463.8627149476548084
  Basis Set: (AUG-CC-PVTZ AUX)
    Blend: AUG-CC-PVTZ-RI
    Molecular point group: c1

    Geometry (in Angstrom), charge = 0, multiplicity = 1:

       Center              X                  Y                   Z               Mass
    ------------   -----------------  -----------------  -----------------  -----------------
         C           -0.513963142435    -0.829440602252     0.214444963736    12.000000000000
         C           -2.826391142435    -0.229143602252    -0.271384036264    12.000000000000
         C           -1.444095142435    -0.334949602252    -0.917156036264    12.000000000000
         C           -1.217052142435    -0.372274602252     1.531287963736    12.000000000000
         C           -2.485285142435     0.375947397748     1.092431963736    12.000000000000
         C            0.904896857565    -0.343235602252     0.066909963736    12.000000000000
         C           -3.841008142435     0.564653397748    -1.081585036264    12.000000000000
         C            1.207164857565     1.023455397748     0.173895963736    12.000000000000
         C            1.951023857565    -1.235102602252    -0.198582036264    12.000000000000
         C            2.515522857565     1.482130397748     0.023641963736    12.000000000000
         C            3.263318857565    -0.781207602252    -0.351829036264    12.000000000000
         C            3.549574857565     0.580076397748    -0.241782036264    12.000000000000
         H           -0.498898342435    -1.726805702252     0.194183063736     1.007825032230
         H           -3.212828142435    -1.246811602252    -0.109842036264     1.007825032230
         H           -1.128704142435     0.663275397748    -1.249920036264     1.007825032230
         H           -1.416446142435    -0.992405602252    -1.793753036264     1.007825032230
         H           -0.557566142435     0.243660397748     2.150068963736     1.007825032230
         H           -1.483651142435    -1.249978602252     2.130275963736     1.007825032230
         H           -3.303756142435     0.297967397748     1.816959963736     1.007825032230
         H           -2.272220142435     1.445456397748     0.956801963736     1.007825032230
         H           -3.475136142435     1.582823397748    -1.254421036264     1.007825032230
         H           -4.021982142435     0.100933397748    -2.056590036264     1.007825032230
         H           -4.800274142435     0.634361397748    -0.558458036264     1.007825032230
         H            0.409873857565     1.736586397748     0.380375963736     1.007825032230
         H            1.735222857565    -2.299324602252    -0.282662036264     1.007825032230
         H            2.729673857565     2.544976397748     0.112458963736     1.007825032230
         H            4.061279857565    -1.491632602252    -0.556249036264     1.007825032230
         H            4.570031857565     0.936780397748    -0.359010036264     1.007825032230

  Basis Set: AUG-CC-PVTZ
    Blend: AUG-CC-PVTZ
  Basis Set: (AUG-CC-PVTZ AUX)
    Blend: AUG-CC-PVTZ-JKFIT
	 Reference Energy          =    -463.8627149476548084 [Eh]
	 Singles Energy            =      -0.0000000000000000 [Eh]
	 Same-Spin Energy          =      -0.5192760164367108 [Eh]
	 Opposite-Spin Energy      =      -1.7253100150309923 [Eh]
	 Correlation Energy        =      -2.2445860314677031 [Eh]
	 Total Energy              =    -466.1073009791224990 [Eh]

	 ================> DF-SCS-MP2 Energies <==================
	-----------------------------------------------------------
	 SCS Same-Spin Scale       =       0.3333333333333333 [-]
	 SCS Opposite-Spin Scale   =       1.2000000000000000 [-]
	 SCS Same-Spin Energy      =      -0.1730920054789036 [Eh]
	 SCS Opposite-Spin Energy  =      -2.0703720180371907 [Eh]
	 SCS Correlation Energy    =      -2.2434640235160943 [Eh]
	 SCS Total Energy          =    -466.1061789711708911 [Eh]
	-----------------------------------------------------------

  Dipole Moment: [D]
     X:    -0.5738      Y:    -0.2891      Z:     0.0354     Total:     0.6435

*** Psi4 exiting successfully. Buy a developer a beer!
