                               Psi4 1.4a3.dev225

  ==> Input File <==

--------------------------------------------------------------------------
#psi4
#
memory 32 gb

molecule  {
0 1
  C       -0.4426020    -0.8338200     0.2172010
  C       -2.7972870    -0.2009610    -0.2714597
  C       -1.3727340    -0.3393290    -0.9144000
  C       -1.1456910    -0.3766540     1.5340440
  C       -2.4139240     0.3715680     1.0951880
  C        0.9762580    -0.3476150     0.0696660
  C       -3.7696470     0.5602740    -1.0788290
  C        1.2785260     1.0190760     0.1766520
  C        2.0223850    -1.2394820    -0.1958260
  C        2.5868840     1.4777510     0.0263980
  C        3.3346800    -0.7855870    -0.3490730
  C        3.6209360     0.5756970    -0.2390260
  H       -0.4241810    -1.9311060     0.1924250
  H       -3.1414670    -1.2511910    -0.1070860
  H       -1.0573430     0.6588960    -1.2471640
  H       -1.3450850    -0.9967850    -1.7909970
  H       -0.4862050     0.2392810     2.1528250
  H       -1.4122900    -1.2543580     2.1330320
  H       -3.2323950     0.2935880     1.8197160
  H       -2.2008590     1.4410770     0.9595580
  H       -3.4037750     1.5784440    -1.2516650
  H       -3.9506210     0.0965540    -2.0538340
  H       -4.7289130     0.6299820    -0.5557020
  H        0.4812350     1.7322070     0.3831320
  H        1.8065840    -2.3037040    -0.2799060
  H        2.8010350     2.5405970     0.1152150
  H        4.1326410    -1.4960120    -0.5534930
  H        4.6413930     0.9324010    -0.3562540
units angstrom
no_reorient  #important for SAPT in psi4, default
symmetry c1  #important for SAPT in psi4, default
}

set PROPERTIES_ORIGIN ["COM"]
properties('MP2/aug-cc-pvtz', properties = ['dipole'])
--------------------------------------------------------------------------

    Molecular point group: c1
  Charge       = 0
  Multiplicity = 1
  Basis Set: AUG-CC-PVTZ
    Blend: AUG-CC-PVTZ
  Basis Set: (AUG-CC-PVTZ AUX)
    Blend: AUG-CC-PVTZ-JKFIT

    Orbital Energies [Eh]
    ---------------------

    Doubly Occupied:

       1A    -11.236619     2A    -11.233566     3A    -11.232843
       4A    -11.228955     5A    -11.228609     6A    -11.228430
       7A    -11.228167     8A    -11.222461     9A    -11.217493
      10A    -11.215860    11A    -11.215421    12A    -11.210647
      13A     -1.155246    14A     -1.122984    15A     -1.042519
      16A     -1.008479    17A     -0.992545    18A     -0.952031
      19A     -0.893002    20A     -0.826496    21A     -0.816326
      22A     -0.760483    23A     -0.756792    24A     -0.689912
      25A     -0.658890    26A     -0.634899    27A     -0.622784
      28A     -0.607109    29A     -0.587974    30A     -0.580318
      31A     -0.573799    32A     -0.558309    33A     -0.529774
      34A     -0.511118    35A     -0.510744    36A     -0.490697
      37A     -0.477130    38A     -0.469485    39A     -0.461016
      40A     -0.451400    41A     -0.447279    42A     -0.435078
      43A     -0.332333    44A     -0.318742

  @DF-RHF Final Energy:  -463.89125245674580

   => Energetics <=

    Nuclear Repulsion Energy =            675.5390092293185944
    One-Electron Energy =               -1966.9109921114277313
    Two-Electron Energy =                 827.4807304253632765
    Total Energy =                       -463.8912524567457467
  Basis Set: (AUG-CC-PVTZ AUX)
    Blend: AUG-CC-PVTZ-RI
    Molecular point group: c1

    Geometry (in Angstrom), charge = 0, multiplicity = 1:

       Center              X                  Y                   Z               Mass
    ------------   -----------------  -----------------  -----------------  -----------------
         C           -0.510817469324    -0.830622544331     0.214685586841    12.000000000000
         C           -2.865502469324    -0.197763544331    -0.273975113159    12.000000000000
         C           -1.440949469324    -0.336131544331    -0.916915413159    12.000000000000
         C           -1.213906469324    -0.373456544331     1.531528586841    12.000000000000
         C           -2.482139469324     0.374765455669     1.092672586841    12.000000000000
         C            0.908042530676    -0.344417544331     0.067150586841    12.000000000000
         C           -3.837862469324     0.563471455669    -1.081344413159    12.000000000000
         C            1.210310530676     1.022273455669     0.174136586841    12.000000000000
         C            1.954169530676    -1.236284544331    -0.198341413159    12.000000000000
         C            2.518668530676     1.480948455669     0.023882586841    12.000000000000
         C            3.266464530676    -0.782389544331    -0.351588413159    12.000000000000
         C            3.552720530676     0.578894455669    -0.241541413159    12.000000000000
         H           -0.492396469324    -1.927908544331     0.189909586841     1.007825032230
         H           -3.209682469324    -1.247993544331    -0.109601413159     1.007825032230
         H           -1.125558469324     0.662093455669    -1.249679413159     1.007825032230
         H           -1.413300469324    -0.993587544331    -1.793512413159     1.007825032230
         H           -0.554420469324     0.242478455669     2.150309586841     1.007825032230
         H           -1.480505469324    -1.251160544331     2.130516586841     1.007825032230
         H           -3.300610469324     0.296785455669     1.817200586841     1.007825032230
         H           -2.269074469324     1.444274455669     0.957042586841     1.007825032230
         H           -3.471990469324     1.581641455669    -1.254180413159     1.007825032230
         H           -4.018836469324     0.099751455669    -2.056349413159     1.007825032230
         H           -4.797128469324     0.633179455669    -0.558217413159     1.007825032230
         H            0.413019530676     1.735404455669     0.380616586841     1.007825032230
         H            1.738368530676    -2.300506544331    -0.282421413159     1.007825032230
         H            2.732819530676     2.543794455669     0.112699586841     1.007825032230
         H            4.064425530676    -1.492814544331    -0.556008413159     1.007825032230
         H            4.573177530676     0.935598455669    -0.358769413159     1.007825032230

  Basis Set: AUG-CC-PVTZ
    Blend: AUG-CC-PVTZ
  Basis Set: (AUG-CC-PVTZ AUX)
    Blend: AUG-CC-PVTZ-JKFIT
	 Reference Energy          =    -463.8912524567458036 [Eh]
	 Singles Energy            =      -0.0000000000000000 [Eh]
	 Same-Spin Energy          =      -0.5196952552032563 [Eh]
	 Opposite-Spin Energy      =      -1.7267960341077049 [Eh]
	 Correlation Energy        =      -2.2464912893109612 [Eh]
	 Total Energy              =    -466.1377437460567421 [Eh]

	 ================> DF-SCS-MP2 Energies <==================
	-----------------------------------------------------------
	 SCS Same-Spin Scale       =       0.3333333333333333 [-]
	 SCS Opposite-Spin Scale   =       1.2000000000000000 [-]
	 SCS Same-Spin Energy      =      -0.1732317517344188 [Eh]
	 SCS Opposite-Spin Energy  =      -2.0721552409292459 [Eh]
	 SCS Correlation Energy    =      -2.2453869926636645 [Eh]
	 SCS Total Energy          =    -466.1366394494094720 [Eh]
	-----------------------------------------------------------

  Dipole Moment: [D]
     X:    -0.5832      Y:    -0.1812      Z:     0.0216     Total:     0.6111

*** Psi4 exiting successfully. Buy a developer a beer!
