                               Psi4 1.4a3.dev225

  ==> Input File <==

--------------------------------------------------------------------------
#psi4
#
memory 32 gb

molecule  {
0 1
  C       -0.4426020    -0.8338200     0.2172010
  C       -2.7550300    -0.2335230    -0.2686280
  C       -1.3727340    -0.3393290    -0.9144000
  C       -1.1456910    -0.3766540     1.5340440
  C       -2.4139240     0.3715680     1.0951880
  C        0.9762580    -0.3476150     0.0696660
  C       -3.7696470     0.5602740    -1.0788290
  C        1.2785260     1.0190760     0.1766520
  C        2.0223850    -1.2394820    -0.1958260
  C        2.5868840     1.4777510     0.0263980
  C        3.3346800    -0.7855870    -0.3490730
  C        3.5883553     0.5393983    -0.2381098
  H       -0.4241810    -1.9311060     0.1924250
  H       -3.1414670    -1.2511910    -0.1070860
  H       -1.0573430     0.6588960    -1.2471640
  H       -1.3450850    -0.9967850    -1.7909970
  H       -0.4862050     0.2392810     2.1528250
  H       -1.4122900    -1.2543580     2.1330320
  H       -3.2323950     0.2935880     1.8197160
  H       -2.2008590     1.4410770     0.9595580
  H       -3.4037750     1.5784440    -1.2516650
  H       -3.9506210     0.0965540    -2.0538340
  H       -4.7289130     0.6299820    -0.5557020
  H        0.4812350     1.7322070     0.3831320
  H        1.8065840    -2.3037040    -0.2799060
  H        2.8010350     2.5405970     0.1152150
  H        4.1326410    -1.4960120    -0.5534930
  H        4.6413930     0.9324010    -0.3562540
units angstrom
no_reorient  #important for SAPT in psi4, default
symmetry c1  #important for SAPT in psi4, default
}

set PROPERTIES_ORIGIN ["COM"]
properties('MP2/aug-cc-pvtz', properties = ['dipole'])
--------------------------------------------------------------------------

    Molecular point group: c1
  Charge       = 0
  Multiplicity = 1
  Basis Set: AUG-CC-PVTZ
    Blend: AUG-CC-PVTZ
  Basis Set: (AUG-CC-PVTZ AUX)
    Blend: AUG-CC-PVTZ-JKFIT

    Orbital Energies [Eh]
    ---------------------

    Doubly Occupied:

       1A    -11.235545     2A    -11.233370     3A    -11.228891
       4A    -11.228722     5A    -11.228136     6A    -11.228083
       7A    -11.226802     8A    -11.221041     9A    -11.216518
      10A    -11.214771    11A    -11.214521    12A    -11.211504
      13A     -1.158548    14A     -1.126514    15A     -1.040939
      16A     -1.010615    17A     -0.988640    18A     -0.953419
      19A     -0.892124    20A     -0.827396    21A     -0.816083
      22A     -0.763512    23A     -0.757069    24A     -0.687744
      25A     -0.660250    26A     -0.632387    27A     -0.623676
      28A     -0.606914    29A     -0.589042    30A     -0.581657
      31A     -0.572477    32A     -0.554747    33A     -0.525874
      34A     -0.512101    35A     -0.503930    36A     -0.494910
      37A     -0.474626    38A     -0.464450    39A     -0.460678
      40A     -0.453373    41A     -0.450384    42A     -0.443300
      43A     -0.333483    44A     -0.320600

  @DF-RHF Final Energy:  -463.89158807931460

   => Energetics <=

    Nuclear Repulsion Energy =            676.7973985030606627
    One-Electron Energy =               -1969.4392466201020397
    Two-Electron Energy =                 828.7502600377266617
    Total Energy =                       -463.8915880793146016
  Basis Set: (AUG-CC-PVTZ AUX)
    Blend: AUG-CC-PVTZ-RI
    Molecular point group: c1

    Geometry (in Angstrom), charge = 0, multiplicity = 1:

       Center              X                  Y                   Z               Mass
    ------------   -----------------  -----------------  -----------------  -----------------
         C           -0.511542624388    -0.825462029950     0.214404714125    12.000000000000
         C           -2.823970624388    -0.225165029950    -0.271424285875    12.000000000000
         C           -1.441674624388    -0.330971029950    -0.917196285875    12.000000000000
         C           -1.214631624388    -0.368296029950     1.531247714125    12.000000000000
         C           -2.482864624388     0.379925970050     1.092391714125    12.000000000000
         C            0.907317375612    -0.339257029950     0.066869714125    12.000000000000
         C           -3.838587624388     0.568631970050    -1.081625285875    12.000000000000
         C            1.209585375612     1.027433970050     0.173855714125    12.000000000000
         C            1.953444375612    -1.231124029950    -0.198622285875    12.000000000000
         C            2.517943375612     1.486108970050     0.023601714125    12.000000000000
         C            3.265739375612    -0.777229029950    -0.351869285875    12.000000000000
         C            3.519414675612     0.547756270050    -0.240906085875    12.000000000000
         H           -0.493121624388    -1.922748029950     0.189628714125     1.007825032230
         H           -3.210407624388    -1.242833029950    -0.109882285875     1.007825032230
         H           -1.126283624388     0.667253970050    -1.249960285875     1.007825032230
         H           -1.414025624388    -0.988427029950    -1.793793285875     1.007825032230
         H           -0.555145624388     0.247638970050     2.150028714125     1.007825032230
         H           -1.481230624388    -1.246000029950     2.130235714125     1.007825032230
         H           -3.301335624388     0.301945970050     1.816919714125     1.007825032230
         H           -2.269799624388     1.449434970050     0.956761714125     1.007825032230
         H           -3.472715624388     1.586801970050    -1.254461285875     1.007825032230
         H           -4.019561624388     0.104911970050    -2.056630285875     1.007825032230
         H           -4.797853624388     0.638339970050    -0.558498285875     1.007825032230
         H            0.412294375612     1.740564970050     0.380335714125     1.007825032230
         H            1.737643375612    -2.295346029950    -0.282702285875     1.007825032230
         H            2.732094375612     2.548954970050     0.112418714125     1.007825032230
         H            4.063700375612    -1.487654029950    -0.556289285875     1.007825032230
         H            4.572452375612     0.940758970050    -0.359050285875     1.007825032230

  Basis Set: AUG-CC-PVTZ
    Blend: AUG-CC-PVTZ
  Basis Set: (AUG-CC-PVTZ AUX)
    Blend: AUG-CC-PVTZ-JKFIT
	 Reference Energy          =    -463.8915880793146016 [Eh]
	 Singles Energy            =      -0.0000000000000000 [Eh]
	 Same-Spin Energy          =      -0.5195496852462155 [Eh]
	 Opposite-Spin Energy      =      -1.7263914196096324 [Eh]
	 Correlation Energy        =      -2.2459411048558477 [Eh]
	 Total Energy              =    -466.1375291841704325 [Eh]

	 ================> DF-SCS-MP2 Energies <==================
	-----------------------------------------------------------
	 SCS Same-Spin Scale       =       0.3333333333333333 [-]
	 SCS Opposite-Spin Scale   =       1.2000000000000000 [-]
	 SCS Same-Spin Energy      =      -0.1731832284154051 [Eh]
	 SCS Opposite-Spin Energy  =      -2.0716697035315588 [Eh]
	 SCS Correlation Energy    =      -2.2448529319469639 [Eh]
	 SCS Total Energy          =    -466.1364410112615815 [Eh]
	-----------------------------------------------------------

  Dipole Moment: [D]
     X:    -0.5799      Y:    -0.2018      Z:     0.0401     Total:     0.6153

*** Psi4 exiting successfully. Buy a developer a beer!
