                               Psi4 1.4a3.dev225

  ==> Input File <==

--------------------------------------------------------------------------
#psi4
#
memory 32 gb

molecule  {
0 1
  C       -0.4426020    -0.8338200     0.2172010
  C       -2.7550300    -0.2335230    -0.2686280
  C       -1.3727340    -0.3393290    -0.9144000
  C       -1.1456910    -0.3766540     1.5340440
  C       -2.4139240     0.3715680     1.0951880
  C        0.9762580    -0.3476150     0.0696660
  C       -3.7696470     0.5602740    -1.0788290
  C        1.2785260     1.0190760     0.1766520
  C        2.0223850    -1.2394820    -0.1958260
  C        2.5868840     1.4777510     0.0263980
  C        3.3346800    -0.7855870    -0.3490730
  C        3.6367563     0.5942613    -0.2393629
  H       -0.4241810    -1.9311060     0.1924250
  H       -3.1414670    -1.2511910    -0.1070860
  H       -1.0573430     0.6588960    -1.2471640
  H       -1.3450850    -0.9967850    -1.7909970
  H       -0.4862050     0.2392810     2.1528250
  H       -1.4122900    -1.2543580     2.1330320
  H       -3.2323950     0.2935880     1.8197160
  H       -2.2008590     1.4410770     0.9595580
  H       -3.4037750     1.5784440    -1.2516650
  H       -3.9506210     0.0965540    -2.0538340
  H       -4.7289130     0.6299820    -0.5557020
  H        0.4812350     1.7322070     0.3831320
  H        1.8065840    -2.3037040    -0.2799060
  H        2.8010350     2.5405970     0.1152150
  H        4.1326410    -1.4960120    -0.5534930
  H        4.6413930     0.9324010    -0.3562540
units angstrom
no_reorient  #important for SAPT in psi4, default
symmetry c1  #important for SAPT in psi4, default
}

set PROPERTIES_ORIGIN ["COM"]
properties('MP2/aug-cc-pvtz', properties = ['dipole'])
--------------------------------------------------------------------------

    Molecular point group: c1
  Charge       = 0
  Multiplicity = 1
  Basis Set: AUG-CC-PVTZ
    Blend: AUG-CC-PVTZ
  Basis Set: (AUG-CC-PVTZ AUX)
    Blend: AUG-CC-PVTZ-JKFIT

    Orbital Energies [Eh]
    ---------------------

    Doubly Occupied:

       1A    -11.237014     2A    -11.235309     3A    -11.233811
       4A    -11.229477     5A    -11.228529     6A    -11.228297
       7A    -11.228200     8A    -11.221247     9A    -11.216799
      10A    -11.214959    11A    -11.214862    12A    -11.211639
      13A     -1.154995    14A     -1.123975    15A     -1.038911
      16A     -1.007505    17A     -0.988302    18A     -0.953984
      19A     -0.892966    20A     -0.826488    21A     -0.815808
      22A     -0.763643    23A     -0.757369    24A     -0.691191
      25A     -0.660614    26A     -0.636814    27A     -0.621093
      28A     -0.606240    29A     -0.585354    30A     -0.578559
      31A     -0.574016    32A     -0.556901    33A     -0.530405
      34A     -0.513375    35A     -0.509186    36A     -0.487265
      37A     -0.475515    38A     -0.463225    39A     -0.461148
      40A     -0.453819    41A     -0.450216    42A     -0.444060
      43A     -0.332326    44A     -0.317520

  @DF-RHF Final Energy:  -463.89341412725446

   => Energetics <=

    Nuclear Repulsion Energy =            675.5255877564163711
    One-Electron Energy =               -1966.8921448752726064
    Two-Electron Energy =                 827.4731429916017760
    Total Energy =                       -463.8934141272544593
  Basis Set: (AUG-CC-PVTZ AUX)
    Blend: AUG-CC-PVTZ-RI
    Molecular point group: c1

    Geometry (in Angstrom), charge = 0, multiplicity = 1:

       Center              X                  Y                   Z               Mass
    ------------   -----------------  -----------------  -----------------  -----------------
         C           -0.515169861063    -0.829573537682     0.214498623141    12.000000000000
         C           -2.827597861063    -0.229276537682    -0.271330376859    12.000000000000
         C           -1.445301861063    -0.335082537682    -0.917102376859    12.000000000000
         C           -1.218258861063    -0.372407537682     1.531341623141    12.000000000000
         C           -2.486491861063     0.375814462318     1.092485623141    12.000000000000
         C            0.903690138937    -0.343368537682     0.066963623141    12.000000000000
         C           -3.842214861063     0.564520462318    -1.081531376859    12.000000000000
         C            1.205958138937     1.023322462318     0.173949623141    12.000000000000
         C            1.949817138937    -1.235235537682    -0.198528376859    12.000000000000
         C            2.514316138937     1.481997462318     0.023695623141    12.000000000000
         C            3.262112138937    -0.781340537682    -0.351775376859    12.000000000000
         C            3.564188438937     0.598507762318    -0.242065276859    12.000000000000
         H           -0.496748861063    -1.926859537682     0.189722623141     1.007825032230
         H           -3.214034861063    -1.246944537682    -0.109788376859     1.007825032230
         H           -1.129910861063     0.663142462318    -1.249866376859     1.007825032230
         H           -1.417652861063    -0.992538537682    -1.793699376859     1.007825032230
         H           -0.558772861063     0.243527462318     2.150122623141     1.007825032230
         H           -1.484857861063    -1.250111537682     2.130329623141     1.007825032230
         H           -3.304962861063     0.297834462318     1.817013623141     1.007825032230
         H           -2.273426861063     1.445323462318     0.956855623141     1.007825032230
         H           -3.476342861063     1.582690462318    -1.254367376859     1.007825032230
         H           -4.023188861063     0.100800462318    -2.056536376859     1.007825032230
         H           -4.801480861063     0.634228462318    -0.558404376859     1.007825032230
         H            0.408667138937     1.736453462318     0.380429623141     1.007825032230
         H            1.734016138937    -2.299457537682    -0.282608376859     1.007825032230
         H            2.728467138937     2.544843462318     0.112512623141     1.007825032230
         H            4.060073138937    -1.491765537682    -0.556195376859     1.007825032230
         H            4.568825138937     0.936647462318    -0.358956376859     1.007825032230

  Basis Set: AUG-CC-PVTZ
    Blend: AUG-CC-PVTZ
  Basis Set: (AUG-CC-PVTZ AUX)
    Blend: AUG-CC-PVTZ-JKFIT
	 Reference Energy          =    -463.8934141272544593 [Eh]
	 Singles Energy            =      -0.0000000000000000 [Eh]
	 Same-Spin Energy          =      -0.5195092456488896 [Eh]
	 Opposite-Spin Energy      =      -1.7265826474261643 [Eh]
	 Correlation Energy        =      -2.2460918930750537 [Eh]
	 Total Energy              =    -466.1395060203295202 [Eh]

	 ================> DF-SCS-MP2 Energies <==================
	-----------------------------------------------------------
	 SCS Same-Spin Scale       =       0.3333333333333333 [-]
	 SCS Opposite-Spin Scale   =       1.2000000000000000 [-]
	 SCS Same-Spin Energy      =      -0.1731697485496299 [Eh]
	 SCS Opposite-Spin Energy  =      -2.0718991769113972 [Eh]
	 SCS Correlation Energy    =      -2.2450689254610272 [Eh]
	 SCS Total Energy          =    -466.1384830527155145 [Eh]
	-----------------------------------------------------------

  Dipole Moment: [D]
     X:    -0.5688      Y:    -0.2045      Z:     0.0364     Total:     0.6056

*** Psi4 exiting successfully. Buy a developer a beer!
