                               Psi4 1.4a3.dev225

  ==> Input File <==

--------------------------------------------------------------------------
#psi4
#
memory 32 gb

molecule  {
0 1
  C       -0.4426020    -0.8338200     0.2172010
  C       -2.7550300    -0.2335230    -0.2686280
  C       -1.3727340    -0.3393290    -0.9144000
  C       -1.1456910    -0.3766540     1.5340440
  C       -2.4139240     0.3715680     1.0951880
  C        0.9762580    -0.3476150     0.0696660
  C       -3.7696470     0.5602740    -1.0788290
  C        1.2785260     1.0190760     0.1766520
  C        2.0223850    -1.2394820    -0.1958260
  C        2.5868840     1.4777510     0.0263980
  C        3.3346800    -0.7855870    -0.3490730
  C        3.6209360     0.5756970    -0.2390260
  H       -0.4241810    -1.9311060     0.1924250
  H       -3.1414670    -1.2511910    -0.1070860
  H       -1.0573430     0.6588960    -1.2471640
  H       -1.3450850    -0.9967850    -1.7909970
  H       -0.4862050     0.2392810     2.1528250
  H       -1.4122900    -1.2543580     2.1330320
  H       -3.2323950     0.2935880     1.8197160
  H       -2.2008590     1.4410770     0.9595580
  H       -3.4037750     1.5784440    -1.2516650
  H       -3.9506210     0.0965540    -2.0538340
  H       -4.7289130     0.6299820    -0.5557020
  H        0.4812350     1.7322070     0.3831320
  H        1.8065840    -2.3037040    -0.2799060
  H        2.7813491     2.4428944     0.1070505
  H        4.1326410    -1.4960120    -0.5534930
  H        4.6413930     0.9324010    -0.3562540
units angstrom
no_reorient  #important for SAPT in psi4, default
symmetry c1  #important for SAPT in psi4, default
}

set PROPERTIES_ORIGIN ["COM"]
properties('MP2/aug-cc-pvtz', properties = ['dipole'])
--------------------------------------------------------------------------

    Molecular point group: c1
  Charge       = 0
  Multiplicity = 1
  Basis Set: AUG-CC-PVTZ
    Blend: AUG-CC-PVTZ
  Basis Set: (AUG-CC-PVTZ AUX)
    Blend: AUG-CC-PVTZ-JKFIT

    Orbital Energies [Eh]
    ---------------------

    Doubly Occupied:

       1A    -11.235882     2A    -11.232225     3A    -11.228256
       4A    -11.228041     5A    -11.227829     6A    -11.227741
       7A    -11.221200     8A    -11.221035     9A    -11.216512
      10A    -11.214760    11A    -11.214553    12A    -11.211497
      13A     -1.155955    14A     -1.124915    15A     -1.039921
      16A     -1.011432    17A     -0.988276    18A     -0.953631
      19A     -0.892456    20A     -0.830084    21A     -0.819802
      22A     -0.763688    23A     -0.758752    24A     -0.692837
      25A     -0.660434    26A     -0.642269    27A     -0.621526
      28A     -0.609554    29A     -0.587220    30A     -0.581919
      31A     -0.574280    32A     -0.555924    33A     -0.528396
      34A     -0.510558    35A     -0.509673    36A     -0.493316
      37A     -0.475222    38A     -0.463151    39A     -0.460961
      40A     -0.453810    41A     -0.450295    42A     -0.443678
      43A     -0.331939    44A     -0.318298

  @DF-RHF Final Energy:  -463.88857897432541

   => Energetics <=

    Nuclear Repulsion Energy =            676.4919022123106060
    One-Electron Energy =               -1968.7935493634918203
    Two-Electron Energy =                 828.4130681768557452
    Total Energy =                       -463.8885789743254691
  Basis Set: (AUG-CC-PVTZ AUX)
    Blend: AUG-CC-PVTZ-RI
    Molecular point group: c1

    Geometry (in Angstrom), charge = 0, multiplicity = 1:

       Center              X                  Y                   Z               Mass
    ------------   -----------------  -----------------  -----------------  -----------------
         C           -0.513860363607    -0.827567365481     0.214524762608    12.000000000000
         C           -2.826288363607    -0.227270365481    -0.271304237392    12.000000000000
         C           -1.443992363607    -0.333076365481    -0.917076237392    12.000000000000
         C           -1.216949363607    -0.370401365481     1.531367762608    12.000000000000
         C           -2.485182363607     0.377820634519     1.092511762608    12.000000000000
         C            0.904999636393    -0.341362365481     0.066989762608    12.000000000000
         C           -3.840905363607     0.566526634519    -1.081505237392    12.000000000000
         C            1.207267636393     1.025328634519     0.173975762608    12.000000000000
         C            1.951126636393    -1.233229365481    -0.198502237392    12.000000000000
         C            2.515625636393     1.484003634519     0.023721762608    12.000000000000
         C            3.263421636393    -0.779334365481    -0.351749237392    12.000000000000
         C            3.549677636393     0.581949634519    -0.241702237392    12.000000000000
         H           -0.495439363607    -1.924853365481     0.189748762608     1.007825032230
         H           -3.212725363607    -1.244938365481    -0.109762237392     1.007825032230
         H           -1.128601363607     0.665148634519    -1.249840237392     1.007825032230
         H           -1.416343363607    -0.990532365481    -1.793673237392     1.007825032230
         H           -0.557463363607     0.245533634519     2.150148762608     1.007825032230
         H           -1.483548363607    -1.248105365481     2.130355762608     1.007825032230
         H           -3.303653363607     0.299840634519     1.817039762608     1.007825032230
         H           -2.272117363607     1.447329634519     0.956881762608     1.007825032230
         H           -3.475033363607     1.584696634519    -1.254341237392     1.007825032230
         H           -4.021879363607     0.102806634519    -2.056510237392     1.007825032230
         H           -4.800171363607     0.636234634519    -0.558378237392     1.007825032230
         H            0.409976636393     1.738459634519     0.380455762608     1.007825032230
         H            1.735325636393    -2.297451365481    -0.282582237392     1.007825032230
         H            2.710090736393     2.449147034519     0.104374262608     1.007825032230
         H            4.061382636393    -1.489759365481    -0.556169237392     1.007825032230
         H            4.570134636393     0.938653634519    -0.358930237392     1.007825032230

  Basis Set: AUG-CC-PVTZ
    Blend: AUG-CC-PVTZ
  Basis Set: (AUG-CC-PVTZ AUX)
    Blend: AUG-CC-PVTZ-JKFIT
	 Reference Energy          =    -463.8885789743254122 [Eh]
	 Singles Energy            =      -0.0000000000000000 [Eh]
	 Same-Spin Energy          =      -0.5193752174440227 [Eh]
	 Opposite-Spin Energy      =      -1.7259063926163176 [Eh]
	 Correlation Energy        =      -2.2452816100603403 [Eh]
	 Total Energy              =    -466.1338605843857295 [Eh]

	 ================> DF-SCS-MP2 Energies <==================
	-----------------------------------------------------------
	 SCS Same-Spin Scale       =       0.3333333333333333 [-]
	 SCS Opposite-Spin Scale   =       1.2000000000000000 [-]
	 SCS Same-Spin Energy      =      -0.1731250724813409 [Eh]
	 SCS Opposite-Spin Energy  =      -2.0710876711395811 [Eh]
	 SCS Correlation Energy    =      -2.2442127436209218 [Eh]
	 SCS Total Energy          =    -466.1327917179463611 [Eh]
	-----------------------------------------------------------

  Dipole Moment: [D]
     X:    -0.5549      Y:    -0.1687      Z:     0.0397     Total:     0.5814

*** Psi4 exiting successfully. Buy a developer a beer!
