                               Psi4 1.4a3.dev225

  ==> Input File <==

--------------------------------------------------------------------------
#psi4
#
memory 32 gb

molecule  {
0 1
  C       -0.4426020    -0.8338200     0.2172010
  C       -2.7550300    -0.2335230    -0.2686280
  C       -1.3727340    -0.3393290    -0.9144000
  C       -1.1456910    -0.3766540     1.5340440
  C       -2.4139240     0.3715680     1.0951880
  C        0.9762580    -0.3476150     0.0696660
  C       -3.7696470     0.5602740    -1.0788290
  C        1.2785260     1.0190760     0.1766520
  C        2.0223850    -1.2394820    -0.1958260
  C        2.5868840     1.4777510     0.0263980
  C        3.3346800    -0.7855870    -0.3490730
  C        3.6209360     0.5756970    -0.2390260
  H       -0.4241810    -1.9311060     0.1924250
  H       -3.1414670    -1.2511910    -0.1070860
  H       -1.0573430     0.6588960    -1.2471640
  H       -1.3450850    -0.9967850    -1.7909970
  H       -0.4862050     0.2392810     2.1528250
  H       -1.4122900    -1.2543580     2.1330320
  H       -3.2323950     0.2935880     1.8197160
  H       -2.2008590     1.4410770     0.9595580
  H       -3.4037750     1.5784440    -1.2516650
  H       -3.9506210     0.0965540    -2.0538340
  H       -4.7289130     0.6299820    -0.5557020
  H        0.4812350     1.7322070     0.3831320
  H        1.8105468    -2.2841614    -0.2783620
  H        2.8010350     2.5405970     0.1152150
  H        4.1326410    -1.4960120    -0.5534930
  H        4.6413930     0.9324010    -0.3562540
units angstrom
no_reorient  #important for SAPT in psi4, default
symmetry c1  #important for SAPT in psi4, default
}

set PROPERTIES_ORIGIN ["COM"]
properties('MP2/aug-cc-pvtz', properties = ['dipole'])
--------------------------------------------------------------------------

    Molecular point group: c1
  Charge       = 0
  Multiplicity = 1
  Basis Set: AUG-CC-PVTZ
    Blend: AUG-CC-PVTZ
  Basis Set: (AUG-CC-PVTZ AUX)
    Blend: AUG-CC-PVTZ-JKFIT

    Orbital Energies [Eh]
    ---------------------

    Doubly Occupied:

       1A    -11.236270     2A    -11.233486     3A    -11.232618
       4A    -11.228758     5A    -11.228393     6A    -11.228228
       7A    -11.225764     8A    -11.221169     9A    -11.216696
      10A    -11.214885    11A    -11.214742    12A    -11.211586
      13A     -1.156004    14A     -1.124795    15A     -1.039457
      16A     -1.008921    17A     -0.988455    18A     -0.953829
      19A     -0.892690    20A     -0.826654    21A     -0.817006
      22A     -0.763620    23A     -0.757185    24A     -0.691037
      25A     -0.660413    26A     -0.636121    27A     -0.621832
      28A     -0.606648    29A     -0.586211    30A     -0.580383
      31A     -0.574202    32A     -0.556170    33A     -0.528612
      34A     -0.510847    35A     -0.509971    36A     -0.490929
      37A     -0.475288    38A     -0.463359    39A     -0.461212
      40A     -0.453736    41A     -0.450270    42A     -0.443846
      43A     -0.332222    44A     -0.318663

  @DF-RHF Final Energy:  -463.89456236111710

   => Energetics <=

    Nuclear Repulsion Energy =            676.0428123802680602
    One-Electron Energy =               -1967.9283818482820152
    Two-Electron Energy =                 827.9910071068968591
    Total Energy =                       -463.8945623611170959
  Basis Set: (AUG-CC-PVTZ AUX)
    Blend: AUG-CC-PVTZ-RI
    Molecular point group: c1

    Geometry (in Angstrom), charge = 0, multiplicity = 1:

       Center              X                  Y                   Z               Mass
    ------------   -----------------  -----------------  -----------------  -----------------
         C           -0.514009208084    -0.828305304588     0.214463657490    12.000000000000
         C           -2.826437208084    -0.228008304588    -0.271365342510    12.000000000000
         C           -1.444141208084    -0.333814304588    -0.917137342510    12.000000000000
         C           -1.217098208084    -0.371139304588     1.531306657490    12.000000000000
         C           -2.485331208084     0.377082695412     1.092450657490    12.000000000000
         C            0.904850791916    -0.342100304588     0.066928657490    12.000000000000
         C           -3.841054208084     0.565788695412    -1.081566342510    12.000000000000
         C            1.207118791916     1.024590695412     0.173914657490    12.000000000000
         C            1.950977791916    -1.233967304588    -0.198563342510    12.000000000000
         C            2.515476791916     1.483265695412     0.023660657490    12.000000000000
         C            3.263272791916    -0.780072304588    -0.351810342510    12.000000000000
         C            3.549528791916     0.581211695412    -0.241763342510    12.000000000000
         H           -0.495588208084    -1.925591304588     0.189687657490     1.007825032230
         H           -3.212874208084    -1.245676304588    -0.109823342510     1.007825032230
         H           -1.128750208084     0.664410695412    -1.249901342510     1.007825032230
         H           -1.416492208084    -0.991270304588    -1.793734342510     1.007825032230
         H           -0.557612208084     0.244795695412     2.150087657490     1.007825032230
         H           -1.483697208084    -1.248843304588     2.130294657490     1.007825032230
         H           -3.303802208084     0.299102695412     1.816978657490     1.007825032230
         H           -2.272266208084     1.446591695412     0.956820657490     1.007825032230
         H           -3.475182208084     1.583958695412    -1.254402342510     1.007825032230
         H           -4.022028208084     0.102068695412    -2.056571342510     1.007825032230
         H           -4.800320208084     0.635496695412    -0.558439342510     1.007825032230
         H            0.409827791916     1.737721695412     0.380394657490     1.007825032230
         H            1.739139591916    -2.278646704588    -0.281099342510     1.007825032230
         H            2.729627791916     2.546111695412     0.112477657490     1.007825032230
         H            4.061233791916    -1.490497304588    -0.556230342510     1.007825032230
         H            4.569985791916     0.937915695412    -0.358991342510     1.007825032230

  Basis Set: AUG-CC-PVTZ
    Blend: AUG-CC-PVTZ
  Basis Set: (AUG-CC-PVTZ AUX)
    Blend: AUG-CC-PVTZ-JKFIT
	 Reference Energy          =    -463.8945623611170959 [Eh]
	 Singles Energy            =      -0.0000000000000000 [Eh]
	 Same-Spin Energy          =      -0.5194615070118342 [Eh]
	 Opposite-Spin Energy      =      -1.7262852596690454 [Eh]
	 Correlation Energy        =      -2.2457467666808797 [Eh]
	 Total Energy              =    -466.1403091277979911 [Eh]

	 ================> DF-SCS-MP2 Energies <==================
	-----------------------------------------------------------
	 SCS Same-Spin Scale       =       0.3333333333333333 [-]
	 SCS Opposite-Spin Scale   =       1.2000000000000000 [-]
	 SCS Same-Spin Energy      =      -0.1731538356706114 [Eh]
	 SCS Opposite-Spin Energy  =      -2.0715423116028546 [Eh]
	 SCS Correlation Energy    =      -2.2446961472734661 [Eh]
	 SCS Total Energy          =    -466.1392585083905828 [Eh]
	-----------------------------------------------------------

  Dipole Moment: [D]
     X:    -0.5715      Y:    -0.2107      Z:     0.0368     Total:     0.6102

*** Psi4 exiting successfully. Buy a developer a beer!
