                               Psi4 1.4a3.dev225

  ==> Input File <==

--------------------------------------------------------------------------
#psi4
#
memory 32 gb

molecule  {
0 1
  C       -0.4426020    -0.8338200     0.2172010
  C       -2.7550300    -0.2335230    -0.2686280
  C       -1.3727340    -0.3393290    -0.9144000
  C       -1.1456910    -0.3766540     1.5340440
  C       -2.4139240     0.3715680     1.0951880
  C        0.9762580    -0.3476150     0.0696660
  C       -3.7696470     0.5602740    -1.0788290
  C        1.2785260     1.0190760     0.1766520
  C        2.0223850    -1.2394820    -0.1958260
  C        2.5868840     1.4777510     0.0263980
  C        3.3346800    -0.7855870    -0.3490730
  C        3.6168332     0.5561860    -0.2406033
  H       -0.4241810    -1.9311060     0.1924250
  H       -3.1414670    -1.2511910    -0.1070860
  H       -1.0573430     0.6588960    -1.2471640
  H       -1.3450850    -0.9967850    -1.7909970
  H       -0.4862050     0.2392810     2.1528250
  H       -1.4122900    -1.2543580     2.1330320
  H       -3.2323950     0.2935880     1.8197160
  H       -2.2008590     1.4410770     0.9595580
  H       -3.4037750     1.5784440    -1.2516650
  H       -3.9506210     0.0965540    -2.0538340
  H       -4.7289130     0.6299820    -0.5557020
  H        0.4812350     1.7322070     0.3831320
  H        1.8065840    -2.3037040    -0.2799060
  H        2.8010350     2.5405970     0.1152150
  H        4.1326410    -1.4960120    -0.5534930
  H        4.6413930     0.9324010    -0.3562540
units angstrom
no_reorient  #important for SAPT in psi4, default
symmetry c1  #important for SAPT in psi4, default
}

set PROPERTIES_ORIGIN ["COM"]
properties('MP2/aug-cc-pvtz', properties = ['dipole'])
--------------------------------------------------------------------------

    Molecular point group: c1
  Charge       = 0
  Multiplicity = 1
  Basis Set: AUG-CC-PVTZ
    Blend: AUG-CC-PVTZ
  Basis Set: (AUG-CC-PVTZ AUX)
    Blend: AUG-CC-PVTZ-JKFIT

    Orbital Energies [Eh]
    ---------------------

    Doubly Occupied:

       1A    -11.236264     2A    -11.234518     3A    -11.230685
       4A    -11.228642     5A    -11.228547     6A    -11.228296
       7A    -11.227892     8A    -11.221142     9A    -11.216663
      10A    -11.214866    11A    -11.214684    12A    -11.211568
      13A     -1.156551    14A     -1.125250    15A     -1.039892
      16A     -1.008818    17A     -0.988610    18A     -0.953683
      19A     -0.892505    20A     -0.825879    21A     -0.816910
      22A     -0.763579    23A     -0.757050    24A     -0.689334
      25A     -0.660310    26A     -0.634330    27A     -0.622484
      28A     -0.606452    29A     -0.586951    30A     -0.580658
      31A     -0.573138    32A     -0.555809    33A     -0.527803
      34A     -0.510534    35A     -0.508764    36A     -0.491760
      37A     -0.475161    38A     -0.463571    39A     -0.461032
      40A     -0.453736    41A     -0.450312    42A     -0.443701
      43A     -0.332615    44A     -0.319315

  @DF-RHF Final Energy:  -463.89404621186435

   => Energetics <=

    Nuclear Repulsion Energy =            676.1345268630350347
    One-Electron Energy =               -1968.1166152403195611
    Two-Electron Energy =                 828.0880421654202337
    Total Energy =                       -463.8940462118642927
  Basis Set: (AUG-CC-PVTZ AUX)
    Blend: AUG-CC-PVTZ-RI
    Molecular point group: c1

    Geometry (in Angstrom), charge = 0, multiplicity = 1:

       Center              X                  Y                   Z               Mass
    ------------   -----------------  -----------------  -----------------  -----------------
         C           -0.513676796891    -0.826720122989     0.214591580401    12.000000000000
         C           -2.826104796891    -0.226423122989    -0.271237419599    12.000000000000
         C           -1.443808796891    -0.332229122989    -0.917009419599    12.000000000000
         C           -1.216765796891    -0.369554122989     1.531434580401    12.000000000000
         C           -2.484998796891     0.378667877011     1.092578580401    12.000000000000
         C            0.905183203109    -0.340515122989     0.067056580401    12.000000000000
         C           -3.840721796891     0.567373877011    -1.081438419599    12.000000000000
         C            1.207451203109     1.026175877011     0.174042580401    12.000000000000
         C            1.951310203109    -1.232382122989    -0.198435419599    12.000000000000
         C            2.515809203109     1.484850877011     0.023788580401    12.000000000000
         C            3.263605203109    -0.778487122989    -0.351682419599    12.000000000000
         C            3.545758403109     0.563285877011    -0.243212719599    12.000000000000
         H           -0.495255796891    -1.924006122989     0.189815580401     1.007825032230
         H           -3.212541796891    -1.244091122989    -0.109695419599     1.007825032230
         H           -1.128417796891     0.665995877011    -1.249773419599     1.007825032230
         H           -1.416159796891    -0.989685122989    -1.793606419599     1.007825032230
         H           -0.557279796891     0.246380877011     2.150215580401     1.007825032230
         H           -1.483364796891    -1.247258122989     2.130422580401     1.007825032230
         H           -3.303469796891     0.300687877011     1.817106580401     1.007825032230
         H           -2.271933796891     1.448176877011     0.956948580401     1.007825032230
         H           -3.474849796891     1.585543877011    -1.254274419599     1.007825032230
         H           -4.021695796891     0.103653877011    -2.056443419599     1.007825032230
         H           -4.799987796891     0.637081877011    -0.558311419599     1.007825032230
         H            0.410160203109     1.739306877011     0.380522580401     1.007825032230
         H            1.735509203109    -2.296604122989    -0.282515419599     1.007825032230
         H            2.729960203109     2.547696877011     0.112605580401     1.007825032230
         H            4.061566203109    -1.488912122989    -0.556102419599     1.007825032230
         H            4.570318203109     0.939500877011    -0.358863419599     1.007825032230

  Basis Set: AUG-CC-PVTZ
    Blend: AUG-CC-PVTZ
  Basis Set: (AUG-CC-PVTZ AUX)
    Blend: AUG-CC-PVTZ-JKFIT
	 Reference Energy          =    -463.8940462118643495 [Eh]
	 Singles Energy            =      -0.0000000000000000 [Eh]
	 Same-Spin Energy          =      -0.5194786418568285 [Eh]
	 Opposite-Spin Energy      =      -1.7263853953994648 [Eh]
	 Correlation Energy        =      -2.2458640372562932 [Eh]
	 Total Energy              =    -466.1399102491206463 [Eh]

	 ================> DF-SCS-MP2 Energies <==================
	-----------------------------------------------------------
	 SCS Same-Spin Scale       =       0.3333333333333333 [-]
	 SCS Opposite-Spin Scale   =       1.2000000000000000 [-]
	 SCS Same-Spin Energy      =      -0.1731595472856095 [Eh]
	 SCS Opposite-Spin Energy  =      -2.0716624744793575 [Eh]
	 SCS Correlation Energy    =      -2.2448220217649668 [Eh]
	 SCS Total Energy          =    -466.1388682336292959 [Eh]
	-----------------------------------------------------------

  Dipole Moment: [D]
     X:    -0.5709      Y:    -0.1992      Z:     0.0383     Total:     0.6059

*** Psi4 exiting successfully. Buy a developer a beer!
