                               Psi4 1.4a3.dev225

  ==> Input File <==

--------------------------------------------------------------------------
#psi4
#
memory 32 gb

molecule  {
0 1
  C       -0.4426020    -0.8338200     0.2172010
  C       -2.7550300    -0.2335230    -0.2686280
  C       -1.3307764    -0.3133692    -0.9362568
  C       -1.1456910    -0.3766540     1.5340440
  C       -2.4139240     0.3715680     1.0951880
  C        0.9762580    -0.3476150     0.0696660
  C       -3.7696470     0.5602740    -1.0788290
  C        1.2785260     1.0190760     0.1766520
  C        2.0223850    -1.2394820    -0.1958260
  C        2.5868840     1.4777510     0.0263980
  C        3.3346800    -0.7855870    -0.3490730
  C        3.6209360     0.5756970    -0.2390260
  H       -0.4241810    -1.9311060     0.1924250
  H       -3.1414670    -1.2511910    -0.1070860
  H       -1.0573430     0.6588960    -1.2471640
  H       -1.3450850    -0.9967850    -1.7909970
  H       -0.4862050     0.2392810     2.1528250
  H       -1.4122900    -1.2543580     2.1330320
  H       -3.2323950     0.2935880     1.8197160
  H       -2.2008590     1.4410770     0.9595580
  H       -3.4037750     1.5784440    -1.2516650
  H       -3.9506210     0.0965540    -2.0538340
  H       -4.7289130     0.6299820    -0.5557020
  H        0.4812350     1.7322070     0.3831320
  H        1.8065840    -2.3037040    -0.2799060
  H        2.8010350     2.5405970     0.1152150
  H        4.1326410    -1.4960120    -0.5534930
  H        4.6413930     0.9324010    -0.3562540
units angstrom
no_reorient  #important for SAPT in psi4, default
symmetry c1  #important for SAPT in psi4, default
}

set PROPERTIES_ORIGIN ["COM"]
properties('MP2/aug-cc-pvtz', properties = ['dipole'])
--------------------------------------------------------------------------

    Molecular point group: c1
  Charge       = 0
  Multiplicity = 1
  Basis Set: AUG-CC-PVTZ
    Blend: AUG-CC-PVTZ
  Basis Set: (AUG-CC-PVTZ AUX)
    Blend: AUG-CC-PVTZ-JKFIT

    Orbital Energies [Eh]
    ---------------------

    Doubly Occupied:

       1A    -11.236021     2A    -11.233491     3A    -11.232652
       4A    -11.228766     5A    -11.228443     6A    -11.228040
       7A    -11.227543     8A    -11.222988     9A    -11.216871
      10A    -11.214717    11A    -11.213333    12A    -11.211103
      13A     -1.155291    14A     -1.121603    15A     -1.038559
      16A     -1.008175    17A     -0.987562    18A     -0.954361
      19A     -0.891294    20A     -0.826545    21A     -0.815858
      22A     -0.765809    23A     -0.756509    24A     -0.689480
      25A     -0.658956    26A     -0.634457    27A     -0.620940
      28A     -0.605385    29A     -0.586751    30A     -0.581266
      31A     -0.574858    32A     -0.556157    33A     -0.531104
      34A     -0.511579    35A     -0.510419    36A     -0.490613
      37A     -0.472669    38A     -0.467298    39A     -0.461660
      40A     -0.456669    41A     -0.450210    42A     -0.434524
      43A     -0.332229    44A     -0.317941

  @DF-RHF Final Energy:  -463.89191620810573

   => Energetics <=

    Nuclear Repulsion Energy =            675.6990287084962574
    One-Electron Energy =               -1967.2604992787910305
    Two-Electron Energy =                 827.6695543621889328
    Total Energy =                       -463.8919162081057266
  Basis Set: (AUG-CC-PVTZ AUX)
    Blend: AUG-CC-PVTZ-RI
    Molecular point group: c1

    Geometry (in Angstrom), charge = 0, multiplicity = 1:

       Center              X                  Y                   Z               Mass
    ------------   -----------------  -----------------  -----------------  -----------------
         C           -0.517128625824    -0.830127766496     0.216111353674    12.000000000000
         C           -2.829556625824    -0.229830766496    -0.269717646326    12.000000000000
         C           -1.405303025824    -0.309676966496    -0.937346446326    12.000000000000
         C           -1.220217625824    -0.372961766496     1.532954353674    12.000000000000
         C           -2.488450625824     0.375260233504     1.094098353674    12.000000000000
         C            0.901731374176    -0.343922766496     0.068576353674    12.000000000000
         C           -3.844173625824     0.563966233504    -1.079918646326    12.000000000000
         C            1.203999374176     1.022768233504     0.175562353674    12.000000000000
         C            1.947858374176    -1.235789766496    -0.196915646326    12.000000000000
         C            2.512357374176     1.481443233504     0.025308353674    12.000000000000
         C            3.260153374176    -0.781894766496    -0.350162646326    12.000000000000
         C            3.546409374176     0.579389233504    -0.240115646326    12.000000000000
         H           -0.498707625824    -1.927413766496     0.191335353674     1.007825032230
         H           -3.215993625824    -1.247498766496    -0.108175646326     1.007825032230
         H           -1.131869625824     0.662588233504    -1.248253646326     1.007825032230
         H           -1.419611625824    -0.993092766496    -1.792086646326     1.007825032230
         H           -0.560731625824     0.242973233504     2.151735353674     1.007825032230
         H           -1.486816625824    -1.250665766496     2.131942353674     1.007825032230
         H           -3.306921625824     0.297280233504     1.818626353674     1.007825032230
         H           -2.275385625824     1.444769233504     0.958468353674     1.007825032230
         H           -3.478301625824     1.582136233504    -1.252754646326     1.007825032230
         H           -4.025147625824     0.100246233504    -2.054923646326     1.007825032230
         H           -4.803439625824     0.633674233504    -0.556791646326     1.007825032230
         H            0.406708374176     1.735899233504     0.382042353674     1.007825032230
         H            1.732057374176    -2.300011766496    -0.280995646326     1.007825032230
         H            2.726508374176     2.544289233504     0.114125353674     1.007825032230
         H            4.058114374176    -1.492319766496    -0.554582646326     1.007825032230
         H            4.566866374176     0.936093233504    -0.357343646326     1.007825032230

  Basis Set: AUG-CC-PVTZ
    Blend: AUG-CC-PVTZ
  Basis Set: (AUG-CC-PVTZ AUX)
    Blend: AUG-CC-PVTZ-JKFIT
	 Reference Energy          =    -463.8919162081057266 [Eh]
	 Singles Energy            =      -0.0000000000000000 [Eh]
	 Same-Spin Energy          =      -0.5193227620837936 [Eh]
	 Opposite-Spin Energy      =      -1.7264518534224678 [Eh]
	 Correlation Energy        =      -2.2457746155062615 [Eh]
	 Total Energy              =    -466.1376908236119903 [Eh]

	 ================> DF-SCS-MP2 Energies <==================
	-----------------------------------------------------------
	 SCS Same-Spin Scale       =       0.3333333333333333 [-]
	 SCS Opposite-Spin Scale   =       1.2000000000000000 [-]
	 SCS Same-Spin Energy      =      -0.1731075873612645 [Eh]
	 SCS Opposite-Spin Energy  =      -2.0717422241069614 [Eh]
	 SCS Correlation Energy    =      -2.2448498114682258 [Eh]
	 SCS Total Energy          =    -466.1367660195739404 [Eh]
	-----------------------------------------------------------

  Dipole Moment: [D]
     X:    -0.5927      Y:    -0.2029      Z:     0.0346     Total:     0.6274

*** Psi4 exiting successfully. Buy a developer a beer!
