                               Psi4 1.4a3.dev225

  ==> Input File <==

--------------------------------------------------------------------------
#psi4
#
memory 32 gb

molecule  {
0 1
  C       -0.4426020    -0.8338200     0.2172010
  C       -2.7550300    -0.2335230    -0.2686280
  C       -1.3727340    -0.3393290    -0.9144000
  C       -1.1456910    -0.3766540     1.5340440
  C       -2.4304320     0.3813073     1.0894756
  C        0.9762580    -0.3476150     0.0696660
  C       -3.7696470     0.5602740    -1.0788290
  C        1.2785260     1.0190760     0.1766520
  C        2.0223850    -1.2394820    -0.1958260
  C        2.5868840     1.4777510     0.0263980
  C        3.3346800    -0.7855870    -0.3490730
  C        3.6209360     0.5756970    -0.2390260
  H       -0.4241810    -1.9311060     0.1924250
  H       -3.1414670    -1.2511910    -0.1070860
  H       -1.0573430     0.6588960    -1.2471640
  H       -1.3450850    -0.9967850    -1.7909970
  H       -0.4862050     0.2392810     2.1528250
  H       -1.4122900    -1.2543580     2.1330320
  H       -3.2323950     0.2935880     1.8197160
  H       -2.2008590     1.4410770     0.9595580
  H       -3.4037750     1.5784440    -1.2516650
  H       -3.9506210     0.0965540    -2.0538340
  H       -4.7289130     0.6299820    -0.5557020
  H        0.4812350     1.7322070     0.3831320
  H        1.8065840    -2.3037040    -0.2799060
  H        2.8010350     2.5405970     0.1152150
  H        4.1326410    -1.4960120    -0.5534930
  H        4.6413930     0.9324010    -0.3562540
units angstrom
no_reorient  #important for SAPT in psi4, default
symmetry c1  #important for SAPT in psi4, default
}

set PROPERTIES_ORIGIN ["COM"]
properties('MP2/aug-cc-pvtz', properties = ['dipole'])
--------------------------------------------------------------------------

    Molecular point group: c1
  Charge       = 0
  Multiplicity = 1
  Basis Set: AUG-CC-PVTZ
    Blend: AUG-CC-PVTZ
  Basis Set: (AUG-CC-PVTZ AUX)
    Blend: AUG-CC-PVTZ-JKFIT

    Orbital Energies [Eh]
    ---------------------

    Doubly Occupied:

       1A    -11.236472     2A    -11.233566     3A    -11.232825
       4A    -11.228896     5A    -11.228402     6A    -11.228306
       7A    -11.228079     8A    -11.221042     9A    -11.217340
      10A    -11.214894    11A    -11.214389    12A    -11.211239
      13A     -1.155673    14A     -1.124119    15A     -1.039807
      16A     -1.008407    17A     -0.986733    18A     -0.953475
      19A     -0.892732    20A     -0.826512    21A     -0.816443
      22A     -0.764272    23A     -0.757144    24A     -0.689835
      25A     -0.660614    26A     -0.634928    27A     -0.622091
      28A     -0.605593    29A     -0.585591    30A     -0.580143
      31A     -0.573716    32A     -0.556180    33A     -0.528418
      34A     -0.511977    35A     -0.509934    36A     -0.490109
      37A     -0.473827    38A     -0.462778    39A     -0.461827
      40A     -0.453467    41A     -0.451301    42A     -0.443430
      43A     -0.332325    44A     -0.318742

  @DF-RHF Final Energy:  -463.89421056330968

   => Energetics <=

    Nuclear Repulsion Energy =            675.7331921112419195
    One-Electron Energy =               -1967.3196322996989238
    Two-Electron Energy =                 827.6922296251472062
    Total Energy =                       -463.8942105633096844
  Basis Set: (AUG-CC-PVTZ AUX)
    Blend: AUG-CC-PVTZ-RI
    Molecular point group: c1

    Geometry (in Angstrom), charge = 0, multiplicity = 1:

       Center              X                  Y                   Z               Mass
    ------------   -----------------  -----------------  -----------------  -----------------
         C           -0.512747134355    -0.828912180197     0.214901470411    12.000000000000
         C           -2.825175134355    -0.228615180197    -0.270927529589    12.000000000000
         C           -1.442879134355    -0.334421180197    -0.916699529589    12.000000000000
         C           -1.215836134355    -0.371746180197     1.531744470411    12.000000000000
         C           -2.500577134355     0.386215119803     1.087176070411    12.000000000000
         C            0.906112865645    -0.342707180197     0.067366470411    12.000000000000
         C           -3.839792134355     0.565181819803    -1.081128529589    12.000000000000
         C            1.208380865645     1.023983819803     0.174352470411    12.000000000000
         C            1.952239865645    -1.234574180197    -0.198125529589    12.000000000000
         C            2.516738865645     1.482658819803     0.024098470411    12.000000000000
         C            3.264534865645    -0.780679180197    -0.351372529589    12.000000000000
         C            3.550790865645     0.580604819803    -0.241325529589    12.000000000000
         H           -0.494326134355    -1.926198180197     0.190125470411     1.007825032230
         H           -3.211612134355    -1.246283180197    -0.109385529589     1.007825032230
         H           -1.127488134355     0.663803819803    -1.249463529589     1.007825032230
         H           -1.415230134355    -0.991877180197    -1.793296529589     1.007825032230
         H           -0.556350134355     0.244188819803     2.150525470411     1.007825032230
         H           -1.482435134355    -1.249450180197     2.130732470411     1.007825032230
         H           -3.302540134355     0.298495819803     1.817416470411     1.007825032230
         H           -2.271004134355     1.445984819803     0.957258470411     1.007825032230
         H           -3.473920134355     1.583351819803    -1.253964529589     1.007825032230
         H           -4.020766134355     0.101461819803    -2.056133529589     1.007825032230
         H           -4.799058134355     0.634889819803    -0.558001529589     1.007825032230
         H            0.411089865645     1.737114819803     0.380832470411     1.007825032230
         H            1.736438865645    -2.298796180197    -0.282205529589     1.007825032230
         H            2.730889865645     2.545504819803     0.112915470411     1.007825032230
         H            4.062495865645    -1.491104180197    -0.555792529589     1.007825032230
         H            4.571247865645     0.937308819803    -0.358553529589     1.007825032230

  Basis Set: AUG-CC-PVTZ
    Blend: AUG-CC-PVTZ
  Basis Set: (AUG-CC-PVTZ AUX)
    Blend: AUG-CC-PVTZ-JKFIT
	 Reference Energy          =    -463.8942105633096844 [Eh]
	 Singles Energy            =      -0.0000000000000000 [Eh]
	 Same-Spin Energy          =      -0.5194322435919422 [Eh]
	 Opposite-Spin Energy      =      -1.7264128527682505 [Eh]
	 Correlation Energy        =      -2.2458450963601928 [Eh]
	 Total Energy              =    -466.1400556596698834 [Eh]

	 ================> DF-SCS-MP2 Energies <==================
	-----------------------------------------------------------
	 SCS Same-Spin Scale       =       0.3333333333333333 [-]
	 SCS Opposite-Spin Scale   =       1.2000000000000000 [-]
	 SCS Same-Spin Energy      =      -0.1731440811973141 [Eh]
	 SCS Opposite-Spin Energy  =      -2.0716954233219007 [Eh]
	 SCS Correlation Energy    =      -2.2448395045192147 [Eh]
	 SCS Total Energy          =    -466.1390500678289186 [Eh]
	-----------------------------------------------------------

  Dipole Moment: [D]
     X:    -0.5704      Y:    -0.2008      Z:     0.0419     Total:     0.6062

*** Psi4 exiting successfully. Buy a developer a beer!
