                               Psi4 1.4a3.dev225

  ==> Input File <==

--------------------------------------------------------------------------
#psi4
#
memory 32 gb

molecule  {
0 1
  C       -0.4426020    -0.8338200     0.2172010
  C       -2.7550300    -0.2335230    -0.2686280
  C       -1.3932910    -0.3525369    -0.9029529
  C       -1.1456910    -0.3766540     1.5340440
  C       -2.4139240     0.3715680     1.0951880
  C        0.9762580    -0.3476150     0.0696660
  C       -3.7696470     0.5602740    -1.0788290
  C        1.2785260     1.0190760     0.1766520
  C        2.0223850    -1.2394820    -0.1958260
  C        2.5868840     1.4777510     0.0263980
  C        3.3346800    -0.7855870    -0.3490730
  C        3.6209360     0.5756970    -0.2390260
  H       -0.4241810    -1.9311060     0.1924250
  H       -3.1414670    -1.2511910    -0.1070860
  H       -1.0573430     0.6588960    -1.2471640
  H       -1.3450850    -0.9967850    -1.7909970
  H       -0.4862050     0.2392810     2.1528250
  H       -1.4122900    -1.2543580     2.1330320
  H       -3.2323950     0.2935880     1.8197160
  H       -2.2008590     1.4410770     0.9595580
  H       -3.4037750     1.5784440    -1.2516650
  H       -3.9506210     0.0965540    -2.0538340
  H       -4.7289130     0.6299820    -0.5557020
  H        0.4812350     1.7322070     0.3831320
  H        1.8065840    -2.3037040    -0.2799060
  H        2.8010350     2.5405970     0.1152150
  H        4.1326410    -1.4960120    -0.5534930
  H        4.6413930     0.9324010    -0.3562540
units angstrom
no_reorient  #important for SAPT in psi4, default
symmetry c1  #important for SAPT in psi4, default
}

set PROPERTIES_ORIGIN ["COM"]
properties('MP2/aug-cc-pvtz', properties = ['dipole'])
--------------------------------------------------------------------------

    Molecular point group: c1
  Charge       = 0
  Multiplicity = 1
  Basis Set: AUG-CC-PVTZ
    Blend: AUG-CC-PVTZ
  Basis Set: (AUG-CC-PVTZ AUX)
    Blend: AUG-CC-PVTZ-JKFIT

    Orbital Energies [Eh]
    ---------------------

    Doubly Occupied:

       1A    -11.236760     2A    -11.233630     3A    -11.232942
       4A    -11.229162     5A    -11.228605     6A    -11.228413
       7A    -11.228289     8A    -11.220259     9A    -11.216631
      10A    -11.215717    11A    -11.215007    12A    -11.211874
      13A     -1.156468    14A     -1.126572    15A     -1.040021
      16A     -1.008568    17A     -0.988950    18A     -0.953564
      19A     -0.893516    20A     -0.826316    21A     -0.816380
      22A     -0.763381    23A     -0.756768    24A     -0.690139
      25A     -0.661177    26A     -0.635593    27A     -0.622395
      28A     -0.607068    29A     -0.586066    30A     -0.579643
      31A     -0.572775    32A     -0.556082    33A     -0.527461
      34A     -0.510930    35A     -0.509612    36A     -0.489787
      37A     -0.476966    38A     -0.462597    39A     -0.461102
      40A     -0.453004    41A     -0.449047    42A     -0.446144
      43A     -0.332397    44A     -0.319169

  @DF-RHF Final Energy:  -463.89345082732530

   => Energetics <=

    Nuclear Repulsion Energy =            676.0683991051346311
    One-Electron Energy =               -1967.9697997058112833
    Two-Electron Energy =                 828.0079497733513563
    Total Energy =                       -463.8934508273252959
  Basis Set: (AUG-CC-PVTZ AUX)
    Blend: AUG-CC-PVTZ-RI
    Molecular point group: c1

    Geometry (in Angstrom), charge = 0, multiplicity = 1:

       Center              X                  Y                   Z               Mass
    ------------   -----------------  -----------------  -----------------  -----------------
         C           -0.512443696796    -0.827192485863     0.213615514176    12.000000000000
         C           -2.824871696796    -0.226895485863    -0.272213485824    12.000000000000
         C           -1.463132696796    -0.345909385863    -0.906538385824    12.000000000000
         C           -1.215532696796    -0.370026485863     1.530458514176    12.000000000000
         C           -2.483765696796     0.378195514137     1.091602514176    12.000000000000
         C            0.906416303204    -0.340987485863     0.066080514176    12.000000000000
         C           -3.839488696796     0.566901514137    -1.082414485824    12.000000000000
         C            1.208684303204     1.025703514137     0.173066514176    12.000000000000
         C            1.952543303204    -1.232854485863    -0.199411485824    12.000000000000
         C            2.517042303204     1.484378514137     0.022812514176    12.000000000000
         C            3.264838303204    -0.778959485863    -0.352658485824    12.000000000000
         C            3.551094303204     0.582324514137    -0.242611485824    12.000000000000
         H           -0.494022696796    -1.924478485863     0.188839514176     1.007825032230
         H           -3.211308696796    -1.244563485863    -0.110671485824     1.007825032230
         H           -1.127184696796     0.665523514137    -1.250749485824     1.007825032230
         H           -1.414926696796    -0.990157485863    -1.794582485824     1.007825032230
         H           -0.556046696796     0.245908514137     2.149239514176     1.007825032230
         H           -1.482131696796    -1.247730485863     2.129446514176     1.007825032230
         H           -3.302236696796     0.300215514137     1.816130514176     1.007825032230
         H           -2.270700696796     1.447704514137     0.955972514176     1.007825032230
         H           -3.473616696796     1.585071514137    -1.255250485824     1.007825032230
         H           -4.020462696796     0.103181514137    -2.057419485824     1.007825032230
         H           -4.798754696796     0.636609514137    -0.559287485824     1.007825032230
         H            0.411393303204     1.738834514137     0.379546514176     1.007825032230
         H            1.736742303204    -2.297076485863    -0.283491485824     1.007825032230
         H            2.731193303204     2.547224514137     0.111629514176     1.007825032230
         H            4.062799303204    -1.489384485863    -0.557078485824     1.007825032230
         H            4.571551303204     0.939028514137    -0.359839485824     1.007825032230

  Basis Set: AUG-CC-PVTZ
    Blend: AUG-CC-PVTZ
  Basis Set: (AUG-CC-PVTZ AUX)
    Blend: AUG-CC-PVTZ-JKFIT
	 Reference Energy          =    -463.8934508273252959 [Eh]
	 Singles Energy            =      -0.0000000000000000 [Eh]
	 Same-Spin Energy          =      -0.5196837347208370 [Eh]
	 Opposite-Spin Energy      =      -1.7265887884715747 [Eh]
	 Correlation Energy        =      -2.2462725231924114 [Eh]
	 Total Energy              =    -466.1397233505177269 [Eh]

	 ================> DF-SCS-MP2 Energies <==================
	-----------------------------------------------------------
	 SCS Same-Spin Scale       =       0.3333333333333333 [-]
	 SCS Opposite-Spin Scale   =       1.2000000000000000 [-]
	 SCS Same-Spin Energy      =      -0.1732279115736123 [Eh]
	 SCS Opposite-Spin Energy  =      -2.0719065461658897 [Eh]
	 SCS Correlation Energy    =      -2.2451344577395020 [Eh]
	 SCS Total Energy          =    -466.1385852850647780 [Eh]
	-----------------------------------------------------------

  Dipole Moment: [D]
     X:    -0.5598      Y:    -0.2038      Z:     0.0413     Total:     0.5972

*** Psi4 exiting successfully. Buy a developer a beer!
