                               Psi4 1.4a3.dev225

  ==> Input File <==

--------------------------------------------------------------------------
#psi4
#
memory 32 gb

molecule  {
0 1
  C       -0.4426020    -0.8338200     0.2172010
  C       -2.7550300    -0.2335230    -0.2686280
  C       -1.3727340    -0.3393290    -0.9144000
  C       -1.1456910    -0.3766540     1.5340440
  C       -2.4139240     0.3715680     1.0951880
  C        0.9762580    -0.3476150     0.0696660
  C       -3.7696470     0.5602740    -1.0788290
  C        1.2785260     1.0190760     0.1766520
  C        2.0223850    -1.2394820    -0.1958260
  C        2.5868840     1.4777510     0.0263980
  C        3.3346800    -0.7855870    -0.3490730
  C        3.6209360     0.5756970    -0.2390260
  H       -0.4241810    -1.9311060     0.1924250
  H       -3.1414670    -1.2511910    -0.1070860
  H       -1.0573430     0.6588960    -1.2471640
  H       -1.3450850    -0.9967850    -1.7909970
  H       -0.5163416     0.2111345     2.1245485
  H       -1.4122900    -1.2543580     2.1330320
  H       -3.2323950     0.2935880     1.8197160
  H       -2.2008590     1.4410770     0.9595580
  H       -3.4037750     1.5784440    -1.2516650
  H       -3.9506210     0.0965540    -2.0538340
  H       -4.7289130     0.6299820    -0.5557020
  H        0.4812350     1.7322070     0.3831320
  H        1.8065840    -2.3037040    -0.2799060
  H        2.8010350     2.5405970     0.1152150
  H        4.1326410    -1.4960120    -0.5534930
  H        4.6413930     0.9324010    -0.3562540
units angstrom
no_reorient  #important for SAPT in psi4, default
symmetry c1  #important for SAPT in psi4, default
}

set PROPERTIES_ORIGIN ["COM"]
properties('MP2/aug-cc-pvtz', properties = ['dipole'])
--------------------------------------------------------------------------

    Molecular point group: c1
  Charge       = 0
  Multiplicity = 1
  Basis Set: AUG-CC-PVTZ
    Blend: AUG-CC-PVTZ
  Basis Set: (AUG-CC-PVTZ AUX)
    Blend: AUG-CC-PVTZ-JKFIT

    Orbital Energies [Eh]
    ---------------------

    Doubly Occupied:

       1A    -11.236514     2A    -11.233704     3A    -11.232945
       4A    -11.229019     5A    -11.228539     6A    -11.228179
       7A    -11.227856     8A    -11.220815     9A    -11.214528
      10A    -11.214417    11A    -11.211312    12A    -11.210474
      13A     -1.156120    14A     -1.124885    15A     -1.039485
      16A     -1.008545    17A     -0.989841    18A     -0.954054
      19A     -0.893465    20A     -0.827107    21A     -0.816923
      22A     -0.763305    23A     -0.759451    24A     -0.690611
      25A     -0.660112    26A     -0.636246    27A     -0.622286
      28A     -0.607822    29A     -0.586529    30A     -0.580101
      31A     -0.573469    32A     -0.557033    33A     -0.528548
      34A     -0.511914    35A     -0.510160    36A     -0.490264
      37A     -0.476060    38A     -0.463115    39A     -0.460983
      40A     -0.453544    41A     -0.451591    42A     -0.443989
      43A     -0.332468    44A     -0.318888

  @DF-RHF Final Energy:  -463.89363011699970

   => Energetics <=

    Nuclear Repulsion Energy =            676.1767135925753109
    One-Electron Energy =               -1968.1862526781064844
    Two-Electron Energy =                 828.1159089685315848
    Total Energy =                       -463.8936301169997023
  Basis Set: (AUG-CC-PVTZ AUX)
    Blend: AUG-CC-PVTZ-RI
    Molecular point group: c1

    Geometry (in Angstrom), charge = 0, multiplicity = 1:

       Center              X                  Y                   Z               Mass
    ------------   -----------------  -----------------  -----------------  -----------------
         C           -0.513794587095    -0.828005150280     0.214651347162    12.000000000000
         C           -2.826222587095    -0.227708150280    -0.271177652838    12.000000000000
         C           -1.443926587095    -0.333514150280    -0.916949652838    12.000000000000
         C           -1.216883587095    -0.370839150280     1.531494347162    12.000000000000
         C           -2.485116587095     0.377382849720     1.092638347162    12.000000000000
         C            0.905065412905    -0.341800150280     0.067116347162    12.000000000000
         C           -3.840839587095     0.566088849720    -1.081378652838    12.000000000000
         C            1.207333412905     1.024890849720     0.174102347162    12.000000000000
         C            1.951192412905    -1.233667150280    -0.198375652838    12.000000000000
         C            2.515691412905     1.483565849720     0.023848347162    12.000000000000
         C            3.263487412905    -0.779772150280    -0.351622652838    12.000000000000
         C            3.549743412905     0.581511849720    -0.241575652838    12.000000000000
         H           -0.495373587095    -1.925291150280     0.189875347162     1.007825032230
         H           -3.212659587095    -1.245376150280    -0.109635652838     1.007825032230
         H           -1.128535587095     0.664710849720    -1.249713652838     1.007825032230
         H           -1.416277587095    -0.990970150280    -1.793546652838     1.007825032230
         H           -0.587534187095     0.216949349720     2.121998847162     1.007825032230
         H           -1.483482587095    -1.248543150280     2.130482347162     1.007825032230
         H           -3.303587587095     0.299402849720     1.817166347162     1.007825032230
         H           -2.272051587095     1.446891849720     0.957008347162     1.007825032230
         H           -3.474967587095     1.584258849720    -1.254214652838     1.007825032230
         H           -4.021813587095     0.102368849720    -2.056383652838     1.007825032230
         H           -4.800105587095     0.635796849720    -0.558251652838     1.007825032230
         H            0.410042412905     1.738021849720     0.380582347162     1.007825032230
         H            1.735391412905    -2.297889150280    -0.282455652838     1.007825032230
         H            2.729842412905     2.546411849720     0.112665347162     1.007825032230
         H            4.061448412905    -1.490197150280    -0.556042652838     1.007825032230
         H            4.570200412905     0.938215849720    -0.358803652838     1.007825032230

  Basis Set: AUG-CC-PVTZ
    Blend: AUG-CC-PVTZ
  Basis Set: (AUG-CC-PVTZ AUX)
    Blend: AUG-CC-PVTZ-JKFIT
	 Reference Energy          =    -463.8936301169997023 [Eh]
	 Singles Energy            =      -0.0000000000000000 [Eh]
	 Same-Spin Energy          =      -0.5194415813934968 [Eh]
	 Opposite-Spin Energy      =      -1.7260494783802918 [Eh]
	 Correlation Energy        =      -2.2454910597737885 [Eh]
	 Total Energy              =    -466.1391211767734717 [Eh]

	 ================> DF-SCS-MP2 Energies <==================
	-----------------------------------------------------------
	 SCS Same-Spin Scale       =       0.3333333333333333 [-]
	 SCS Opposite-Spin Scale   =       1.2000000000000000 [-]
	 SCS Same-Spin Energy      =      -0.1731471937978323 [Eh]
	 SCS Opposite-Spin Energy  =      -2.0712593740563499 [Eh]
	 SCS Correlation Energy    =      -2.2444065678541820 [Eh]
	 SCS Total Energy          =    -466.1380366848538870 [Eh]
	-----------------------------------------------------------

  Dipole Moment: [D]
     X:    -0.5477      Y:    -0.1957      Z:     0.0599     Total:     0.5847

*** Psi4 exiting successfully. Buy a developer a beer!
