                               Psi4 1.4a3.dev225

  ==> Input File <==

--------------------------------------------------------------------------
#psi4
#
memory 32 gb

molecule  {
0 1
  C       -0.4426020    -0.8338200     0.2172010
  C       -2.7550300    -0.2335230    -0.2686280
  C       -1.3727340    -0.3393290    -0.9144000
  C       -1.1456910    -0.3766540     1.5340440
  C       -2.4139240     0.3715680     1.0951880
  C        0.7879669    -0.4121373     0.0892448
  C       -3.7696470     0.5602740    -1.0788290
  C        1.2785260     1.0190760     0.1766520
  C        2.0223850    -1.2394820    -0.1958260
  C        2.5868840     1.4777510     0.0263980
  C        3.3346800    -0.7855870    -0.3490730
  C        3.6209360     0.5756970    -0.2390260
  H       -0.4241810    -1.9311060     0.1924250
  H       -3.1414670    -1.2511910    -0.1070860
  H       -1.0573430     0.6588960    -1.2471640
  H       -1.3450850    -0.9967850    -1.7909970
  H       -0.4862050     0.2392810     2.1528250
  H       -1.4122900    -1.2543580     2.1330320
  H       -3.2323950     0.2935880     1.8197160
  H       -2.2008590     1.4410770     0.9595580
  H       -3.4037750     1.5784440    -1.2516650
  H       -3.9506210     0.0965540    -2.0538340
  H       -4.7289130     0.6299820    -0.5557020
  H        0.4812350     1.7322070     0.3831320
  H        1.8065840    -2.3037040    -0.2799060
  H        2.8010350     2.5405970     0.1152150
  H        4.1326410    -1.4960120    -0.5534930
  H        4.6413930     0.9324010    -0.3562540
units angstrom
no_reorient  #important for SAPT in psi4, default
symmetry c1  #important for SAPT in psi4, default
}

set PROPERTIES_ORIGIN ["COM"]
properties('MP2/aug-cc-pvtz', properties = ['dipole'])
--------------------------------------------------------------------------

    Molecular point group: c1
  Charge       = 0
  Multiplicity = 1
  Basis Set: AUG-CC-PVTZ
    Blend: AUG-CC-PVTZ
  Basis Set: (AUG-CC-PVTZ AUX)
    Blend: AUG-CC-PVTZ-JKFIT

    Orbital Energies [Eh]
    ---------------------

    Doubly Occupied:

       1A    -11.252226     2A    -11.237803     3A    -11.237468
       4A    -11.232166     5A    -11.231397     6A    -11.227530
       7A    -11.225255     8A    -11.223408     9A    -11.222160
      10A    -11.219992    11A    -11.218899    12A    -11.214579
      13A     -1.166070    14A     -1.118691    15A     -1.061829
      16A     -0.998957    17A     -0.988476    18A     -0.950954
      19A     -0.903944    20A     -0.835486    21A     -0.809811
      22A     -0.768609    23A     -0.755436    24A     -0.685906
      25A     -0.669232    26A     -0.652109    27A     -0.624648
      28A     -0.601983    29A     -0.587337    30A     -0.575914
      31A     -0.565626    32A     -0.562121    33A     -0.531506
      34A     -0.515743    35A     -0.514950    36A     -0.493021
      37A     -0.482151    38A     -0.471390    39A     -0.465102
      40A     -0.457969    41A     -0.452002    42A     -0.426534
      43A     -0.328546    44A     -0.294726

  @DF-RHF Final Energy:  -463.83083518395125

   => Energetics <=

    Nuclear Repulsion Energy =            676.3419990495395950
    One-Electron Energy =               -1968.2263395666677752
    Two-Electron Energy =                 828.0535053331769859
    Total Energy =                       -463.8308351839513080
  Basis Set: (AUG-CC-PVTZ AUX)
    Blend: AUG-CC-PVTZ-RI
    Molecular point group: c1

    Geometry (in Angstrom), charge = 0, multiplicity = 1:

       Center              X                  Y                   Z               Mass
    ------------   -----------------  -----------------  -----------------  -----------------
         C           -0.499873475534    -0.823346915035     0.213006113534    12.000000000000
         C           -2.812301475534    -0.223049915035    -0.272822886466    12.000000000000
         C           -1.430005475534    -0.328855915035    -0.918594886466    12.000000000000
         C           -1.202962475534    -0.366180915035     1.529849113534    12.000000000000
         C           -2.471195475534     0.382041084965     1.090993113534    12.000000000000
         C            0.730695424466    -0.401664215035     0.085049913534    12.000000000000
         C           -3.826918475534     0.570747084965    -1.083023886466    12.000000000000
         C            1.221254524466     1.029549084965     0.172457113534    12.000000000000
         C            1.965113524466    -1.229008915035    -0.200020886466    12.000000000000
         C            2.529612524466     1.488224084965     0.022203113534    12.000000000000
         C            3.277408524466    -0.775113915035    -0.353267886466    12.000000000000
         C            3.563664524466     0.586170084965    -0.243220886466    12.000000000000
         H           -0.481452475534    -1.920632915035     0.188230113534     1.007825032230
         H           -3.198738475534    -1.240717915035    -0.111280886466     1.007825032230
         H           -1.114614475534     0.669369084965    -1.251358886466     1.007825032230
         H           -1.402356475534    -0.986311915035    -1.795191886466     1.007825032230
         H           -0.543476475534     0.249754084965     2.148630113534     1.007825032230
         H           -1.469561475534    -1.243884915035     2.128837113534     1.007825032230
         H           -3.289666475534     0.304061084965     1.815521113534     1.007825032230
         H           -2.258130475534     1.451550084965     0.955363113534     1.007825032230
         H           -3.461046475534     1.588917084965    -1.255859886466     1.007825032230
         H           -4.007892475534     0.107027084965    -2.058028886466     1.007825032230
         H           -4.786184475534     0.640455084965    -0.559896886466     1.007825032230
         H            0.423963524466     1.742680084965     0.378937113534     1.007825032230
         H            1.749312524466    -2.293230915035    -0.284100886466     1.007825032230
         H            2.743763524466     2.551070084965     0.111020113534     1.007825032230
         H            4.075369524466    -1.485538915035    -0.557687886466     1.007825032230
         H            4.584121524466     0.942874084965    -0.360448886466     1.007825032230

  Basis Set: AUG-CC-PVTZ
    Blend: AUG-CC-PVTZ
  Basis Set: (AUG-CC-PVTZ AUX)
    Blend: AUG-CC-PVTZ-JKFIT
	 Reference Energy          =    -463.8308351839512511 [Eh]
	 Singles Energy            =      -0.0000000000000000 [Eh]
	 Same-Spin Energy          =      -0.5244341845425953 [Eh]
	 Opposite-Spin Energy      =      -1.7344322217205819 [Eh]
	 Correlation Energy        =      -2.2588664062631771 [Eh]
	 Total Energy              =    -466.0897015902144176 [Eh]

	 ================> DF-SCS-MP2 Energies <==================
	-----------------------------------------------------------
	 SCS Same-Spin Scale       =       0.3333333333333333 [-]
	 SCS Opposite-Spin Scale   =       1.2000000000000000 [-]
	 SCS Same-Spin Energy      =      -0.1748113948475317 [Eh]
	 SCS Opposite-Spin Energy  =      -2.0813186660646981 [Eh]
	 SCS Correlation Energy    =      -2.2561300609122297 [Eh]
	 SCS Total Energy          =    -466.0869652448635065 [Eh]
	-----------------------------------------------------------

  Dipole Moment: [D]
     X:    -1.1043      Y:    -0.2405      Z:     0.0755     Total:     1.1327

*** Psi4 exiting successfully. Buy a developer a beer!
