                               Psi4 1.4a3.dev225

  ==> Input File <==

--------------------------------------------------------------------------
#psi4
#
memory 32 gb

molecule  {
0 1
  C       -0.4426020    -0.8338200     0.2172010
  C       -2.7550300    -0.2335230    -0.2686280
  C       -1.3727340    -0.3393290    -0.9144000
  C       -1.1456910    -0.3766540     1.5340440
  C       -2.4139240     0.3715680     1.0951880
  C        0.9762580    -0.3476150     0.0696660
  C       -3.7696470     0.5602740    -1.0788290
  C        1.2785260     1.0190760     0.1766520
  C        2.0223850    -1.2394820    -0.1958260
  C        2.5868840     1.4777510     0.0263980
  C        3.3346800    -0.7855870    -0.3490730
  C        3.6209360     0.5756970    -0.2390260
  H       -0.4241810    -1.9311060     0.1924250
  H       -3.1414670    -1.2511910    -0.1070860
  H       -1.0573430     0.6588960    -1.2471640
  H       -1.3450850    -0.9967850    -1.7909970
  H       -0.4862050     0.2392810     2.1528250
  H       -1.4122900    -1.2543580     2.1330320
  H       -3.2323950     0.2935880     1.8197160
  H       -2.2008590     1.4410770     0.9595580
  H       -3.4037750     1.5784440    -1.2516650
  H       -3.9506210     0.0965540    -2.0538340
  H       -4.7289130     0.6299820    -0.5557020
  H        0.4812350     1.7322070     0.3831320
  H        1.8065840    -2.3037040    -0.2799060
  H        2.8010350     2.5405970     0.1152150
  H        4.1326410    -1.4960120    -0.5534930
  H        4.6413930     0.9324010    -0.3562540
units angstrom
no_reorient  #important for SAPT in psi4, default
symmetry c1  #important for SAPT in psi4, default
}

set PROPERTIES_ORIGIN ["COM"]
properties('MP2/aug-cc-pvtz', properties = ['dipole'])
--------------------------------------------------------------------------

    Molecular point group: c1
  Charge       = 0
  Multiplicity = 1
  Basis Set: AUG-CC-PVTZ
    Blend: AUG-CC-PVTZ
  Basis Set: (AUG-CC-PVTZ AUX)
    Blend: AUG-CC-PVTZ-JKFIT

    Orbital Energies [Eh]
    ---------------------

    Doubly Occupied:

       1A    -11.236491     2A    -11.233583     3A    -11.232843
       4A    -11.228924     5A    -11.228425     6A    -11.228361
       7A    -11.228109     8A    -11.221166     9A    -11.216690
      10A    -11.214884    11A    -11.214733    12A    -11.211585
      13A     -1.155993    14A     -1.124810    15A     -1.039478
      16A     -1.008435    17A     -0.988452    18A     -0.953776
      19A     -0.892653    20A     -0.826364    21A     -0.816192
      22A     -0.763588    23A     -0.757203    24A     -0.689882
      25A     -0.660421    26A     -0.635184    27A     -0.621867
      28A     -0.606495    29A     -0.586136    30A     -0.579970
      31A     -0.573493    32A     -0.556121    33A     -0.528549
      34A     -0.510909    35A     -0.510034    36A     -0.490014
      37A     -0.475268    38A     -0.463380    39A     -0.461271
      40A     -0.453735    41A     -0.450286    42A     -0.443855
      43A     -0.332342    44A     -0.318794

  @DF-RHF Final Energy:  -463.89441291302228

   => Energetics <=

    Nuclear Repulsion Energy =            675.9395806164219493
    One-Electron Energy =               -1967.7264944655860290
    Two-Electron Energy =                 827.8925009361419143
    Total Energy =                       -463.8944129130222791
  Basis Set: (AUG-CC-PVTZ AUX)
    Blend: AUG-CC-PVTZ-RI
    Molecular point group: c1

    Geometry (in Angstrom), charge = 0, multiplicity = 1:

       Center              X                  Y                   Z               Mass
    ------------   -----------------  -----------------  -----------------  -----------------
         C           -0.513984266295    -0.828182303827     0.214473375397    12.000000000000
         C           -2.826412266295    -0.227885303827    -0.271355624603    12.000000000000
         C           -1.444116266295    -0.333691303827    -0.917127624603    12.000000000000
         C           -1.217073266295    -0.371016303827     1.531316375397    12.000000000000
         C           -2.485306266295     0.377205696173     1.092460375397    12.000000000000
         C            0.904875733705    -0.341977303827     0.066938375397    12.000000000000
         C           -3.841029266295     0.565911696173    -1.081556624603    12.000000000000
         C            1.207143733705     1.024713696173     0.173924375397    12.000000000000
         C            1.951002733705    -1.233844303827    -0.198553624603    12.000000000000
         C            2.515501733705     1.483388696173     0.023670375397    12.000000000000
         C            3.263297733705    -0.779949303827    -0.351800624603    12.000000000000
         C            3.549553733705     0.581334696173    -0.241753624603    12.000000000000
         H           -0.495563266295    -1.925468303827     0.189697375397     1.007825032230
         H           -3.212849266295    -1.245553303827    -0.109813624603     1.007825032230
         H           -1.128725266295     0.664533696173    -1.249891624603     1.007825032230
         H           -1.416467266295    -0.991147303827    -1.793724624603     1.007825032230
         H           -0.557587266295     0.244918696173     2.150097375397     1.007825032230
         H           -1.483672266295    -1.248720303827     2.130304375397     1.007825032230
         H           -3.303777266295     0.299225696173     1.816988375397     1.007825032230
         H           -2.272241266295     1.446714696173     0.956830375397     1.007825032230
         H           -3.475157266295     1.584081696173    -1.254392624603     1.007825032230
         H           -4.022003266295     0.102191696173    -2.056561624603     1.007825032230
         H           -4.800295266295     0.635619696173    -0.558429624603     1.007825032230
         H            0.409852733705     1.737844696173     0.380404375397     1.007825032230
         H            1.735201733705    -2.298066303827    -0.282633624603     1.007825032230
         H            2.729652733705     2.546234696173     0.112487375397     1.007825032230
         H            4.061258733705    -1.490374303827    -0.556220624603     1.007825032230
         H            4.570010733705     0.938038696173    -0.358981624603     1.007825032230

  Basis Set: AUG-CC-PVTZ
    Blend: AUG-CC-PVTZ
  Basis Set: (AUG-CC-PVTZ AUX)
    Blend: AUG-CC-PVTZ-JKFIT
	 Reference Energy          =    -463.8944129130222791 [Eh]
	 Singles Energy            =      -0.0000000000000000 [Eh]
	 Same-Spin Energy          =      -0.5195083136795781 [Eh]
	 Opposite-Spin Energy      =      -1.7264359629168156 [Eh]
	 Correlation Energy        =      -2.2459442765963935 [Eh]
	 Total Energy              =    -466.1403571896186691 [Eh]

	 ================> DF-SCS-MP2 Energies <==================
	-----------------------------------------------------------
	 SCS Same-Spin Scale       =       0.3333333333333333 [-]
	 SCS Opposite-Spin Scale   =       1.2000000000000000 [-]
	 SCS Same-Spin Energy      =      -0.1731694378931927 [Eh]
	 SCS Opposite-Spin Energy  =      -2.0717231555001785 [Eh]
	 SCS Correlation Energy    =      -2.2448925933933710 [Eh]
	 SCS Total Energy          =    -466.1393055064156670 [Eh]
	-----------------------------------------------------------

  Dipole Moment: [D]
     X:    -0.5692      Y:    -0.2026      Z:     0.0373     Total:     0.6053

*** Psi4 exiting successfully. Buy a developer a beer!
