                               Psi4 1.4a3.dev225

  ==> Input File <==

--------------------------------------------------------------------------
#psi4
#
memory 32 gb

molecule  {
0 1
  C       -0.4426020    -0.8338200     0.2172010
  C       -2.7550300    -0.2335230    -0.2686280
  C       -1.3727340    -0.3393290    -0.9144000
  C       -1.1456910    -0.3766540     1.5340440
  C       -2.4139240     0.3715680     1.0951880
  C        0.9762580    -0.3476150     0.0696660
  C       -3.7696470     0.5602740    -1.0788290
  C        1.2785260     1.0190760     0.1766520
  C        2.0223850    -1.2394820    -0.1958260
  C        2.5868840     1.4777510     0.0263980
  C        3.3346800    -0.7855870    -0.3490730
  C        3.6048007     0.5574075    -0.2386083
  H       -0.4241810    -1.9311060     0.1924250
  H       -3.1414670    -1.2511910    -0.1070860
  H       -1.0573430     0.6588960    -1.2471640
  H       -1.3450850    -0.9967850    -1.7909970
  H       -0.4862050     0.2392810     2.1528250
  H       -1.4122900    -1.2543580     2.1330320
  H       -3.2323950     0.2935880     1.8197160
  H       -2.2008590     1.4410770     0.9595580
  H       -3.4037750     1.5784440    -1.2516650
  H       -3.9506210     0.0965540    -2.0538340
  H       -4.7289130     0.6299820    -0.5557020
  H        0.4812350     1.7322070     0.3831320
  H        1.8065840    -2.3037040    -0.2799060
  H        2.8010350     2.5405970     0.1152150
  H        4.1326410    -1.4960120    -0.5534930
  H        4.6413930     0.9324010    -0.3562540
units angstrom
no_reorient  #important for SAPT in psi4, default
symmetry c1  #important for SAPT in psi4, default
}

set PROPERTIES_ORIGIN ["COM"]
properties('MP2/aug-cc-pvtz', properties = ['dipole'])
--------------------------------------------------------------------------

    Molecular point group: c1
  Charge       = 0
  Multiplicity = 1
  Basis Set: AUG-CC-PVTZ
    Blend: AUG-CC-PVTZ
  Basis Set: (AUG-CC-PVTZ AUX)
    Blend: AUG-CC-PVTZ-JKFIT

    Orbital Energies [Eh]
    ---------------------

    Doubly Occupied:

       1A    -11.236000     2A    -11.233429     3A    -11.230489
       4A    -11.228613     5A    -11.228370     6A    -11.228228
       7A    -11.227897     8A    -11.221097     9A    -11.216596
      10A    -11.214821    11A    -11.214619    12A    -11.211540
      13A     -1.157171    14A     -1.125659    15A     -1.040151
      16A     -1.009476    17A     -0.988564    18A     -0.953588
      19A     -0.892372    20A     -0.826675    21A     -0.816284
      22A     -0.763544    23A     -0.757103    24A     -0.688734
      25A     -0.660301    26A     -0.633693    27A     -0.622732
      28A     -0.606720    29A     -0.587380    30A     -0.581007
      31A     -0.572973    32A     -0.555399    33A     -0.527031
      34A     -0.511014    35A     -0.507715    36A     -0.492562
      37A     -0.474973    38A     -0.463819    39A     -0.461093
      40A     -0.453591    41A     -0.450341    42A     -0.443611
      43A     -0.332710    44A     -0.319839

  @DF-RHF Final Energy:  -463.89380932795495

   => Energetics <=

    Nuclear Repulsion Energy =            676.3635529424320794
    One-Electron Energy =               -1968.5756742497055711
    Two-Electron Energy =                 828.3183119793185369
    Total Energy =                       -463.8938093279549548
  Basis Set: (AUG-CC-PVTZ AUX)
    Blend: AUG-CC-PVTZ-RI
    Molecular point group: c1

    Geometry (in Angstrom), charge = 0, multiplicity = 1:

       Center              X                  Y                   Z               Mass
    ------------   -----------------  -----------------  -----------------  -----------------
         C           -0.512775064999    -0.826811663857     0.214442072392    12.000000000000
         C           -2.825203064999    -0.226514663857    -0.271386927608    12.000000000000
         C           -1.442907064999    -0.332320663857    -0.917158927608    12.000000000000
         C           -1.215864064999    -0.369645663857     1.531285072392    12.000000000000
         C           -2.484097064999     0.378576336143     1.092429072392    12.000000000000
         C            0.906084935001    -0.340606663857     0.066907072392    12.000000000000
         C           -3.839820064999     0.567282336143    -1.081587927608    12.000000000000
         C            1.208352935001     1.026084336143     0.173893072392    12.000000000000
         C            1.952211935001    -1.232473663857    -0.198584927608    12.000000000000
         C            2.516710935001     1.484759336143     0.023639072392    12.000000000000
         C            3.264506935001    -0.778578663857    -0.351831927608    12.000000000000
         C            3.534627635001     0.564415836143    -0.241367227608    12.000000000000
         H           -0.494354064999    -1.924097663857     0.189666072392     1.007825032230
         H           -3.211640064999    -1.244182663857    -0.109844927608     1.007825032230
         H           -1.127516064999     0.665904336143    -1.249922927608     1.007825032230
         H           -1.415258064999    -0.989776663857    -1.793755927608     1.007825032230
         H           -0.556378064999     0.246289336143     2.150066072392     1.007825032230
         H           -1.482463064999    -1.247349663857     2.130273072392     1.007825032230
         H           -3.302568064999     0.300596336143     1.816957072392     1.007825032230
         H           -2.271032064999     1.448085336143     0.956799072392     1.007825032230
         H           -3.473948064999     1.585452336143    -1.254423927608     1.007825032230
         H           -4.020794064999     0.103562336143    -2.056592927608     1.007825032230
         H           -4.799086064999     0.636990336143    -0.558460927608     1.007825032230
         H            0.411061935001     1.739215336143     0.380373072392     1.007825032230
         H            1.736410935001    -2.296695663857    -0.282664927608     1.007825032230
         H            2.730861935001     2.547605336143     0.112456072392     1.007825032230
         H            4.062467935001    -1.489003663857    -0.556251927608     1.007825032230
         H            4.571219935001     0.939409336143    -0.359012927608     1.007825032230

  Basis Set: AUG-CC-PVTZ
    Blend: AUG-CC-PVTZ
  Basis Set: (AUG-CC-PVTZ AUX)
    Blend: AUG-CC-PVTZ-JKFIT
	 Reference Energy          =    -463.8938093279549548 [Eh]
	 Singles Energy            =      -0.0000000000000000 [Eh]
	 Same-Spin Energy          =      -0.5195216460208455 [Eh]
	 Opposite-Spin Energy      =      -1.7263731452354723 [Eh]
	 Correlation Energy        =      -2.2458947912563176 [Eh]
	 Total Energy              =    -466.1397041192112738 [Eh]

	 ================> DF-SCS-MP2 Energies <==================
	-----------------------------------------------------------
	 SCS Same-Spin Scale       =       0.3333333333333333 [-]
	 SCS Opposite-Spin Scale   =       1.2000000000000000 [-]
	 SCS Same-Spin Energy      =      -0.1731738820069485 [Eh]
	 SCS Opposite-Spin Energy  =      -2.0716477742825665 [Eh]
	 SCS Correlation Energy    =      -2.2448216562895151 [Eh]
	 SCS Total Energy          =    -466.1386309842444575 [Eh]
	-----------------------------------------------------------

  Dipole Moment: [D]
     X:    -0.5728      Y:    -0.2017      Z:     0.0385     Total:     0.6085

*** Psi4 exiting successfully. Buy a developer a beer!
