                               Psi4 1.4a3.dev225

  ==> Input File <==

--------------------------------------------------------------------------
#psi4
#
memory 32 gb

molecule  {
0 1
  C       -0.4426020    -0.8338200     0.2172010
  C       -2.7550300    -0.2335230    -0.2686280
  C       -1.3727340    -0.3393290    -0.9144000
  C       -1.1456910    -0.3766540     1.5340440
  C       -2.4139240     0.3715680     1.0951880
  C        0.9762580    -0.3476150     0.0696660
  C       -3.7696470     0.5602740    -1.0788290
  C        1.2785260     1.0190760     0.1766520
  C        2.0223850    -1.2394820    -0.1958260
  C        2.5868840     1.4777510     0.0263980
  C        3.3346800    -0.7855870    -0.3490730
  C        3.6209360     0.5756970    -0.2390260
  H       -0.4241810    -1.9311060     0.1924250
  H       -3.1414670    -1.2511910    -0.1070860
  H       -1.0573430     0.6588960    -1.2471640
  H       -1.3450850    -0.9967850    -1.7909970
  H       -0.4862050     0.2392810     2.1528250
  H       -1.4122900    -1.2543580     2.1330320
  H       -3.2323950     0.2935880     1.8197160
  H       -2.2008590     1.4410770     0.9595580
  H       -3.4037750     1.5784440    -1.2516650
  H       -3.9506210     0.0965540    -2.0538340
  H       -4.7289130     0.6299820    -0.5557020
  H        0.4812350     1.7322070     0.3831320
  H        1.8065840    -2.3037040    -0.2799060
  H        2.8010350     2.5405970     0.1152150
  H        4.1473126    -1.5090741    -0.5572515
  H        4.6413930     0.9324010    -0.3562540
units angstrom
no_reorient  #important for SAPT in psi4, default
symmetry c1  #important for SAPT in psi4, default
}

set PROPERTIES_ORIGIN ["COM"]
properties('MP2/aug-cc-pvtz', properties = ['dipole'])
--------------------------------------------------------------------------

    Molecular point group: c1
  Charge       = 0
  Multiplicity = 1
  Basis Set: AUG-CC-PVTZ
    Blend: AUG-CC-PVTZ
  Basis Set: (AUG-CC-PVTZ AUX)
    Blend: AUG-CC-PVTZ-JKFIT

    Orbital Energies [Eh]
    ---------------------

    Doubly Occupied:

       1A    -11.236634     2A    -11.235145     3A    -11.233718
       4A    -11.229143     5A    -11.228511     6A    -11.228452
       7A    -11.228319     8A    -11.221207     9A    -11.216743
      10A    -11.214926    11A    -11.214785    12A    -11.211616
      13A     -1.156045    14A     -1.124824    15A     -1.039458
      16A     -1.008039    17A     -0.988447    18A     -0.953828
      19A     -0.892708    20A     -0.825454    21A     -0.816289
      22A     -0.763631    23A     -0.756434    24A     -0.689639
      25A     -0.660454    26A     -0.634300    27A     -0.621928
      28A     -0.605708    29A     -0.585902    30A     -0.579110
      31A     -0.573498    32A     -0.556161    33A     -0.528596
      34A     -0.510681    35A     -0.510142    36A     -0.489550
      37A     -0.475305    38A     -0.463439    39A     -0.461209
      40A     -0.453783    41A     -0.450316    42A     -0.443865
      43A     -0.332455    44A     -0.318909

  @DF-RHF Final Energy:  -463.89376975786990

   => Energetics <=

    Nuclear Repulsion Energy =            675.8363350493760890
    One-Electron Energy =               -1967.5215980169759860
    Two-Electron Energy =                 827.7914932097301062
    Total Energy =                       -463.8937697578699044
  Basis Set: (AUG-CC-PVTZ AUX)
    Blend: AUG-CC-PVTZ-RI
    Molecular point group: c1

    Geometry (in Angstrom), charge = 0, multiplicity = 1:

       Center              X                  Y                   Z               Mass
    ------------   -----------------  -----------------  -----------------  -----------------
         C           -0.514076609072    -0.828100091213     0.214497031326    12.000000000000
         C           -2.826504609072    -0.227803091213    -0.271331968674    12.000000000000
         C           -1.444208609072    -0.333609091213    -0.917103968674    12.000000000000
         C           -1.217165609072    -0.370934091213     1.531340031326    12.000000000000
         C           -2.485398609072     0.377287908787     1.092484031326    12.000000000000
         C            0.904783390928    -0.341895091213     0.066962031326    12.000000000000
         C           -3.841121609072     0.565993908787    -1.081532968674    12.000000000000
         C            1.207051390928     1.024795908787     0.173948031326    12.000000000000
         C            1.950910390928    -1.233762091213    -0.198529968674    12.000000000000
         C            2.515409390928     1.483470908787     0.023694031326    12.000000000000
         C            3.263205390928    -0.779867091213    -0.351776968674    12.000000000000
         C            3.549461390928     0.581416908787    -0.241729968674    12.000000000000
         H           -0.495655609072    -1.925386091213     0.189721031326     1.007825032230
         H           -3.212941609072    -1.245471091213    -0.109789968674     1.007825032230
         H           -1.128817609072     0.664615908787    -1.249867968674     1.007825032230
         H           -1.416559609072    -0.991065091213    -1.793700968674     1.007825032230
         H           -0.557679609072     0.245000908787     2.150121031326     1.007825032230
         H           -1.483764609072    -1.248638091213     2.130328031326     1.007825032230
         H           -3.303869609072     0.299307908787     1.817012031326     1.007825032230
         H           -2.272333609072     1.446796908787     0.956854031326     1.007825032230
         H           -3.475249609072     1.584163908787    -1.254368968674     1.007825032230
         H           -4.022095609072     0.102273908787    -2.056537968674     1.007825032230
         H           -4.800387609072     0.635701908787    -0.558405968674     1.007825032230
         H            0.409760390928     1.737926908787     0.380428031326     1.007825032230
         H            1.735109390928    -2.297984091213    -0.282609968674     1.007825032230
         H            2.729560390928     2.546316908787     0.112511031326     1.007825032230
         H            4.075837990928    -1.503354191213    -0.559955468674     1.007825032230
         H            4.569918390928     0.938120908787    -0.358957968674     1.007825032230

  Basis Set: AUG-CC-PVTZ
    Blend: AUG-CC-PVTZ
  Basis Set: (AUG-CC-PVTZ AUX)
    Blend: AUG-CC-PVTZ-JKFIT
	 Reference Energy          =    -463.8937697578699044 [Eh]
	 Singles Energy            =      -0.0000000000000000 [Eh]
	 Same-Spin Energy          =      -0.5195455098462032 [Eh]
	 Opposite-Spin Energy      =      -1.7265998068979111 [Eh]
	 Correlation Energy        =      -2.2461453167441143 [Eh]
	 Total Energy              =    -466.1399150746140094 [Eh]

	 ================> DF-SCS-MP2 Energies <==================
	-----------------------------------------------------------
	 SCS Same-Spin Scale       =       0.3333333333333333 [-]
	 SCS Opposite-Spin Scale   =       1.2000000000000000 [-]
	 SCS Same-Spin Energy      =      -0.1731818366154010 [Eh]
	 SCS Opposite-Spin Energy  =      -2.0719197682774935 [Eh]
	 SCS Correlation Energy    =      -2.2451016048928945 [Eh]
	 SCS Total Energy          =    -466.1388713627628135 [Eh]
	-----------------------------------------------------------

  Dipole Moment: [D]
     X:    -0.5778      Y:    -0.1969      Z:     0.0391     Total:     0.6117

*** Psi4 exiting successfully. Buy a developer a beer!
