                               Psi4 1.4a3.dev225

  ==> Input File <==

--------------------------------------------------------------------------
#psi4
#
memory 32 gb

molecule  {
0 1
  C       -0.4032506    -0.8565902     0.2472442
  C       -2.7550300    -0.2335230    -0.2686280
  C       -1.3727340    -0.3393290    -0.9144000
  C       -1.1456910    -0.3766540     1.5340440
  C       -2.4139240     0.3715680     1.0951880
  C        0.9762580    -0.3476150     0.0696660
  C       -3.7696470     0.5602740    -1.0788290
  C        1.2785260     1.0190760     0.1766520
  C        2.0223850    -1.2394820    -0.1958260
  C        2.5868840     1.4777510     0.0263980
  C        3.3346800    -0.7855870    -0.3490730
  C        3.6209360     0.5756970    -0.2390260
  H       -0.4241810    -1.9311060     0.1924250
  H       -3.1414670    -1.2511910    -0.1070860
  H       -1.0573430     0.6588960    -1.2471640
  H       -1.3450850    -0.9967850    -1.7909970
  H       -0.4862050     0.2392810     2.1528250
  H       -1.4122900    -1.2543580     2.1330320
  H       -3.2323950     0.2935880     1.8197160
  H       -2.2008590     1.4410770     0.9595580
  H       -3.4037750     1.5784440    -1.2516650
  H       -3.9506210     0.0965540    -2.0538340
  H       -4.7289130     0.6299820    -0.5557020
  H        0.4812350     1.7322070     0.3831320
  H        1.8065840    -2.3037040    -0.2799060
  H        2.8010350     2.5405970     0.1152150
  H        4.1326410    -1.4960120    -0.5534930
  H        4.6413930     0.9324010    -0.3562540
units angstrom
no_reorient  #important for SAPT in psi4, default
symmetry c1  #important for SAPT in psi4, default
}

set PROPERTIES_ORIGIN ["COM"]
properties('MP2/aug-cc-pvtz', properties = ['dipole'])
--------------------------------------------------------------------------

    Molecular point group: c1
  Charge       = 0
  Multiplicity = 1
  Basis Set: AUG-CC-PVTZ
    Blend: AUG-CC-PVTZ
  Basis Set: (AUG-CC-PVTZ AUX)
    Blend: AUG-CC-PVTZ-JKFIT

    Orbital Energies [Eh]
    ---------------------

    Doubly Occupied:

       1A    -11.235763     2A    -11.233825     3A    -11.232731
       4A    -11.228814     5A    -11.228672     6A    -11.227651
       7A    -11.227531     8A    -11.221125     9A    -11.217075
      10A    -11.216923    11A    -11.215311    12A    -11.211723
      13A     -1.156040    14A     -1.121841    15A     -1.042035
      16A     -1.008582    17A     -0.988498    18A     -0.948601
      19A     -0.894352    20A     -0.828210    21A     -0.817208
      22A     -0.762584    23A     -0.758580    24A     -0.690095
      25A     -0.659110    26A     -0.636073    27A     -0.621687
      28A     -0.605917    29A     -0.586389    30A     -0.579734
      31A     -0.573819    32A     -0.556477    33A     -0.529171
      34A     -0.512516    35A     -0.508911    36A     -0.490932
      37A     -0.473183    38A     -0.462425    39A     -0.461817
      40A     -0.456983    41A     -0.450031    42A     -0.441433
      43A     -0.332419    44A     -0.316722

  @DF-RHF Final Energy:  -463.89186984095346

   => Energetics <=

    Nuclear Repulsion Energy =            675.6422862532705267
    One-Electron Energy =               -1967.1292720221144918
    Two-Electron Energy =                 827.5951159278906744
    Total Energy =                       -463.8918698409534045
  Basis Set: (AUG-CC-PVTZ AUX)
    Blend: AUG-CC-PVTZ-RI
    Molecular point group: c1

    Geometry (in Angstrom), charge = 0, multiplicity = 1:

       Center              X                  Y                   Z               Mass
    ------------   -----------------  -----------------  -----------------  -----------------
         C           -0.477581913656    -0.849246074114     0.242265097186    12.000000000000
         C           -2.829361313656    -0.226178874114    -0.273607102814    12.000000000000
         C           -1.447065313656    -0.331984874114    -0.919379102814    12.000000000000
         C           -1.220022313656    -0.369309874114     1.529064897186    12.000000000000
         C           -2.488255313656     0.378912125886     1.090208897186    12.000000000000
         C            0.901926686344    -0.340270874114     0.064686897186    12.000000000000
         C           -3.843978313656     0.567618125886    -1.083808102814    12.000000000000
         C            1.204194686344     1.026420125886     0.171672897186    12.000000000000
         C            1.948053686344    -1.232137874114    -0.200805102814    12.000000000000
         C            2.512552686344     1.485095125886     0.021418897186    12.000000000000
         C            3.260348686344    -0.778242874114    -0.354052102814    12.000000000000
         C            3.546604686344     0.583041125886    -0.244005102814    12.000000000000
         H           -0.498512313656    -1.923761874114     0.187445897186     1.007825032230
         H           -3.215798313656    -1.243846874114    -0.112065102814     1.007825032230
         H           -1.131674313656     0.666240125886    -1.252143102814     1.007825032230
         H           -1.419416313656    -0.989440874114    -1.795976102814     1.007825032230
         H           -0.560536313656     0.246625125886     2.147845897186     1.007825032230
         H           -1.486621313656    -1.247013874114     2.128052897186     1.007825032230
         H           -3.306726313656     0.300932125886     1.814736897186     1.007825032230
         H           -2.275190313656     1.448421125886     0.954578897186     1.007825032230
         H           -3.478106313656     1.585788125886    -1.256644102814     1.007825032230
         H           -4.024952313656     0.103898125886    -2.058813102814     1.007825032230
         H           -4.803244313656     0.637326125886    -0.560681102814     1.007825032230
         H            0.406903686344     1.739551125886     0.378152897186     1.007825032230
         H            1.732252686344    -2.296359874114    -0.284885102814     1.007825032230
         H            2.726703686344     2.547941125886     0.110235897186     1.007825032230
         H            4.058309686344    -1.488667874114    -0.558472102814     1.007825032230
         H            4.567061686344     0.939745125886    -0.361233102814     1.007825032230

  Basis Set: AUG-CC-PVTZ
    Blend: AUG-CC-PVTZ
  Basis Set: (AUG-CC-PVTZ AUX)
    Blend: AUG-CC-PVTZ-JKFIT
	 Reference Energy          =    -463.8918698409534613 [Eh]
	 Singles Energy            =      -0.0000000000000000 [Eh]
	 Same-Spin Energy          =      -0.5195991572875336 [Eh]
	 Opposite-Spin Energy      =      -1.7266722332886415 [Eh]
	 Correlation Energy        =      -2.2462713905761751 [Eh]
	 Total Energy              =    -466.1381412315296302 [Eh]

	 ================> DF-SCS-MP2 Energies <==================
	-----------------------------------------------------------
	 SCS Same-Spin Scale       =       0.3333333333333333 [-]
	 SCS Opposite-Spin Scale   =       1.2000000000000000 [-]
	 SCS Same-Spin Energy      =      -0.1731997190958445 [Eh]
	 SCS Opposite-Spin Energy  =      -2.0720066799463699 [Eh]
	 SCS Correlation Energy    =      -2.2452063990422144 [Eh]
	 SCS Total Energy          =    -466.1370762399956789 [Eh]
	-----------------------------------------------------------

  Dipole Moment: [D]
     X:    -0.5901      Y:    -0.2173      Z:     0.0453     Total:     0.6305

*** Psi4 exiting successfully. Buy a developer a beer!
