                               Psi4 1.4a3.dev225

  ==> Input File <==

--------------------------------------------------------------------------
#psi4
#
memory 32 gb

molecule  {
0 1
  C       -0.4426020    -0.8338200     0.2172010
  C       -2.7550300    -0.2335230    -0.2686280
  C       -1.3727340    -0.3393290    -0.9144000
  C       -1.1456910    -0.3766540     1.5340440
  C       -2.4139240     0.3715680     1.0951880
  C        0.9762580    -0.3476150     0.0696660
  C       -3.7696470     0.5602740    -1.0788290
  C        1.2785260     1.0190760     0.1766520
  C        2.0223850    -1.2394820    -0.1958260
  C        2.5399742     1.4613057     0.0317852
  C        3.3346800    -0.7855870    -0.3490730
  C        3.6209360     0.5756970    -0.2390260
  H       -0.4241810    -1.9311060     0.1924250
  H       -3.1414670    -1.2511910    -0.1070860
  H       -1.0573430     0.6588960    -1.2471640
  H       -1.3450850    -0.9967850    -1.7909970
  H       -0.4862050     0.2392810     2.1528250
  H       -1.4122900    -1.2543580     2.1330320
  H       -3.2323950     0.2935880     1.8197160
  H       -2.2008590     1.4410770     0.9595580
  H       -3.4037750     1.5784440    -1.2516650
  H       -3.9506210     0.0965540    -2.0538340
  H       -4.7289130     0.6299820    -0.5557020
  H        0.4812350     1.7322070     0.3831320
  H        1.8065840    -2.3037040    -0.2799060
  H        2.8010350     2.5405970     0.1152150
  H        4.1326410    -1.4960120    -0.5534930
  H        4.6413930     0.9324010    -0.3562540
units angstrom
no_reorient  #important for SAPT in psi4, default
symmetry c1  #important for SAPT in psi4, default
}

set PROPERTIES_ORIGIN ["COM"]
properties('MP2/aug-cc-pvtz', properties = ['dipole'])
--------------------------------------------------------------------------

    Molecular point group: c1
  Charge       = 0
  Multiplicity = 1
  Basis Set: AUG-CC-PVTZ
    Blend: AUG-CC-PVTZ
  Basis Set: (AUG-CC-PVTZ AUX)
    Blend: AUG-CC-PVTZ-JKFIT

    Orbital Energies [Eh]
    ---------------------

    Doubly Occupied:

       1A    -11.236875     2A    -11.232890     3A    -11.232548
       4A    -11.230667     5A    -11.228453     6A    -11.227114
       7A    -11.223053     8A    -11.221331     9A    -11.216947
      10A    -11.215051    11A    -11.214946    12A    -11.211695
      13A     -1.158116    14A     -1.125545    15A     -1.037754
      16A     -1.014301    17A     -0.987920    18A     -0.953395
      19A     -0.892980    20A     -0.824360    21A     -0.816183
      22A     -0.763684    23A     -0.757946    24A     -0.690624
      25A     -0.660930    26A     -0.633942    27A     -0.622813
      28A     -0.603430    29A     -0.585649    30A     -0.580405
      31A     -0.574028    32A     -0.556250    33A     -0.530218
      34A     -0.513683    35A     -0.511499    36A     -0.483279
      37A     -0.475783    38A     -0.463755    39A     -0.461457
      40A     -0.453932    41A     -0.449794    42A     -0.444210
      43A     -0.338708    44A     -0.315349

  @DF-RHF Final Energy:  -463.89151219108811

   => Energetics <=

    Nuclear Repulsion Energy =            676.6436751503696314
    One-Electron Energy =               -1969.1233854474546661
    Two-Electron Energy =                 828.5881981059970940
    Total Energy =                       -463.8915121910880544
  Basis Set: (AUG-CC-PVTZ AUX)
    Blend: AUG-CC-PVTZ-RI
    Molecular point group: c1

    Geometry (in Angstrom), charge = 0, multiplicity = 1:

       Center              X                  Y                   Z               Mass
    ------------   -----------------  -----------------  -----------------  -----------------
         C           -0.510468782173    -0.826949870710     0.214069651313    12.000000000000
         C           -2.822896782173    -0.226652870710    -0.271759348687    12.000000000000
         C           -1.440600782173    -0.332458870710    -0.917531348687    12.000000000000
         C           -1.213557782173    -0.369783870710     1.530912651313    12.000000000000
         C           -2.481790782173     0.378438129290     1.092056651313    12.000000000000
         C            0.908391217827    -0.340744870710     0.066534651313    12.000000000000
         C           -3.837513782173     0.567144129290    -1.081960348687    12.000000000000
         C            1.210659217827     1.025946129290     0.173520651313    12.000000000000
         C            1.954518217827    -1.232611870710    -0.198957348687    12.000000000000
         C            2.472107417827     1.468175829290     0.028653851313    12.000000000000
         C            3.266813217827    -0.778716870710    -0.352204348687    12.000000000000
         C            3.553069217827     0.582567129290    -0.242157348687    12.000000000000
         H           -0.492047782173    -1.924235870710     0.189293651313     1.007825032230
         H           -3.209333782173    -1.244320870710    -0.110217348687     1.007825032230
         H           -1.125209782173     0.665766129290    -1.250295348687     1.007825032230
         H           -1.412951782173    -0.989914870710    -1.794128348687     1.007825032230
         H           -0.554071782173     0.246151129290     2.149693651313     1.007825032230
         H           -1.480156782173    -1.247487870710     2.129900651313     1.007825032230
         H           -3.300261782173     0.300458129290     1.816584651313     1.007825032230
         H           -2.268725782173     1.447947129290     0.956426651313     1.007825032230
         H           -3.471641782173     1.585314129290    -1.254796348687     1.007825032230
         H           -4.018487782173     0.103424129290    -2.056965348687     1.007825032230
         H           -4.796779782173     0.636852129290    -0.558833348687     1.007825032230
         H            0.413368217827     1.739077129290     0.380000651313     1.007825032230
         H            1.738717217827    -2.296833870710    -0.283037348687     1.007825032230
         H            2.733168217827     2.547467129290     0.112083651313     1.007825032230
         H            4.064774217827    -1.489141870710    -0.556624348687     1.007825032230
         H            4.573526217827     0.939271129290    -0.359385348687     1.007825032230

  Basis Set: AUG-CC-PVTZ
    Blend: AUG-CC-PVTZ
  Basis Set: (AUG-CC-PVTZ AUX)
    Blend: AUG-CC-PVTZ-JKFIT
	 Reference Energy          =    -463.8915121910881112 [Eh]
	 Singles Energy            =      -0.0000000000000000 [Eh]
	 Same-Spin Energy          =      -0.5193916263281627 [Eh]
	 Opposite-Spin Energy      =      -1.7263764507535639 [Eh]
	 Correlation Energy        =      -2.2457680770817268 [Eh]
	 Total Energy              =    -466.1372802681698317 [Eh]

	 ================> DF-SCS-MP2 Energies <==================
	-----------------------------------------------------------
	 SCS Same-Spin Scale       =       0.3333333333333333 [-]
	 SCS Opposite-Spin Scale   =       1.2000000000000000 [-]
	 SCS Same-Spin Energy      =      -0.1731305421093876 [Eh]
	 SCS Opposite-Spin Energy  =      -2.0716517409042767 [Eh]
	 SCS Correlation Energy    =      -2.2447822830136643 [Eh]
	 SCS Total Energy          =    -466.1362944741017600 [Eh]
	-----------------------------------------------------------

  Dipole Moment: [D]
     X:    -0.5669      Y:    -0.2155      Z:     0.0355     Total:     0.6075

*** Psi4 exiting successfully. Buy a developer a beer!
