                               Psi4 1.4a3.dev225

  ==> Input File <==

--------------------------------------------------------------------------
#psi4
#
memory 32 gb

molecule  {
0 1
  C       -0.4918393    -0.7052690     0.3022759
  C       -2.7550300    -0.2335230    -0.2686280
  C       -1.3727340    -0.3393290    -0.9144000
  C       -1.1456910    -0.3766540     1.5340440
  C       -2.4139240     0.3715680     1.0951880
  C        0.9762580    -0.3476150     0.0696660
  C       -3.7696470     0.5602740    -1.0788290
  C        1.2785260     1.0190760     0.1766520
  C        2.0223850    -1.2394820    -0.1958260
  C        2.5868840     1.4777510     0.0263980
  C        3.3346800    -0.7855870    -0.3490730
  C        3.6209360     0.5756970    -0.2390260
  H       -0.4241810    -1.9311060     0.1924250
  H       -3.1414670    -1.2511910    -0.1070860
  H       -1.0573430     0.6588960    -1.2471640
  H       -1.3450850    -0.9967850    -1.7909970
  H       -0.4862050     0.2392810     2.1528250
  H       -1.4122900    -1.2543580     2.1330320
  H       -3.2323950     0.2935880     1.8197160
  H       -2.2008590     1.4410770     0.9595580
  H       -3.4037750     1.5784440    -1.2516650
  H       -3.9506210     0.0965540    -2.0538340
  H       -4.7289130     0.6299820    -0.5557020
  H        0.4812350     1.7322070     0.3831320
  H        1.8065840    -2.3037040    -0.2799060
  H        2.8010350     2.5405970     0.1152150
  H        4.1326410    -1.4960120    -0.5534930
  H        4.6413930     0.9324010    -0.3562540
units angstrom
no_reorient  #important for SAPT in psi4, default
symmetry c1  #important for SAPT in psi4, default
}

set PROPERTIES_ORIGIN ["COM"]
properties('MP2/aug-cc-pvtz', properties = ['dipole'])
--------------------------------------------------------------------------

    Molecular point group: c1
  Charge       = 0
  Multiplicity = 1
  Basis Set: AUG-CC-PVTZ
    Blend: AUG-CC-PVTZ
  Basis Set: (AUG-CC-PVTZ AUX)
    Blend: AUG-CC-PVTZ-JKFIT

    Orbital Energies [Eh]
    ---------------------

    Doubly Occupied:

       1A    -11.238362     2A    -11.235944     3A    -11.233939
       4A    -11.233014     5A    -11.230716     6A    -11.229713
       7A    -11.227322     8A    -11.221043     9A    -11.216330
      10A    -11.215830    11A    -11.212372    12A    -11.211593
      13A     -1.161394    14A     -1.132465    15A     -1.039892
      16A     -1.008680    17A     -0.997879    18A     -0.951451
      19A     -0.898601    20A     -0.823399    21A     -0.819401
      22A     -0.765863    23A     -0.748835    24A     -0.689531
      25A     -0.666101    26A     -0.638891    27A     -0.619928
      28A     -0.609279    29A     -0.588560    30A     -0.580475
      31A     -0.567628    32A     -0.554879    33A     -0.531864
      34A     -0.518284    35A     -0.510930    36A     -0.492643
      37A     -0.487049    38A     -0.471386    39A     -0.464498
      40A     -0.454872    41A     -0.438610    42A     -0.411454
      43A     -0.332606    44A     -0.321484

  @DF-RHF Final Energy:  -463.86563992811949

   => Energetics <=

    Nuclear Repulsion Energy =            677.3285515231046929
    One-Electron Energy =               -1970.3784037786037970
    Two-Electron Energy =                 829.1842123273794414
    Total Energy =                       -463.8656399281195490
  Basis Set: (AUG-CC-PVTZ AUX)
    Blend: AUG-CC-PVTZ-RI
    Molecular point group: c1

    Geometry (in Angstrom), charge = 0, multiplicity = 1:

       Center              X                  Y                   Z               Mass
    ------------   -----------------  -----------------  -----------------  -----------------
         C           -0.559531656162    -0.709265090358     0.293172646847    12.000000000000
         C           -2.822722356162    -0.237519090358    -0.277731253153    12.000000000000
         C           -1.440426356162    -0.343325090358    -0.923503253153    12.000000000000
         C           -1.213383356162    -0.380650090358     1.524940746847    12.000000000000
         C           -2.481616356162     0.367571909642     1.086084746847    12.000000000000
         C            0.908565643838    -0.351611090358     0.060562746847    12.000000000000
         C           -3.837339356162     0.556277909642    -1.087932253153    12.000000000000
         C            1.210833643838     1.015079909642     0.167548746847    12.000000000000
         C            1.954692643838    -1.243478090358    -0.204929253153    12.000000000000
         C            2.519191643838     1.473754909642     0.017294746847    12.000000000000
         C            3.266987643838    -0.789583090358    -0.358176253153    12.000000000000
         C            3.553243643838     0.571700909642    -0.248129253153    12.000000000000
         H           -0.491873356162    -1.935102090358     0.183321746847     1.007825032230
         H           -3.209159356162    -1.255187090358    -0.116189253153     1.007825032230
         H           -1.125035356162     0.654899909642    -1.256267253153     1.007825032230
         H           -1.412777356162    -1.000781090358    -1.800100253153     1.007825032230
         H           -0.553897356162     0.235284909642     2.143721746847     1.007825032230
         H           -1.479982356162    -1.258354090358     2.123928746847     1.007825032230
         H           -3.300087356162     0.289591909642     1.810612746847     1.007825032230
         H           -2.268551356162     1.437080909642     0.950454746847     1.007825032230
         H           -3.471467356162     1.574447909642    -1.260768253153     1.007825032230
         H           -4.018313356162     0.092557909642    -2.062937253153     1.007825032230
         H           -4.796605356162     0.625985909642    -0.564805253153     1.007825032230
         H            0.413542643838     1.728210909642     0.374028746847     1.007825032230
         H            1.738891643838    -2.307700090358    -0.289009253153     1.007825032230
         H            2.733342643838     2.536600909642     0.106111746847     1.007825032230
         H            4.064948643838    -1.500008090358    -0.562596253153     1.007825032230
         H            4.573700643838     0.928404909642    -0.365357253153     1.007825032230

  Basis Set: AUG-CC-PVTZ
    Blend: AUG-CC-PVTZ
  Basis Set: (AUG-CC-PVTZ AUX)
    Blend: AUG-CC-PVTZ-JKFIT
	 Reference Energy          =    -463.8656399281194922 [Eh]
	 Singles Energy            =      -0.0000000000000000 [Eh]
	 Same-Spin Energy          =      -0.5211614585375397 [Eh]
	 Opposite-Spin Energy      =      -1.7293000897191408 [Eh]
	 Correlation Energy        =      -2.2504615482566805 [Eh]
	 Total Energy              =    -466.1161014763761727 [Eh]

	 ================> DF-SCS-MP2 Energies <==================
	-----------------------------------------------------------
	 SCS Same-Spin Scale       =       0.3333333333333333 [-]
	 SCS Opposite-Spin Scale   =       1.2000000000000000 [-]
	 SCS Same-Spin Energy      =      -0.1737204861791799 [Eh]
	 SCS Opposite-Spin Energy  =      -2.0751601076629691 [Eh]
	 SCS Correlation Energy    =      -2.2488805938421490 [Eh]
	 SCS Total Energy          =    -466.1145205219616514 [Eh]
	-----------------------------------------------------------

  Dipole Moment: [D]
     X:    -0.5427      Y:    -0.0883      Z:     0.0777     Total:     0.5553

*** Psi4 exiting successfully. Buy a developer a beer!
