                               Psi4 1.4a3.dev225

  ==> Input File <==

--------------------------------------------------------------------------
#psi4
#
memory 32 gb

molecule  {
0 1
  C       -0.4426020    -0.8338200     0.2172010
  C       -2.7550300    -0.2335230    -0.2686280
  C       -1.2524083    -0.4032984    -0.7680114
  C       -1.1456910    -0.3766540     1.5340440
  C       -2.4139240     0.3715680     1.0951880
  C        0.9762580    -0.3476150     0.0696660
  C       -3.7696470     0.5602740    -1.0788290
  C        1.2785260     1.0190760     0.1766520
  C        2.0223850    -1.2394820    -0.1958260
  C        2.5868840     1.4777510     0.0263980
  C        3.3346800    -0.7855870    -0.3490730
  C        3.6209360     0.5756970    -0.2390260
  H       -0.4241810    -1.9311060     0.1924250
  H       -3.1414670    -1.2511910    -0.1070860
  H       -1.0573430     0.6588960    -1.2471640
  H       -1.3450850    -0.9967850    -1.7909970
  H       -0.4862050     0.2392810     2.1528250
  H       -1.4122900    -1.2543580     2.1330320
  H       -3.2323950     0.2935880     1.8197160
  H       -2.2008590     1.4410770     0.9595580
  H       -3.4037750     1.5784440    -1.2516650
  H       -3.9506210     0.0965540    -2.0538340
  H       -4.7289130     0.6299820    -0.5557020
  H        0.4812350     1.7322070     0.3831320
  H        1.8065840    -2.3037040    -0.2799060
  H        2.8010350     2.5405970     0.1152150
  H        4.1326410    -1.4960120    -0.5534930
  H        4.6413930     0.9324010    -0.3562540
units angstrom
no_reorient  #important for SAPT in psi4, default
symmetry c1  #important for SAPT in psi4, default
}

set PROPERTIES_ORIGIN ["COM"]
properties('MP2/aug-cc-pvtz', properties = ['dipole'])
--------------------------------------------------------------------------

    Molecular point group: c1
  Charge       = 0
  Multiplicity = 1
  Basis Set: AUG-CC-PVTZ
    Blend: AUG-CC-PVTZ
  Basis Set: (AUG-CC-PVTZ AUX)
    Blend: AUG-CC-PVTZ-JKFIT

    Orbital Energies [Eh]
    ---------------------

    Doubly Occupied:

       1A    -11.238091     2A    -11.234018     3A    -11.233290
       4A    -11.229726     5A    -11.229429     6A    -11.229248
       7A    -11.224354     8A    -11.223554     9A    -11.219400
      10A    -11.218337    11A    -11.215170    12A    -11.213807
      13A     -1.169237    14A     -1.132551    15A     -1.044774
      16A     -1.009142    17A     -0.989497    18A     -0.967083
      19A     -0.889617    20A     -0.826621    21A     -0.816966
      22A     -0.767359    23A     -0.748436    24A     -0.695660
      25A     -0.661218    26A     -0.641327    27A     -0.625936
      28A     -0.609242    29A     -0.588803    30A     -0.578683
      31A     -0.574236    32A     -0.557349    33A     -0.530617
      34A     -0.522276    35A     -0.511390    36A     -0.491455
      37A     -0.486038    38A     -0.470051    39A     -0.461158
      40A     -0.452101    41A     -0.426143    42A     -0.415943
      43A     -0.332743    44A     -0.321375

  @DF-RHF Final Energy:  -463.84709445345845

   => Energetics <=

    Nuclear Repulsion Energy =            678.6118252790133738
    One-Electron Energy =               -1972.8709424586168097
    Two-Electron Energy =                 830.4120227261449827
    Total Energy =                       -463.8470944534584532
  Basis Set: (AUG-CC-PVTZ AUX)
    Blend: AUG-CC-PVTZ-RI
    Molecular point group: c1

    Geometry (in Angstrom), charge = 0, multiplicity = 1:

       Center              X                  Y                   Z               Mass
    ------------   -----------------  -----------------  -----------------  -----------------
         C           -0.523001637673    -0.823388350112     0.203502814896    12.000000000000
         C           -2.835429637673    -0.223091350112    -0.282326185104    12.000000000000
         C           -1.332807937673    -0.392866750112    -0.781709585104    12.000000000000
         C           -1.226090637673    -0.366222350112     1.520345814896    12.000000000000
         C           -2.494323637673     0.381999649888     1.081489814896    12.000000000000
         C            0.895858362327    -0.337183350112     0.055967814896    12.000000000000
         C           -3.850046637673     0.570705649888    -1.092527185104    12.000000000000
         C            1.198126362327     1.029507649888     0.162953814896    12.000000000000
         C            1.941985362327    -1.229050350112    -0.209524185104    12.000000000000
         C            2.506484362327     1.488182649888     0.012699814896    12.000000000000
         C            3.254280362327    -0.775155350112    -0.362771185104    12.000000000000
         C            3.540536362327     0.586128649888    -0.252724185104    12.000000000000
         H           -0.504580637673    -1.920674350112     0.178726814896     1.007825032230
         H           -3.221866637673    -1.240759350112    -0.120784185104     1.007825032230
         H           -1.137742637673     0.669327649888    -1.260862185104     1.007825032230
         H           -1.425484637673    -0.986353350112    -1.804695185104     1.007825032230
         H           -0.566604637673     0.249712649888     2.139126814896     1.007825032230
         H           -1.492689637673    -1.243926350112     2.119333814896     1.007825032230
         H           -3.312794637673     0.304019649888     1.806017814896     1.007825032230
         H           -2.281258637673     1.451508649888     0.945859814896     1.007825032230
         H           -3.484174637673     1.588875649888    -1.265363185104     1.007825032230
         H           -4.031020637673     0.106985649888    -2.067532185104     1.007825032230
         H           -4.809312637673     0.640413649888    -0.569400185104     1.007825032230
         H            0.400835362327     1.742638649888     0.369433814896     1.007825032230
         H            1.726184362327    -2.293272350112    -0.293604185104     1.007825032230
         H            2.720635362327     2.551028649888     0.101516814896     1.007825032230
         H            4.052241362327    -1.485580350112    -0.567191185104     1.007825032230
         H            4.560993362327     0.942832649888    -0.369952185104     1.007825032230

  Basis Set: AUG-CC-PVTZ
    Blend: AUG-CC-PVTZ
  Basis Set: (AUG-CC-PVTZ AUX)
    Blend: AUG-CC-PVTZ-JKFIT
	 Reference Energy          =    -463.8470944534584532 [Eh]
	 Singles Energy            =      -0.0000000000000000 [Eh]
	 Same-Spin Energy          =      -0.5225171102534562 [Eh]
	 Opposite-Spin Energy      =      -1.7304605316322201 [Eh]
	 Correlation Energy        =      -2.2529776418856762 [Eh]
	 Total Energy              =    -466.1000720953441032 [Eh]

	 ================> DF-SCS-MP2 Energies <==================
	-----------------------------------------------------------
	 SCS Same-Spin Scale       =       0.3333333333333333 [-]
	 SCS Opposite-Spin Scale   =       1.2000000000000000 [-]
	 SCS Same-Spin Energy      =      -0.1741723700844854 [Eh]
	 SCS Opposite-Spin Energy  =      -2.0765526379586641 [Eh]
	 SCS Correlation Energy    =      -2.2507250080431493 [Eh]
	 SCS Total Energy          =    -466.0978194615016150 [Eh]
	-----------------------------------------------------------

  Dipole Moment: [D]
     X:    -0.5524      Y:    -0.1717      Z:     0.1112     Total:     0.5891

*** Psi4 exiting successfully. Buy a developer a beer!
