                               Psi4 1.4a3.dev225

  ==> Input File <==

--------------------------------------------------------------------------
#psi4
#
memory 32 gb

molecule  {
0 1
  C       -0.4426020    -0.8338200     0.2172010
  C       -2.7550300    -0.2335230    -0.2686280
  C       -1.3727340    -0.3393290    -0.9144000
  C       -1.1456910    -0.3766540     1.5340440
  C       -2.4139240     0.3715680     1.0951880
  C        0.9762580    -0.3476150     0.0696660
  C       -3.7696470     0.5602740    -1.0788290
  C        1.2785260     1.0190760     0.1766520
  C        2.0223850    -1.2394820    -0.1958260
  C        2.5868840     1.4777510     0.0263980
  C        3.3269884    -0.7627500    -0.3453591
  C        3.6209360     0.5756970    -0.2390260
  H       -0.4241810    -1.9311060     0.1924250
  H       -3.1414670    -1.2511910    -0.1070860
  H       -1.0573430     0.6588960    -1.2471640
  H       -1.3450850    -0.9967850    -1.7909970
  H       -0.4862050     0.2392810     2.1528250
  H       -1.4122900    -1.2543580     2.1330320
  H       -3.2323950     0.2935880     1.8197160
  H       -2.2008590     1.4410770     0.9595580
  H       -3.4037750     1.5784440    -1.2516650
  H       -3.9506210     0.0965540    -2.0538340
  H       -4.7289130     0.6299820    -0.5557020
  H        0.4812350     1.7322070     0.3831320
  H        1.8065840    -2.3037040    -0.2799060
  H        2.8010350     2.5405970     0.1152150
  H        4.1326410    -1.4960120    -0.5534930
  H        4.6413930     0.9324010    -0.3562540
units angstrom
no_reorient  #important for SAPT in psi4, default
symmetry c1  #important for SAPT in psi4, default
}

set PROPERTIES_ORIGIN ["COM"]
properties('MP2/aug-cc-pvtz', properties = ['dipole'])
--------------------------------------------------------------------------

    Molecular point group: c1
  Charge       = 0
  Multiplicity = 1
  Basis Set: AUG-CC-PVTZ
    Blend: AUG-CC-PVTZ
  Basis Set: (AUG-CC-PVTZ AUX)
    Blend: AUG-CC-PVTZ-JKFIT

    Orbital Energies [Eh]
    ---------------------

    Doubly Occupied:

       1A    -11.236453     2A    -11.233656     3A    -11.232198
       4A    -11.228303     5A    -11.228069     6A    -11.227775
       7A    -11.226492     8A    -11.221192     9A    -11.216722
      10A    -11.214903    11A    -11.214772    12A    -11.211600
      13A     -1.157198    14A     -1.125741    15A     -1.040815
      16A     -1.007776    17A     -0.989077    18A     -0.954278
      19A     -0.892876    20A     -0.825277    21A     -0.817393
      22A     -0.763633    23A     -0.755879    24A     -0.690825
      25A     -0.660631    26A     -0.633953    27A     -0.622672
      28A     -0.605114    29A     -0.586098    30A     -0.578542
      31A     -0.573870    32A     -0.556576    33A     -0.529066
      34A     -0.511050    35A     -0.510053    36A     -0.490630
      37A     -0.475227    38A     -0.463903    39A     -0.460803
      40A     -0.453727    41A     -0.450238    42A     -0.443540
      43A     -0.332004    44A     -0.320550

  @DF-RHF Final Energy:  -463.89387070532973

   => Energetics <=

    Nuclear Repulsion Energy =            676.3284710647449174
    One-Electron Energy =               -1968.5023918396498175
    Two-Electron Energy =                 828.2800500695751680
    Total Energy =                       -463.8938707053297321
  Basis Set: (AUG-CC-PVTZ AUX)
    Blend: AUG-CC-PVTZ-RI
    Molecular point group: c1

    Geometry (in Angstrom), charge = 0, multiplicity = 1:

       Center              X                  Y                   Z               Mass
    ------------   -----------------  -----------------  -----------------  -----------------
         C           -0.513407847345    -0.829893739623     0.214195050687    12.000000000000
         C           -2.825835847345    -0.229596739623    -0.271633949313    12.000000000000
         C           -1.443539847345    -0.335402739623    -0.917405949313    12.000000000000
         C           -1.216496847345    -0.372727739623     1.531038050687    12.000000000000
         C           -2.484729847345     0.375494260377     1.092182050687    12.000000000000
         C            0.905452152655    -0.343688739623     0.066660050687    12.000000000000
         C           -3.840452847345     0.564200260377    -1.081834949313    12.000000000000
         C            1.207720152655     1.023002260377     0.173646050687    12.000000000000
         C            1.951579152655    -1.235555739623    -0.198831949313    12.000000000000
         C            2.516078152655     1.481677260377     0.023392050687    12.000000000000
         C            3.256182552655    -0.758823739623    -0.348365049313    12.000000000000
         C            3.550130152655     0.579623260377    -0.242031949313    12.000000000000
         H           -0.494986847345    -1.927179739623     0.189419050687     1.007825032230
         H           -3.212272847345    -1.247264739623    -0.110091949313     1.007825032230
         H           -1.128148847345     0.662822260377    -1.250169949313     1.007825032230
         H           -1.415890847345    -0.992858739623    -1.794002949313     1.007825032230
         H           -0.557010847345     0.243207260377     2.149819050687     1.007825032230
         H           -1.483095847345    -1.250431739623     2.130026050687     1.007825032230
         H           -3.303200847345     0.297514260377     1.816710050687     1.007825032230
         H           -2.271664847345     1.445003260377     0.956552050687     1.007825032230
         H           -3.474580847345     1.582370260377    -1.254670949313     1.007825032230
         H           -4.021426847345     0.100480260377    -2.056839949313     1.007825032230
         H           -4.799718847345     0.633908260377    -0.558707949313     1.007825032230
         H            0.410429152655     1.736133260377     0.380126050687     1.007825032230
         H            1.735778152655    -2.299777739623    -0.282911949313     1.007825032230
         H            2.730229152655     2.544523260377     0.112209050687     1.007825032230
         H            4.061835152655    -1.492085739623    -0.556498949313     1.007825032230
         H            4.570587152655     0.936327260377    -0.359259949313     1.007825032230

  Basis Set: AUG-CC-PVTZ
    Blend: AUG-CC-PVTZ
  Basis Set: (AUG-CC-PVTZ AUX)
    Blend: AUG-CC-PVTZ-JKFIT
	 Reference Energy          =    -463.8938707053297321 [Eh]
	 Singles Energy            =      -0.0000000000000000 [Eh]
	 Same-Spin Energy          =      -0.5194966749202476 [Eh]
	 Opposite-Spin Energy      =      -1.7263077901689896 [Eh]
	 Correlation Energy        =      -2.2458044650892370 [Eh]
	 Total Energy              =    -466.1396751704189683 [Eh]

	 ================> DF-SCS-MP2 Energies <==================
	-----------------------------------------------------------
	 SCS Same-Spin Scale       =       0.3333333333333333 [-]
	 SCS Opposite-Spin Scale   =       1.2000000000000000 [-]
	 SCS Same-Spin Energy      =      -0.1731655583067492 [Eh]
	 SCS Opposite-Spin Energy  =      -2.0715693482027873 [Eh]
	 SCS Correlation Energy    =      -2.2447349065095366 [Eh]
	 SCS Total Energy          =    -466.1386056118392958 [Eh]
	-----------------------------------------------------------

  Dipole Moment: [D]
     X:    -0.5765      Y:    -0.1970      Z:     0.0392     Total:     0.6105

*** Psi4 exiting successfully. Buy a developer a beer!
