                               Psi4 1.4a3.dev225

  ==> Input File <==

--------------------------------------------------------------------------
#psi4
#
memory 32 gb

molecule  {
0 1
  C       -0.4426020    -0.8338200     0.2172010
  C       -2.7550300    -0.2335230    -0.2686280
  C       -1.3727340    -0.3393290    -0.9144000
  C       -1.1456910    -0.3766540     1.5340440
  C       -2.4139240     0.3715680     1.0951880
  C        0.9762580    -0.3476150     0.0696660
  C       -3.7696470     0.5602740    -1.0788290
  C        1.2785260     1.0190760     0.1766520
  C        2.0223850    -1.2394820    -0.1958260
  C        2.5868840     1.4777510     0.0263980
  C        3.3346800    -0.7855870    -0.3490730
  C        3.6209360     0.5756970    -0.2390260
  H       -0.4241810    -1.9311060     0.1924250
  H       -3.1414670    -1.2511910    -0.1070860
  H       -1.0669412     0.6830319    -1.1750250
  H       -1.3450850    -0.9967850    -1.7909970
  H       -0.4862050     0.2392810     2.1528250
  H       -1.4122900    -1.2543580     2.1330320
  H       -3.2323950     0.2935880     1.8197160
  H       -2.2008590     1.4410770     0.9595580
  H       -3.4037750     1.5784440    -1.2516650
  H       -3.9506210     0.0965540    -2.0538340
  H       -4.7289130     0.6299820    -0.5557020
  H        0.4812350     1.7322070     0.3831320
  H        1.8065840    -2.3037040    -0.2799060
  H        2.8010350     2.5405970     0.1152150
  H        4.1326410    -1.4960120    -0.5534930
  H        4.6413930     0.9324010    -0.3562540
units angstrom
no_reorient  #important for SAPT in psi4, default
symmetry c1  #important for SAPT in psi4, default
}

set PROPERTIES_ORIGIN ["COM"]
properties('MP2/aug-cc-pvtz', properties = ['dipole'])
--------------------------------------------------------------------------

    Molecular point group: c1
  Charge       = 0
  Multiplicity = 1
  Basis Set: AUG-CC-PVTZ
    Blend: AUG-CC-PVTZ
  Basis Set: (AUG-CC-PVTZ AUX)
    Blend: AUG-CC-PVTZ-JKFIT

    Orbital Energies [Eh]
    ---------------------

    Doubly Occupied:

       1A    -11.236460     2A    -11.233649     3A    -11.232879
       4A    -11.228967     5A    -11.228518     6A    -11.228154
       7A    -11.227988     8A    -11.220792     9A    -11.216703
      10A    -11.215071    11A    -11.214934    12A    -11.211570
      13A     -1.156197    14A     -1.125167    15A     -1.039503
      16A     -1.008496    17A     -0.988422    18A     -0.953754
      19A     -0.892729    20A     -0.826431    21A     -0.816188
      22A     -0.763027    23A     -0.756639    24A     -0.690007
      25A     -0.661393    26A     -0.634924    27A     -0.622034
      28A     -0.606457    29A     -0.586030    30A     -0.580344
      31A     -0.573992    32A     -0.556622    33A     -0.529481
      34A     -0.510979    35A     -0.509742    36A     -0.490342
      37A     -0.475869    38A     -0.462544    39A     -0.461356
      40A     -0.452995    41A     -0.449859    42A     -0.443840
      43A     -0.332375    44A     -0.318867

  @DF-RHF Final Energy:  -463.89368752247361

   => Energetics <=

    Nuclear Repulsion Energy =            676.0727730622572835
    One-Electron Energy =               -1967.9883365710172711
    Two-Electron Energy =                 828.0218759862864317
    Total Energy =                       -463.8936875224735559
  Basis Set: (AUG-CC-PVTZ AUX)
    Blend: AUG-CC-PVTZ-RI
    Molecular point group: c1

    Geometry (in Angstrom), charge = 0, multiplicity = 1:

       Center              X                  Y                   Z               Mass
    ------------   -----------------  -----------------  -----------------  -----------------
         C           -0.513923855403    -0.828334214733     0.214019333874    12.000000000000
         C           -2.826351855403    -0.228037214733    -0.271809666126    12.000000000000
         C           -1.444055855403    -0.333843214733    -0.917581666126    12.000000000000
         C           -1.217012855403    -0.371168214733     1.530862333874    12.000000000000
         C           -2.485245855403     0.377053785267     1.092006333874    12.000000000000
         C            0.904936144597    -0.342129214733     0.066484333874    12.000000000000
         C           -3.840968855403     0.565759785267    -1.082010666126    12.000000000000
         C            1.207204144597     1.024561785267     0.173470333874    12.000000000000
         C            1.951063144597    -1.233996214733    -0.199007666126    12.000000000000
         C            2.515562144597     1.483236785267     0.023216333874    12.000000000000
         C            3.263358144597    -0.780101214733    -0.352254666126    12.000000000000
         C            3.549614144597     0.581182785267    -0.242207666126    12.000000000000
         H           -0.495502855403    -1.925620214733     0.189243333874     1.007825032230
         H           -3.212788855403    -1.245705214733    -0.110267666126     1.007825032230
         H           -1.138263055403     0.688517685267    -1.178206666126     1.007825032230
         H           -1.416406855403    -0.991299214733    -1.794178666126     1.007825032230
         H           -0.557526855403     0.244766785267     2.149643333874     1.007825032230
         H           -1.483611855403    -1.248872214733     2.129850333874     1.007825032230
         H           -3.303716855403     0.299073785267     1.816534333874     1.007825032230
         H           -2.272180855403     1.446562785267     0.956376333874     1.007825032230
         H           -3.475096855403     1.583929785267    -1.254846666126     1.007825032230
         H           -4.021942855403     0.102039785267    -2.057015666126     1.007825032230
         H           -4.800234855403     0.635467785267    -0.558883666126     1.007825032230
         H            0.409913144597     1.737692785267     0.379950333874     1.007825032230
         H            1.735262144597    -2.298218214733    -0.283087666126     1.007825032230
         H            2.729713144597     2.546082785267     0.112033333874     1.007825032230
         H            4.061319144597    -1.490526214733    -0.556674666126     1.007825032230
         H            4.570071144597     0.937886785267    -0.359435666126     1.007825032230

  Basis Set: AUG-CC-PVTZ
    Blend: AUG-CC-PVTZ
  Basis Set: (AUG-CC-PVTZ AUX)
    Blend: AUG-CC-PVTZ-JKFIT
	 Reference Energy          =    -463.8936875224736127 [Eh]
	 Singles Energy            =      -0.0000000000000000 [Eh]
	 Same-Spin Energy          =      -0.5196626852793319 [Eh]
	 Opposite-Spin Energy      =      -1.7266526240347406 [Eh]
	 Correlation Energy        =      -2.2463153093140726 [Eh]
	 Total Energy              =    -466.1400028317876831 [Eh]

	 ================> DF-SCS-MP2 Energies <==================
	-----------------------------------------------------------
	 SCS Same-Spin Scale       =       0.3333333333333333 [-]
	 SCS Opposite-Spin Scale   =       1.2000000000000000 [-]
	 SCS Same-Spin Energy      =      -0.1732208950931106 [Eh]
	 SCS Opposite-Spin Energy  =      -2.0719831488416887 [Eh]
	 SCS Correlation Energy    =      -2.2452040439347991 [Eh]
	 SCS Total Energy          =    -466.1388915664084038 [Eh]
	-----------------------------------------------------------

  Dipole Moment: [D]
     X:    -0.5697      Y:    -0.2111      Z:     0.0516     Total:     0.6098

*** Psi4 exiting successfully. Buy a developer a beer!
