                               Psi4 1.4a3.dev225

  ==> Input File <==

--------------------------------------------------------------------------
#psi4
#
memory 32 gb

molecule  {
0 1
  C       -0.4426020    -0.8338200     0.2172010
  C       -2.7550300    -0.2335230    -0.2686280
  C       -1.3727340    -0.3393290    -0.9144000
  C       -1.1456910    -0.3766540     1.5340440
  C       -2.4139240     0.3715680     1.0951880
  C        0.9762580    -0.3476150     0.0696660
  C       -3.7696470     0.5602740    -1.0788290
  C        1.2785260     1.0190760     0.1766520
  C        2.0223850    -1.2394820    -0.1958260
  C        2.5868840     1.4777510     0.0263980
  C        3.3346800    -0.7855870    -0.3490730
  C        3.6209360     0.5756970    -0.2390260
  H       -0.4241810    -1.9311060     0.1924250
  H       -3.1414670    -1.2511910    -0.1070860
  H       -1.0573430     0.6588960    -1.2471640
  H       -1.3450850    -0.9967850    -1.7909970
  H       -0.4862050     0.2392810     2.1528250
  H       -1.4122900    -1.2543580     2.1330320
  H       -3.2317311     0.2745365     1.8181631
  H       -2.2008590     1.4410770     0.9595580
  H       -3.4037750     1.5784440    -1.2516650
  H       -3.9506210     0.0965540    -2.0538340
  H       -4.7289130     0.6299820    -0.5557020
  H        0.4812350     1.7322070     0.3831320
  H        1.8065840    -2.3037040    -0.2799060
  H        2.8010350     2.5405970     0.1152150
  H        4.1326410    -1.4960120    -0.5534930
  H        4.6413930     0.9324010    -0.3562540
units angstrom
no_reorient  #important for SAPT in psi4, default
symmetry c1  #important for SAPT in psi4, default
}

set PROPERTIES_ORIGIN ["COM"]
properties('MP2/aug-cc-pvtz', properties = ['dipole'])
--------------------------------------------------------------------------

    Molecular point group: c1
  Charge       = 0
  Multiplicity = 1
  Basis Set: AUG-CC-PVTZ
    Blend: AUG-CC-PVTZ
  Basis Set: (AUG-CC-PVTZ AUX)
    Blend: AUG-CC-PVTZ-JKFIT

    Orbital Energies [Eh]
    ---------------------

    Doubly Occupied:

       1A    -11.236472     2A    -11.233580     3A    -11.232834
       4A    -11.228909     5A    -11.228416     6A    -11.228279
       7A    -11.228085     8A    -11.221058     9A    -11.216578
      10A    -11.214895    11A    -11.214665    12A    -11.211591
      13A     -1.155983    14A     -1.124832    15A     -1.039472
      16A     -1.008426    17A     -0.988473    18A     -0.953780
      19A     -0.892635    20A     -0.826343    21A     -0.816125
      22A     -0.763270    23A     -0.757129    24A     -0.689874
      25A     -0.660604    26A     -0.635127    27A     -0.622046
      28A     -0.606374    29A     -0.586216    30A     -0.580084
      31A     -0.573474    32A     -0.556395    33A     -0.528487
      34A     -0.511106    35A     -0.510057    36A     -0.490028
      37A     -0.474774    38A     -0.463431    39A     -0.461236
      40A     -0.453736    41A     -0.450335    42A     -0.443795
      43A     -0.332335    44A     -0.318765

  @DF-RHF Final Energy:  -463.89437478456819

   => Energetics <=

    Nuclear Repulsion Energy =            675.9528683237393807
    One-Electron Energy =               -1967.7542687078775998
    Two-Electron Energy =                 827.9070255995699199
    Total Energy =                       -463.8943747845681855
  Basis Set: (AUG-CC-PVTZ AUX)
    Blend: AUG-CC-PVTZ-RI
    Molecular point group: c1

    Geometry (in Angstrom), charge = 0, multiplicity = 1:

       Center              X                  Y                   Z               Mass
    ------------   -----------------  -----------------  -----------------  -----------------
         C           -0.513988444869    -0.828062394041     0.214483149321    12.000000000000
         C           -2.826416444869    -0.227765394041    -0.271345850679    12.000000000000
         C           -1.444120444869    -0.333571394041    -0.917117850679    12.000000000000
         C           -1.217077444869    -0.370896394041     1.531326149321    12.000000000000
         C           -2.485310444869     0.377325605959     1.092470149321    12.000000000000
         C            0.904871555131    -0.341857394041     0.066948149321    12.000000000000
         C           -3.841033444869     0.566031605959    -1.081546850679    12.000000000000
         C            1.207139555131     1.024833605959     0.173934149321    12.000000000000
         C            1.950998555131    -1.233724394041    -0.198543850679    12.000000000000
         C            2.515497555131     1.483508605959     0.023680149321    12.000000000000
         C            3.263293555131    -0.779829394041    -0.351790850679    12.000000000000
         C            3.549549555131     0.581454605959    -0.241743850679    12.000000000000
         H           -0.495567444869    -1.925348394041     0.189707149321     1.007825032230
         H           -3.212853444869    -1.245433394041    -0.109803850679     1.007825032230
         H           -1.128729444869     0.664653605959    -1.249881850679     1.007825032230
         H           -1.416471444869    -0.991027394041    -1.793714850679     1.007825032230
         H           -0.557591444869     0.245038605959     2.150107149321     1.007825032230
         H           -1.483676444869    -1.248600394041     2.130314149321     1.007825032230
         H           -3.303117544869     0.280294105959     1.815445249321     1.007825032230
         H           -2.272245444869     1.446834605959     0.956840149321     1.007825032230
         H           -3.475161444869     1.584201605959    -1.254382850679     1.007825032230
         H           -4.022007444869     0.102311605959    -2.056551850679     1.007825032230
         H           -4.800299444869     0.635739605959    -0.558419850679     1.007825032230
         H            0.409848555131     1.737964605959     0.380414149321     1.007825032230
         H            1.735197555131    -2.297946394041    -0.282623850679     1.007825032230
         H            2.729648555131     2.546354605959     0.112497149321     1.007825032230
         H            4.061254555131    -1.490254394041    -0.556210850679     1.007825032230
         H            4.570006555131     0.938158605959    -0.358971850679     1.007825032230

  Basis Set: AUG-CC-PVTZ
    Blend: AUG-CC-PVTZ
  Basis Set: (AUG-CC-PVTZ AUX)
    Blend: AUG-CC-PVTZ-JKFIT
	 Reference Energy          =    -463.8943747845681855 [Eh]
	 Singles Energy            =      -0.0000000000000000 [Eh]
	 Same-Spin Energy          =      -0.5195153607048566 [Eh]
	 Opposite-Spin Energy      =      -1.7264661075473602 [Eh]
	 Correlation Energy        =      -2.2459814682522170 [Eh]
	 Total Energy              =    -466.1403562528204247 [Eh]

	 ================> DF-SCS-MP2 Energies <==================
	-----------------------------------------------------------
	 SCS Same-Spin Scale       =       0.3333333333333333 [-]
	 SCS Opposite-Spin Scale   =       1.2000000000000000 [-]
	 SCS Same-Spin Energy      =      -0.1731717869016189 [Eh]
	 SCS Opposite-Spin Energy  =      -2.0717593290568321 [Eh]
	 SCS Correlation Energy    =      -2.2449311159584511 [Eh]
	 SCS Total Energy          =    -466.1393059005266650 [Eh]
	-----------------------------------------------------------

  Dipole Moment: [D]
     X:    -0.5703      Y:    -0.2076      Z:     0.0369     Total:     0.6080

*** Psi4 exiting successfully. Buy a developer a beer!
