                               Psi4 1.4a3.dev225

  ==> Input File <==

--------------------------------------------------------------------------
#psi4
#
memory 32 gb

molecule  {
0 1
  C       -0.4426020    -0.8338200     0.2172010
  C       -2.7550300    -0.2335230    -0.2686280
  C       -1.3727340    -0.3393290    -0.9144000
  C       -1.1456910    -0.3766540     1.5340440
  C       -2.4139240     0.3715680     1.0951880
  C        0.9762580    -0.3476150     0.0696660
  C       -3.7696470     0.5602740    -1.0788290
  C        1.2785260     1.0190760     0.1766520
  C        2.0223850    -1.2394820    -0.1958260
  C        2.5868840     1.4777510     0.0263980
  C        3.3346800    -0.7855870    -0.3490730
  C        3.6209360     0.5756970    -0.2390260
  H       -0.4241810    -1.9311060     0.1924250
  H       -3.1414670    -1.2511910    -0.1070860
  H       -1.0573430     0.6588960    -1.2471640
  H       -1.3450850    -0.9967850    -1.7909970
  H       -0.4862050     0.2392810     2.1528250
  H       -1.4122900    -1.2543580     2.1330320
  H       -3.2323950     0.2935880     1.8197160
  H       -2.2008590     1.4410770     0.9595580
  H       -3.4037750     1.5784440    -1.2516650
  H       -3.9506210     0.0965540    -2.0538340
  H       -4.7289130     0.6299820    -0.5557020
  H        0.4665982     1.7452988     0.3869226
  H        1.8065840    -2.3037040    -0.2799060
  H        2.8010350     2.5405970     0.1152150
  H        4.1326410    -1.4960120    -0.5534930
  H        4.6413930     0.9324010    -0.3562540
units angstrom
no_reorient  #important for SAPT in psi4, default
symmetry c1  #important for SAPT in psi4, default
}

set PROPERTIES_ORIGIN ["COM"]
properties('MP2/aug-cc-pvtz', properties = ['dipole'])
--------------------------------------------------------------------------

    Molecular point group: c1
  Charge       = 0
  Multiplicity = 1
  Basis Set: AUG-CC-PVTZ
    Blend: AUG-CC-PVTZ
  Basis Set: (AUG-CC-PVTZ AUX)
    Blend: AUG-CC-PVTZ-JKFIT

    Orbital Energies [Eh]
    ---------------------

    Doubly Occupied:

       1A    -11.236740     2A    -11.233845     3A    -11.232951
       4A    -11.230722     5A    -11.229076     6A    -11.228390
       7A    -11.228287     8A    -11.221127     9A    -11.216631
      10A    -11.214839    11A    -11.214671    12A    -11.211552
      13A     -1.155975    14A     -1.124815    15A     -1.039501
      16A     -1.008040    17A     -0.988377    18A     -0.953703
      19A     -0.892585    20A     -0.825413    21A     -0.816286
      22A     -0.763548    23A     -0.756924    24A     -0.689058
      25A     -0.660288    26A     -0.634218    27A     -0.621921
      28A     -0.606139    29A     -0.586016    30A     -0.579304
      31A     -0.573327    32A     -0.556005    33A     -0.528383
      34A     -0.510519    35A     -0.510139    36A     -0.489621
      37A     -0.475243    38A     -0.463356    39A     -0.461138
      40A     -0.453716    41A     -0.450237    42A     -0.443818
      43A     -0.332476    44A     -0.318931

  @DF-RHF Final Energy:  -463.89372905976626

   => Energetics <=

    Nuclear Repulsion Energy =            675.8505156463761523
    One-Electron Energy =               -1967.5527862483318131
    Two-Electron Energy =                 827.8085415421894595
    Total Energy =                       -463.8937290597662013
  Basis Set: (AUG-CC-PVTZ AUX)
    Blend: AUG-CC-PVTZ-RI
    Molecular point group: c1

    Geometry (in Angstrom), charge = 0, multiplicity = 1:

       Center              X                  Y                   Z               Mass
    ------------   -----------------  -----------------  -----------------  -----------------
         C           -0.513892142548    -0.828264703373     0.214449517431    12.000000000000
         C           -2.826320142548    -0.227967703373    -0.271379482569    12.000000000000
         C           -1.444024142548    -0.333773703373    -0.917151482569    12.000000000000
         C           -1.216981142548    -0.371098703373     1.531292517431    12.000000000000
         C           -2.485214142548     0.377123296627     1.092436517431    12.000000000000
         C            0.904967857452    -0.342059703373     0.066914517431    12.000000000000
         C           -3.840937142548     0.565829296627    -1.081580482569    12.000000000000
         C            1.207235857452     1.024631296627     0.173900517431    12.000000000000
         C            1.951094857452    -1.233926703373    -0.198577482569    12.000000000000
         C            2.515593857452     1.483306296627     0.023646517431    12.000000000000
         C            3.263389857452    -0.780031703373    -0.351824482569    12.000000000000
         C            3.549645857452     0.581252296627    -0.241777482569    12.000000000000
         H           -0.495471142548    -1.925550703373     0.189673517431     1.007825032230
         H           -3.212757142548    -1.245635703373    -0.109837482569     1.007825032230
         H           -1.128633142548     0.664451296627    -1.249915482569     1.007825032230
         H           -1.416375142548    -0.991229703373    -1.793748482569     1.007825032230
         H           -0.557495142548     0.244836296627     2.150073517431     1.007825032230
         H           -1.483580142548    -1.248802703373     2.130280517431     1.007825032230
         H           -3.303685142548     0.299143296627     1.816964517431     1.007825032230
         H           -2.272149142548     1.446632296627     0.956806517431     1.007825032230
         H           -3.475065142548     1.583999296627    -1.254416482569     1.007825032230
         H           -4.021911142548     0.102109296627    -2.056585482569     1.007825032230
         H           -4.800203142548     0.635537296627    -0.558453482569     1.007825032230
         H            0.395308057452     1.750854096627     0.384171117431     1.007825032230
         H            1.735293857452    -2.298148703373    -0.282657482569     1.007825032230
         H            2.729744857452     2.546152296627     0.112463517431     1.007825032230
         H            4.061350857452    -1.490456703373    -0.556244482569     1.007825032230
         H            4.570102857452     0.937956296627    -0.359005482569     1.007825032230

  Basis Set: AUG-CC-PVTZ
    Blend: AUG-CC-PVTZ
  Basis Set: (AUG-CC-PVTZ AUX)
    Blend: AUG-CC-PVTZ-JKFIT
	 Reference Energy          =    -463.8937290597662582 [Eh]
	 Singles Energy            =      -0.0000000000000000 [Eh]
	 Same-Spin Energy          =      -0.5195737079924371 [Eh]
	 Opposite-Spin Energy      =      -1.7266085631002708 [Eh]
	 Correlation Energy        =      -2.2461822710927080 [Eh]
	 Total Energy              =    -466.1399113308589790 [Eh]

	 ================> DF-SCS-MP2 Energies <==================
	-----------------------------------------------------------
	 SCS Same-Spin Scale       =       0.3333333333333333 [-]
	 SCS Opposite-Spin Scale   =       1.2000000000000000 [-]
	 SCS Same-Spin Energy      =      -0.1731912359974790 [Eh]
	 SCS Opposite-Spin Energy  =      -2.0719302757203248 [Eh]
	 SCS Correlation Energy    =      -2.2451215117178038 [Eh]
	 SCS Total Energy          =    -466.1388505714840562 [Eh]
	-----------------------------------------------------------

  Dipole Moment: [D]
     X:    -0.5611      Y:    -0.2074      Z:     0.0357     Total:     0.5993

*** Psi4 exiting successfully. Buy a developer a beer!
