                               Psi4 1.4a3.dev225

  ==> Input File <==

--------------------------------------------------------------------------
#psi4
#
memory 32 gb

molecule  {
0 1
  C       -0.4426020    -0.8338200     0.2172010
  C       -2.7550300    -0.2335230    -0.2686280
  C       -1.3727340    -0.3393290    -0.9144000
  C       -1.1456910    -0.3766540     1.5340440
  C       -2.4139240     0.3715680     1.0951880
  C        0.9762580    -0.3476150     0.0696660
  C       -3.7696470     0.5602740    -1.0788290
  C        1.2785260     1.0190760     0.1766520
  C        2.0223850    -1.2394820    -0.1958260
  C        2.5868840     1.4777510     0.0263980
  C        3.3346800    -0.7855870    -0.3490730
  C        3.6004218     0.4781420    -0.2469124
  H       -0.4241810    -1.9311060     0.1924250
  H       -3.1414670    -1.2511910    -0.1070860
  H       -1.0573430     0.6588960    -1.2471640
  H       -1.3450850    -0.9967850    -1.7909970
  H       -0.4862050     0.2392810     2.1528250
  H       -1.4122900    -1.2543580     2.1330320
  H       -3.2323950     0.2935880     1.8197160
  H       -2.2008590     1.4410770     0.9595580
  H       -3.4037750     1.5784440    -1.2516650
  H       -3.9506210     0.0965540    -2.0538340
  H       -4.7289130     0.6299820    -0.5557020
  H        0.4812350     1.7322070     0.3831320
  H        1.8065840    -2.3037040    -0.2799060
  H        2.8010350     2.5405970     0.1152150
  H        4.1326410    -1.4960120    -0.5534930
  H        4.6413930     0.9324010    -0.3562540
units angstrom
no_reorient  #important for SAPT in psi4, default
symmetry c1  #important for SAPT in psi4, default
}

set PROPERTIES_ORIGIN ["COM"]
properties('MP2/aug-cc-pvtz', properties = ['dipole'])
--------------------------------------------------------------------------

    Molecular point group: c1
  Charge       = 0
  Multiplicity = 1
  Basis Set: AUG-CC-PVTZ
    Blend: AUG-CC-PVTZ
  Basis Set: (AUG-CC-PVTZ AUX)
    Blend: AUG-CC-PVTZ-JKFIT

    Orbital Energies [Eh]
    ---------------------

    Doubly Occupied:

       1A    -11.238315     2A    -11.235519     3A    -11.229367
       4A    -11.228081     5A    -11.227710     6A    -11.227274
       7A    -11.221076     8A    -11.219521     9A    -11.216600
      10A    -11.214821    11A    -11.214532    12A    -11.211522
      13A     -1.159739    14A     -1.127450    15A     -1.043994
      16A     -1.010001    17A     -0.988505    18A     -0.953358
      19A     -0.892145    20A     -0.827172    21A     -0.816084
      22A     -0.763568    23A     -0.756347    24A     -0.687384
      25A     -0.660230    26A     -0.631411    27A     -0.625567
      28A     -0.606633    29A     -0.591538    30A     -0.582090
      31A     -0.571567    32A     -0.554438    33A     -0.526051
      34A     -0.513127    35A     -0.502718    36A     -0.492589
      37A     -0.474301    38A     -0.465169    39A     -0.459068
      40A     -0.453339    41A     -0.450161    42A     -0.442500
      43A     -0.339479    44A     -0.317195

  @DF-RHF Final Energy:  -463.88118389204828

   => Energetics <=

    Nuclear Repulsion Energy =            676.9705994303074021
    One-Electron Energy =               -1969.7650534662054724
    Two-Electron Energy =                 828.9132701438497861
    Total Energy =                       -463.8811838920482842
  Basis Set: (AUG-CC-PVTZ AUX)
    Blend: AUG-CC-PVTZ-RI
    Molecular point group: c1

    Geometry (in Angstrom), charge = 0, multiplicity = 1:

       Center              X                  Y                   Z               Mass
    ------------   -----------------  -----------------  -----------------  -----------------
         C           -0.512446904286    -0.820871399633     0.215064392924    12.000000000000
         C           -2.824874904286    -0.220574399633    -0.270764607076    12.000000000000
         C           -1.442578904286    -0.326380399633    -0.916536607076    12.000000000000
         C           -1.215535904286    -0.363705399633     1.531907392924    12.000000000000
         C           -2.483768904286     0.384516600367     1.093051392924    12.000000000000
         C            0.906413095714    -0.334666399633     0.067529392924    12.000000000000
         C           -3.839491904286     0.573222600367    -1.080965607076    12.000000000000
         C            1.208681095714     1.032024600367     0.174515392924    12.000000000000
         C            1.952540095714    -1.226533399633    -0.197962607076    12.000000000000
         C            2.517039095714     1.490699600367     0.024261392924    12.000000000000
         C            3.264835095714    -0.772638399633    -0.351209607076    12.000000000000
         C            3.530576895714     0.491090600367    -0.249049007076    12.000000000000
         H           -0.494025904286    -1.918157399633     0.190288392924     1.007825032230
         H           -3.211311904286    -1.238242399633    -0.109222607076     1.007825032230
         H           -1.127187904286     0.671844600367    -1.249300607076     1.007825032230
         H           -1.414929904286    -0.983836399633    -1.793133607076     1.007825032230
         H           -0.556049904286     0.252229600367     2.150688392924     1.007825032230
         H           -1.482134904286    -1.241409399633     2.130895392924     1.007825032230
         H           -3.302239904286     0.306536600367     1.817579392924     1.007825032230
         H           -2.270703904286     1.454025600367     0.957421392924     1.007825032230
         H           -3.473619904286     1.591392600367    -1.253801607076     1.007825032230
         H           -4.020465904286     0.109502600367    -2.055970607076     1.007825032230
         H           -4.798757904286     0.642930600367    -0.557838607076     1.007825032230
         H            0.411390095714     1.745155600367     0.380995392924     1.007825032230
         H            1.736739095714    -2.290755399633    -0.282042607076     1.007825032230
         H            2.731190095714     2.553545600367     0.113078392924     1.007825032230
         H            4.062796095714    -1.483063399633    -0.555629607076     1.007825032230
         H            4.571548095714     0.945349600367    -0.358390607076     1.007825032230

  Basis Set: AUG-CC-PVTZ
    Blend: AUG-CC-PVTZ
  Basis Set: (AUG-CC-PVTZ AUX)
    Blend: AUG-CC-PVTZ-JKFIT
	 Reference Energy          =    -463.8811838920482842 [Eh]
	 Singles Energy            =      -0.0000000000000000 [Eh]
	 Same-Spin Energy          =      -0.5192272989056816 [Eh]
	 Opposite-Spin Energy      =      -1.7265871202579295 [Eh]
	 Correlation Energy        =      -2.2458144191636111 [Eh]
	 Total Energy              =    -466.1269983112118780 [Eh]

	 ================> DF-SCS-MP2 Energies <==================
	-----------------------------------------------------------
	 SCS Same-Spin Scale       =       0.3333333333333333 [-]
	 SCS Opposite-Spin Scale   =       1.2000000000000000 [-]
	 SCS Same-Spin Energy      =      -0.1730757663018939 [Eh]
	 SCS Opposite-Spin Energy  =      -2.0719045443095152 [Eh]
	 SCS Correlation Energy    =      -2.2449803106114090 [Eh]
	 SCS Total Energy          =    -466.1261642026597087 [Eh]
	-----------------------------------------------------------

  Dipole Moment: [D]
     X:    -0.5852      Y:    -0.1878      Z:     0.0430     Total:     0.6161

*** Psi4 exiting successfully. Buy a developer a beer!
