                               Psi4 1.4a3.dev225

  ==> Input File <==

--------------------------------------------------------------------------
#psi4
#
memory 32 gb

molecule  {
0 1
  C       -0.4426020    -0.8338200     0.2172010
  C       -2.7550300    -0.2335230    -0.2686280
  C       -1.3727340    -0.3393290    -0.9144000
  C       -1.1456910    -0.3766540     1.5340440
  C       -2.4139240     0.3715680     1.0951880
  C        0.9762580    -0.3476150     0.0696660
  C       -3.7696470     0.5602740    -1.0788290
  C        1.2785260     1.0190760     0.1766520
  C        2.0373285    -1.2522220    -0.1996185
  C        2.5868840     1.4777510     0.0263980
  C        3.3346800    -0.7855870    -0.3490730
  C        3.6209360     0.5756970    -0.2390260
  H       -0.4241810    -1.9311060     0.1924250
  H       -3.1414670    -1.2511910    -0.1070860
  H       -1.0573430     0.6588960    -1.2471640
  H       -1.3450850    -0.9967850    -1.7909970
  H       -0.4862050     0.2392810     2.1528250
  H       -1.4122900    -1.2543580     2.1330320
  H       -3.2323950     0.2935880     1.8197160
  H       -2.2008590     1.4410770     0.9595580
  H       -3.4037750     1.5784440    -1.2516650
  H       -3.9506210     0.0965540    -2.0538340
  H       -4.7289130     0.6299820    -0.5557020
  H        0.4812350     1.7322070     0.3831320
  H        1.8065840    -2.3037040    -0.2799060
  H        2.8010350     2.5405970     0.1152150
  H        4.1326410    -1.4960120    -0.5534930
  H        4.6413930     0.9324010    -0.3562540
units angstrom
no_reorient  #important for SAPT in psi4, default
symmetry c1  #important for SAPT in psi4, default
}

set PROPERTIES_ORIGIN ["COM"]
properties('MP2/aug-cc-pvtz', properties = ['dipole'])
--------------------------------------------------------------------------

    Molecular point group: c1
  Charge       = 0
  Multiplicity = 1
  Basis Set: AUG-CC-PVTZ
    Blend: AUG-CC-PVTZ
  Basis Set: (AUG-CC-PVTZ AUX)
    Blend: AUG-CC-PVTZ-JKFIT

    Orbital Energies [Eh]
    ---------------------

    Doubly Occupied:

       1A    -11.238719     2A    -11.233740     3A    -11.231900
       4A    -11.228762     5A    -11.228615     6A    -11.228330
       7A    -11.228064     8A    -11.221232     9A    -11.216789
      10A    -11.214947    11A    -11.214848    12A    -11.211639
      13A     -1.154965    14A     -1.124808    15A     -1.038698
      16A     -1.009796    17A     -0.987895    18A     -0.953435
      19A     -0.892801    20A     -0.825074    21A     -0.817480
      22A     -0.763665    23A     -0.756401    24A     -0.690533
      25A     -0.660530    26A     -0.636199    27A     -0.621487
      28A     -0.605002    29A     -0.586156    30A     -0.580830
      31A     -0.574577    32A     -0.556022    33A     -0.528754
      34A     -0.510923    35A     -0.509307    36A     -0.490223
      37A     -0.475495    38A     -0.463505    39A     -0.460885
      40A     -0.454017    41A     -0.450131    42A     -0.443837
      43A     -0.333633    44A     -0.316682

  @DF-RHF Final Energy:  -463.89378130878225

   => Energetics <=

    Nuclear Repulsion Energy =            675.6353962731301408
    One-Electron Energy =               -1967.1156947704980666
    Two-Electron Energy =                 827.5865171885858445
    Total Energy =                       -463.8937813087821951
  Basis Set: (AUG-CC-PVTZ AUX)
    Blend: AUG-CC-PVTZ-RI
    Molecular point group: c1

    Geometry (in Angstrom), charge = 0, multiplicity = 1:

       Center              X                  Y                   Z               Mass
    ------------   -----------------  -----------------  -----------------  -----------------
         C           -0.515104152480    -0.827227550925     0.214757590498    12.000000000000
         C           -2.827532152480    -0.226930550925    -0.271071409502    12.000000000000
         C           -1.445236152480    -0.332736550925    -0.916843409502    12.000000000000
         C           -1.218193152480    -0.370061550925     1.531600590498    12.000000000000
         C           -2.486426152480     0.378160449075     1.092744590498    12.000000000000
         C            0.903755847520    -0.341022550925     0.067222590498    12.000000000000
         C           -3.842149152480     0.566866449075    -1.081272409502    12.000000000000
         C            1.206023847520     1.025668449075     0.174208590498    12.000000000000
         C            1.964826347520    -1.245629550925    -0.202061909502    12.000000000000
         C            2.514381847520     1.484343449075     0.023954590498    12.000000000000
         C            3.262177847520    -0.778994550925    -0.351516409502    12.000000000000
         C            3.548433847520     0.582289449075    -0.241469409502    12.000000000000
         H           -0.496683152480    -1.924513550925     0.189981590498     1.007825032230
         H           -3.213969152480    -1.244598550925    -0.109529409502     1.007825032230
         H           -1.129845152480     0.665488449075    -1.249607409502     1.007825032230
         H           -1.417587152480    -0.990192550925    -1.793440409502     1.007825032230
         H           -0.558707152480     0.245873449075     2.150381590498     1.007825032230
         H           -1.484792152480    -1.247765550925     2.130588590498     1.007825032230
         H           -3.304897152480     0.300180449075     1.817272590498     1.007825032230
         H           -2.273361152480     1.447669449075     0.957114590498     1.007825032230
         H           -3.476277152480     1.585036449075    -1.254108409502     1.007825032230
         H           -4.023123152480     0.103146449075    -2.056277409502     1.007825032230
         H           -4.801415152480     0.636574449075    -0.558145409502     1.007825032230
         H            0.408732847520     1.738799449075     0.380688590498     1.007825032230
         H            1.734081847520    -2.297111550925    -0.282349409502     1.007825032230
         H            2.728532847520     2.547189449075     0.112771590498     1.007825032230
         H            4.060138847520    -1.489419550925    -0.555936409502     1.007825032230
         H            4.568890847520     0.938993449075    -0.358697409502     1.007825032230

  Basis Set: AUG-CC-PVTZ
    Blend: AUG-CC-PVTZ
  Basis Set: (AUG-CC-PVTZ AUX)
    Blend: AUG-CC-PVTZ-JKFIT
	 Reference Energy          =    -463.8937813087822519 [Eh]
	 Singles Energy            =      -0.0000000000000000 [Eh]
	 Same-Spin Energy          =      -0.5195288671122650 [Eh]
	 Opposite-Spin Energy      =      -1.7264889765645672 [Eh]
	 Correlation Energy        =      -2.2460178436768321 [Eh]
	 Total Energy              =    -466.1397991524590907 [Eh]

	 ================> DF-SCS-MP2 Energies <==================
	-----------------------------------------------------------
	 SCS Same-Spin Scale       =       0.3333333333333333 [-]
	 SCS Opposite-Spin Scale   =       1.2000000000000000 [-]
	 SCS Same-Spin Energy      =      -0.1731762890374217 [Eh]
	 SCS Opposite-Spin Energy  =      -2.0717867718774805 [Eh]
	 SCS Correlation Energy    =      -2.2449630609149023 [Eh]
	 SCS Total Energy          =    -466.1387443696971786 [Eh]
	-----------------------------------------------------------

  Dipole Moment: [D]
     X:    -0.5815      Y:    -0.2073      Z:     0.0384     Total:     0.6186

*** Psi4 exiting successfully. Buy a developer a beer!
