                               Psi4 1.4a3.dev225

  ==> Input File <==

--------------------------------------------------------------------------
#psi4
#
memory 32 gb

molecule  {
0 1
  C       -0.4426020    -0.8338200     0.2172010
  C       -2.7550300    -0.2335230    -0.2686280
  C       -1.3727340    -0.3393290    -0.9144000
  C       -1.1456910    -0.3766540     1.5340440
  C       -2.4139240     0.3715680     1.0951880
  C        0.9762580    -0.3476150     0.0696660
  C       -3.7696470     0.5602740    -1.0788290
  C        1.2785260     1.0190760     0.1766520
  C        2.0223850    -1.2394820    -0.1958260
  C        2.5868840     1.4777510     0.0263980
  C        3.3346800    -0.7855870    -0.3490730
  C        3.6209360     0.5756970    -0.2390260
  H       -0.4241810    -1.9311060     0.1924250
  H       -3.1414670    -1.2511910    -0.1070860
  H       -1.0573430     0.6588960    -1.2471640
  H       -1.3450850    -0.9967850    -1.7909970
  H       -0.4862050     0.2392810     2.1528250
  H       -1.4122900    -1.2543580     2.1330320
  H       -3.2323950     0.2935880     1.8197160
  H       -2.2008590     1.4410770     0.9595580
  H       -3.4037750     1.5784440    -1.2516650
  H       -3.9506210     0.0965540    -2.0538340
  H       -4.7289130     0.6299820    -0.5557020
  H        0.4812350     1.7322070     0.3831320
  H        1.8065840    -2.3037040    -0.2799060
  H        2.8010350     2.5405970     0.1152150
  H        4.1326410    -1.4960120    -0.5534930
  H        4.8290905     0.9980113    -0.3778163
units angstrom
no_reorient  #important for SAPT in psi4, default
symmetry c1  #important for SAPT in psi4, default
}

set PROPERTIES_ORIGIN ["COM"]
properties('MP2/aug-cc-pvtz', properties = ['dipole'])
--------------------------------------------------------------------------

    Molecular point group: c1
  Charge       = 0
  Multiplicity = 1
  Basis Set: AUG-CC-PVTZ
    Blend: AUG-CC-PVTZ
  Basis Set: (AUG-CC-PVTZ AUX)
    Blend: AUG-CC-PVTZ-JKFIT

    Orbital Energies [Eh]
    ---------------------

    Doubly Occupied:

       1A    -11.251064     2A    -11.237694     3A    -11.235995
       4A    -11.235234     5A    -11.230222     6A    -11.229926
       7A    -11.229161     8A    -11.221677     9A    -11.217327
      10A    -11.215422    11A    -11.215364    12A    -11.211987
      13A     -1.157039    14A     -1.125336    15A     -1.038426
      16A     -1.010293    17A     -0.987753    18A     -0.952843
      19A     -0.891990    20A     -0.826960    21A     -0.812062
      22A     -0.764144    23A     -0.757342    24A     -0.679117
      25A     -0.660045    26A     -0.629103    27A     -0.622163
      28A     -0.604675    29A     -0.586840    30A     -0.581192
      31A     -0.572514    32A     -0.553170    33A     -0.524140
      34A     -0.511484    35A     -0.499678    36A     -0.490038
      37A     -0.474530    38A     -0.464191    39A     -0.460797
      40A     -0.453653    41A     -0.451017    42A     -0.443844
      43A     -0.333992    44A     -0.320263

  @DF-RHF Final Energy:  -463.87230579066704

   => Energetics <=

    Nuclear Repulsion Energy =            675.0045593465049478
    One-Electron Energy =               -1965.8103188692527965
    Two-Electron Energy =                 826.9334537320808067
    Total Energy =                       -463.8723057906670419
  Basis Set: (AUG-CC-PVTZ AUX)
    Blend: AUG-CC-PVTZ-RI
    Molecular point group: c1

    Geometry (in Angstrom), charge = 0, multiplicity = 1:

       Center              X                  Y                   Z               Mass
    ------------   -----------------  -----------------  -----------------  -----------------
         C           -0.515165630867    -0.828595253835     0.214609088112    12.000000000000
         C           -2.827593630867    -0.228298253835    -0.271219911888    12.000000000000
         C           -1.445297630867    -0.334104253835    -0.916991911888    12.000000000000
         C           -1.218254630867    -0.371429253835     1.531452088112    12.000000000000
         C           -2.486487630867     0.376792746165     1.092596088112    12.000000000000
         C            0.903694369133    -0.342390253835     0.067074088112    12.000000000000
         C           -3.842210630867     0.565498746165    -1.081420911888    12.000000000000
         C            1.205962369133     1.024300746165     0.174060088112    12.000000000000
         C            1.949821369133    -1.234257253835    -0.198417911888    12.000000000000
         C            2.514320369133     1.482975746165     0.023806088112    12.000000000000
         C            3.262116369133    -0.780362253835    -0.351664911888    12.000000000000
         C            3.548372369133     0.580921746165    -0.241617911888    12.000000000000
         H           -0.496744630867    -1.925881253835     0.189833088112     1.007825032230
         H           -3.214030630867    -1.245966253835    -0.109677911888     1.007825032230
         H           -1.129906630867     0.664120746165    -1.249755911888     1.007825032230
         H           -1.417648630867    -0.991560253835    -1.793588911888     1.007825032230
         H           -0.558768630867     0.244505746165     2.150233088112     1.007825032230
         H           -1.484853630867    -1.249133253835     2.130440088112     1.007825032230
         H           -3.304958630867     0.298812746165     1.817124088112     1.007825032230
         H           -2.273422630867     1.446301746165     0.956966088112     1.007825032230
         H           -3.476338630867     1.583668746165    -1.254256911888     1.007825032230
         H           -4.023184630867     0.101778746165    -2.056425911888     1.007825032230
         H           -4.801476630867     0.635206746165    -0.558293911888     1.007825032230
         H            0.408671369133     1.737431746165     0.380540088112     1.007825032230
         H            1.734020369133    -2.298479253835    -0.282497911888     1.007825032230
         H            2.728471369133     2.545821746165     0.112623088112     1.007825032230
         H            4.060077369133    -1.490787253835    -0.556084911888     1.007825032230
         H            4.756526869133     1.003236046165    -0.380408211888     1.007825032230

  Basis Set: AUG-CC-PVTZ
    Blend: AUG-CC-PVTZ
  Basis Set: (AUG-CC-PVTZ AUX)
    Blend: AUG-CC-PVTZ-JKFIT
	 Reference Energy          =    -463.8723057906670419 [Eh]
	 Singles Energy            =      -0.0000000000000000 [Eh]
	 Same-Spin Energy          =      -0.5199423848528966 [Eh]
	 Opposite-Spin Energy      =      -1.7286075385204769 [Eh]
	 Correlation Energy        =      -2.2485499233733734 [Eh]
	 Total Energy              =    -466.1208557140404309 [Eh]

	 ================> DF-SCS-MP2 Energies <==================
	-----------------------------------------------------------
	 SCS Same-Spin Scale       =       0.3333333333333333 [-]
	 SCS Opposite-Spin Scale   =       1.2000000000000000 [-]
	 SCS Same-Spin Energy      =      -0.1733141282842988 [Eh]
	 SCS Opposite-Spin Energy  =      -2.0743290462245723 [Eh]
	 SCS Correlation Energy    =      -2.2476431745088710 [Eh]
	 SCS Total Energy          =    -466.1199489651759222 [Eh]
	-----------------------------------------------------------

  Dipole Moment: [D]
     X:    -0.6960      Y:    -0.2427      Z:     0.0508     Total:     0.7388

*** Psi4 exiting successfully. Buy a developer a beer!
