                               Psi4 1.4a3.dev225

  ==> Input File <==

--------------------------------------------------------------------------
#psi4
#
memory 32 gb

molecule  {
0 1
  C       -0.4426020    -0.8338200     0.2172010
  C       -2.7550300    -0.2335230    -0.2686280
  C       -1.3727340    -0.3393290    -0.9144000
  C       -1.1456910    -0.3766540     1.5340440
  C       -2.4139240     0.3715680     1.0951880
  C        0.9762580    -0.3476150     0.0696660
  C       -3.7696470     0.5602740    -1.0788290
  C        1.2785260     1.0190760     0.1766520
  C        2.0223850    -1.2394820    -0.1958260
  C        2.6337938     1.4941963     0.0210108
  C        3.3346800    -0.7855870    -0.3490730
  C        3.6209360     0.5756970    -0.2390260
  H       -0.4241810    -1.9311060     0.1924250
  H       -3.1414670    -1.2511910    -0.1070860
  H       -1.0573430     0.6588960    -1.2471640
  H       -1.3450850    -0.9967850    -1.7909970
  H       -0.4862050     0.2392810     2.1528250
  H       -1.4122900    -1.2543580     2.1330320
  H       -3.2323950     0.2935880     1.8197160
  H       -2.2008590     1.4410770     0.9595580
  H       -3.4037750     1.5784440    -1.2516650
  H       -3.9506210     0.0965540    -2.0538340
  H       -4.7289130     0.6299820    -0.5557020
  H        0.4812350     1.7322070     0.3831320
  H        1.8065840    -2.3037040    -0.2799060
  H        2.8010350     2.5405970     0.1152150
  H        4.1326410    -1.4960120    -0.5534930
  H        4.6413930     0.9324010    -0.3562540
units angstrom
no_reorient  #important for SAPT in psi4, default
symmetry c1  #important for SAPT in psi4, default
}

set PROPERTIES_ORIGIN ["COM"]
properties('MP2/aug-cc-pvtz', properties = ['dipole'])
--------------------------------------------------------------------------

    Molecular point group: c1
  Charge       = 0
  Multiplicity = 1
  Basis Set: AUG-CC-PVTZ
    Blend: AUG-CC-PVTZ
  Basis Set: (AUG-CC-PVTZ AUX)
    Blend: AUG-CC-PVTZ-JKFIT

    Orbital Energies [Eh]
    ---------------------

    Doubly Occupied:

       1A    -11.236188     2A    -11.234227     3A    -11.233122
       4A    -11.232858     5A    -11.229229     6A    -11.228294
       7A    -11.227063     8A    -11.221013     9A    -11.216449
      10A    -11.214726    11A    -11.214535    12A    -11.211483
      13A     -1.154390    14A     -1.124280    15A     -1.041342
      16A     -1.004310    17A     -0.988330    18A     -0.953868
      19A     -0.892281    20A     -0.829523    21A     -0.814910
      22A     -0.763488    23A     -0.756742    24A     -0.689111
      25A     -0.659953    26A     -0.637579    27A     -0.621226
      28A     -0.609988    29A     -0.586591    30A     -0.579342
      31A     -0.572662    32A     -0.555704    33A     -0.527035
      34A     -0.509273    35A     -0.507550    36A     -0.494838
      37A     -0.474550    38A     -0.463100    39A     -0.460943
      40A     -0.453146    41A     -0.450458    42A     -0.443347
      43A     -0.328816    44A     -0.320439

  @DF-RHF Final Energy:  -463.89105964450806

   => Energetics <=

    Nuclear Repulsion Energy =            675.2725778210536873
    One-Electron Energy =               -1966.3906752916652749
    Two-Electron Energy =                 827.2270378261035830
    Total Energy =                       -463.8910596445081183
  Basis Set: (AUG-CC-PVTZ AUX)
    Blend: AUG-CC-PVTZ-RI
    Molecular point group: c1

    Geometry (in Angstrom), charge = 0, multiplicity = 1:

       Center              X                  Y                   Z               Mass
    ------------   -----------------  -----------------  -----------------  -----------------
         C           -0.517499750417    -0.829414736944     0.214877099482    12.000000000000
         C           -2.829927750417    -0.229117736944    -0.270951900518    12.000000000000
         C           -1.447631750417    -0.334923736944    -0.916723900518    12.000000000000
         C           -1.220588750417    -0.372248736944     1.531720099482    12.000000000000
         C           -2.488821750417     0.375973263056     1.092864099482    12.000000000000
         C            0.901360249583    -0.343209736944     0.067342099482    12.000000000000
         C           -3.844544750417     0.564679263056    -1.081152900518    12.000000000000
         C            1.203628249583     1.023481263056     0.174328099482    12.000000000000
         C            1.947487249583    -1.235076736944    -0.198149900518    12.000000000000
         C            2.558896049583     1.498601563056     0.018686899482    12.000000000000
         C            3.259782249583    -0.781181736944    -0.351396900518    12.000000000000
         C            3.546038249583     0.580102263056    -0.241349900518    12.000000000000
         H           -0.499078750417    -1.926700736944     0.190101099482     1.007825032230
         H           -3.216364750417    -1.246785736944    -0.109409900518     1.007825032230
         H           -1.132240750417     0.663301263056    -1.249487900518     1.007825032230
         H           -1.419982750417    -0.992379736944    -1.793320900518     1.007825032230
         H           -0.561102750417     0.243686263056     2.150501099482     1.007825032230
         H           -1.487187750417    -1.249952736944     2.130708099482     1.007825032230
         H           -3.307292750417     0.297993263056     1.817392099482     1.007825032230
         H           -2.275756750417     1.445482263056     0.957234099482     1.007825032230
         H           -3.478672750417     1.582849263056    -1.253988900518     1.007825032230
         H           -4.025518750417     0.100959263056    -2.056157900518     1.007825032230
         H           -4.803810750417     0.634387263056    -0.558025900518     1.007825032230
         H            0.406337249583     1.736612263056     0.380808099482     1.007825032230
         H            1.731686249583    -2.299298736944    -0.282229900518     1.007825032230
         H            2.726137249583     2.545002263056     0.112891099482     1.007825032230
         H            4.057743249583    -1.491606736944    -0.555816900518     1.007825032230
         H            4.566495249583     0.936806263056    -0.358577900518     1.007825032230

  Basis Set: AUG-CC-PVTZ
    Blend: AUG-CC-PVTZ
  Basis Set: (AUG-CC-PVTZ AUX)
    Blend: AUG-CC-PVTZ-JKFIT
	 Reference Energy          =    -463.8910596445080614 [Eh]
	 Singles Energy            =      -0.0000000000000000 [Eh]
	 Same-Spin Energy          =      -0.5195497909391329 [Eh]
	 Opposite-Spin Energy      =      -1.7267777875293637 [Eh]
	 Correlation Energy        =      -2.2463275784684966 [Eh]
	 Total Energy              =    -466.1373872229765425 [Eh]

	 ================> DF-SCS-MP2 Energies <==================
	-----------------------------------------------------------
	 SCS Same-Spin Scale       =       0.3333333333333333 [-]
	 SCS Opposite-Spin Scale   =       1.2000000000000000 [-]
	 SCS Same-Spin Energy      =      -0.1731832636463776 [Eh]
	 SCS Opposite-Spin Energy  =      -2.0721333450352364 [Eh]
	 SCS Correlation Energy    =      -2.2453166086816139 [Eh]
	 SCS Total Energy          =    -466.1363762531896668 [Eh]
	-----------------------------------------------------------

  Dipole Moment: [D]
     X:    -0.5719      Y:    -0.1930      Z:     0.0387     Total:     0.6048

*** Psi4 exiting successfully. Buy a developer a beer!
