                               Psi4 1.4a3.dev225

  ==> Input File <==

--------------------------------------------------------------------------
#psi4
#
memory 32 gb

molecule  {
0 1
  C       -0.4426020    -0.8338200     0.2172010
  C       -2.7550300    -0.2335230    -0.2686280
  C       -1.3727340    -0.3393290    -0.9144000
  C       -1.1456910    -0.3766540     1.5340440
  C       -2.4139240     0.3715680     1.0951880
  C        0.9762580    -0.3476150     0.0696660
  C       -3.7696470     0.5602740    -1.0788290
  C        1.2828324     1.0385473     0.1781762
  C        2.0223850    -1.2394820    -0.1958260
  C        2.5868840     1.4777510     0.0263980
  C        3.3346800    -0.7855870    -0.3490730
  C        3.6209360     0.5756970    -0.2390260
  H       -0.4241810    -1.9311060     0.1924250
  H       -3.1414670    -1.2511910    -0.1070860
  H       -1.0573430     0.6588960    -1.2471640
  H       -1.3450850    -0.9967850    -1.7909970
  H       -0.4862050     0.2392810     2.1528250
  H       -1.4122900    -1.2543580     2.1330320
  H       -3.2323950     0.2935880     1.8197160
  H       -2.2008590     1.4410770     0.9595580
  H       -3.4037750     1.5784440    -1.2516650
  H       -3.9506210     0.0965540    -2.0538340
  H       -4.7289130     0.6299820    -0.5557020
  H        0.4812350     1.7322070     0.3831320
  H        1.8065840    -2.3037040    -0.2799060
  H        2.8010350     2.5405970     0.1152150
  H        4.1326410    -1.4960120    -0.5534930
  H        4.6413930     0.9324010    -0.3562540
units angstrom
no_reorient  #important for SAPT in psi4, default
symmetry c1  #important for SAPT in psi4, default
}

set PROPERTIES_ORIGIN ["COM"]
properties('MP2/aug-cc-pvtz', properties = ['dipole'])
--------------------------------------------------------------------------

    Molecular point group: c1
  Charge       = 0
  Multiplicity = 1
  Basis Set: AUG-CC-PVTZ
    Blend: AUG-CC-PVTZ
  Basis Set: (AUG-CC-PVTZ AUX)
    Blend: AUG-CC-PVTZ-JKFIT

    Orbital Energies [Eh]
    ---------------------

    Doubly Occupied:

       1A    -11.238697     2A    -11.233032     3A    -11.232573
       4A    -11.228789     5A    -11.228588     6A    -11.228535
       7A    -11.227797     8A    -11.221303     9A    -11.216874
      10A    -11.215059    11A    -11.214905    12A    -11.211694
      13A     -1.154930    14A     -1.124877    15A     -1.038709
      16A     -1.009948    17A     -0.987951    18A     -0.953497
      19A     -0.892830    20A     -0.826738    21A     -0.815201
      22A     -0.763685    23A     -0.757180    24A     -0.690390
      25A     -0.660624    26A     -0.635677    27A     -0.621602
      28A     -0.606393    29A     -0.585964    30A     -0.580889
      31A     -0.573693    32A     -0.556077    33A     -0.528968
      34A     -0.512493    35A     -0.509251    36A     -0.488349
      37A     -0.475389    38A     -0.463628    39A     -0.461801
      40A     -0.453674    41A     -0.450014    42A     -0.444153
      43A     -0.333943    44A     -0.316620

  @DF-RHF Final Energy:  -463.89391896832410

   => Energetics <=

    Nuclear Repulsion Energy =            675.6597643880199939
    One-Electron Energy =               -1967.1614014098784082
    Two-Electron Energy =                 827.6077180535343132
    Total Energy =                       -463.8939189683241011
  Basis Set: (AUG-CC-PVTZ AUX)
    Blend: AUG-CC-PVTZ-RI
    Molecular point group: c1

    Geometry (in Angstrom), charge = 0, multiplicity = 1:

       Center              X                  Y                   Z               Mass
    ------------   -----------------  -----------------  -----------------  -----------------
         C           -0.514306993760    -0.829641509494     0.214359149779    12.000000000000
         C           -2.826734993760    -0.229344509494    -0.271469850221    12.000000000000
         C           -1.444438993760    -0.335150509494    -0.917241850221    12.000000000000
         C           -1.217395993760    -0.372475509494     1.531202149779    12.000000000000
         C           -2.485628993760     0.375746490506     1.092346149779    12.000000000000
         C            0.904553006240    -0.343436509494     0.066824149779    12.000000000000
         C           -3.841351993760     0.564452490506    -1.081670850221    12.000000000000
         C            1.211127406240     1.042725790506     0.175334349779    12.000000000000
         C            1.950680006240    -1.235303509494    -0.198667850221    12.000000000000
         C            2.515179006240     1.481929490506     0.023556149779    12.000000000000
         C            3.262975006240    -0.781408509494    -0.351914850221    12.000000000000
         C            3.549231006240     0.579875490506    -0.241867850221    12.000000000000
         H           -0.495885993760    -1.926927509494     0.189583149779     1.007825032230
         H           -3.213171993760    -1.247012509494    -0.109927850221     1.007825032230
         H           -1.129047993760     0.663074490506    -1.250005850221     1.007825032230
         H           -1.416789993760    -0.992606509494    -1.793838850221     1.007825032230
         H           -0.557909993760     0.243459490506     2.149983149779     1.007825032230
         H           -1.483994993760    -1.250179509494     2.130190149779     1.007825032230
         H           -3.304099993760     0.297766490506     1.816874149779     1.007825032230
         H           -2.272563993760     1.445255490506     0.956716149779     1.007825032230
         H           -3.475479993760     1.582622490506    -1.254506850221     1.007825032230
         H           -4.022325993760     0.100732490506    -2.056675850221     1.007825032230
         H           -4.800617993760     0.634160490506    -0.558543850221     1.007825032230
         H            0.409530006240     1.736385490506     0.380290149779     1.007825032230
         H            1.734879006240    -2.299525509494    -0.282747850221     1.007825032230
         H            2.729330006240     2.544775490506     0.112373149779     1.007825032230
         H            4.060936006240    -1.491833509494    -0.556334850221     1.007825032230
         H            4.569688006240     0.936579490506    -0.359095850221     1.007825032230

  Basis Set: AUG-CC-PVTZ
    Blend: AUG-CC-PVTZ
  Basis Set: (AUG-CC-PVTZ AUX)
    Blend: AUG-CC-PVTZ-JKFIT
	 Reference Energy          =    -463.8939189683241011 [Eh]
	 Singles Energy            =      -0.0000000000000000 [Eh]
	 Same-Spin Energy          =      -0.5194384761186834 [Eh]
	 Opposite-Spin Energy      =      -1.7264511786056069 [Eh]
	 Correlation Energy        =      -2.2458896547242904 [Eh]
	 Total Energy              =    -466.1398086230483955 [Eh]

	 ================> DF-SCS-MP2 Energies <==================
	-----------------------------------------------------------
	 SCS Same-Spin Scale       =       0.3333333333333333 [-]
	 SCS Opposite-Spin Scale   =       1.2000000000000000 [-]
	 SCS Same-Spin Energy      =      -0.1731461587062278 [Eh]
	 SCS Opposite-Spin Energy  =      -2.0717414143267283 [Eh]
	 SCS Correlation Energy    =      -2.2448875730329561 [Eh]
	 SCS Total Energy          =    -466.1388065413570416 [Eh]
	-----------------------------------------------------------

  Dipole Moment: [D]
     X:    -0.5838      Y:    -0.2071      Z:     0.0386     Total:     0.6206

*** Psi4 exiting successfully. Buy a developer a beer!
