                               Psi4 1.4a3.dev225

  ==> Input File <==

--------------------------------------------------------------------------
#psi4
#
memory 32 gb

molecule  {
0 1
  C       -0.4426020    -0.8338200     0.2172010
  C       -2.7550300    -0.2335230    -0.2686280
  C       -1.3727340    -0.3393290    -0.9144000
  C       -1.1456910    -0.3766540     1.5340440
  C       -2.4139240     0.3715680     1.0951880
  C        0.9762580    -0.3476150     0.0696660
  C       -3.7696470     0.5602740    -1.0788290
  C        1.2785260     1.0190760     0.1766520
  C        2.0597439    -1.2713320    -0.2053071
  C        2.5868840     1.4777510     0.0263980
  C        3.3346800    -0.7855870    -0.3490730
  C        3.6209360     0.5756970    -0.2390260
  H       -0.4241810    -1.9311060     0.1924250
  H       -3.1414670    -1.2511910    -0.1070860
  H       -1.0573430     0.6588960    -1.2471640
  H       -1.3450850    -0.9967850    -1.7909970
  H       -0.4862050     0.2392810     2.1528250
  H       -1.4122900    -1.2543580     2.1330320
  H       -3.2323950     0.2935880     1.8197160
  H       -2.2008590     1.4410770     0.9595580
  H       -3.4037750     1.5784440    -1.2516650
  H       -3.9506210     0.0965540    -2.0538340
  H       -4.7289130     0.6299820    -0.5557020
  H        0.4812350     1.7322070     0.3831320
  H        1.8065840    -2.3037040    -0.2799060
  H        2.8010350     2.5405970     0.1152150
  H        4.1326410    -1.4960120    -0.5534930
  H        4.6413930     0.9324010    -0.3562540
units angstrom
no_reorient  #important for SAPT in psi4, default
symmetry c1  #important for SAPT in psi4, default
}

set PROPERTIES_ORIGIN ["COM"]
properties('MP2/aug-cc-pvtz', properties = ['dipole'])
--------------------------------------------------------------------------

    Molecular point group: c1
  Charge       = 0
  Multiplicity = 1
  Basis Set: AUG-CC-PVTZ
    Blend: AUG-CC-PVTZ
  Basis Set: (AUG-CC-PVTZ AUX)
    Blend: AUG-CC-PVTZ-JKFIT

    Orbital Energies [Eh]
    ---------------------

    Doubly Occupied:

       1A    -11.241829     2A    -11.234014     3A    -11.230606
       4A    -11.228973     5A    -11.228707     6A    -11.228260
       7A    -11.227569     8A    -11.221329     9A    -11.216933
      10A    -11.215049    11A    -11.215008    12A    -11.211718
      13A     -1.153603    14A     -1.124822    15A     -1.037730
      16A     -1.011850    17A     -0.987070    18A     -0.952933
      19A     -0.893034    20A     -0.823272    21A     -0.819313
      22A     -0.763777    23A     -0.755175    24A     -0.691590
      25A     -0.660756    26A     -0.637904    27A     -0.621113
      28A     -0.602697    29A     -0.586123    30A     -0.582390
      31A     -0.575746    32A     -0.555856    33A     -0.529082
      34A     -0.511126    35A     -0.508301    36A     -0.490511
      37A     -0.475609    38A     -0.463709    39A     -0.460042
      40A     -0.454336    41A     -0.449779    42A     -0.443518
      43A     -0.335888    44A     -0.313521

  @DF-RHF Final Energy:  -463.89112311997087

   => Energetics <=

    Nuclear Repulsion Energy =            675.1898419795109021
    One-Electron Energy =               -1966.2175875573839221
    Two-Electron Energy =                 827.1366224579021491
    Total Energy =                       -463.8911231199708709
  Basis Set: (AUG-CC-PVTZ AUX)
    Blend: AUG-CC-PVTZ-RI
    Molecular point group: c1

    Geometry (in Angstrom), charge = 0, multiplicity = 1:

       Center              X                  Y                   Z               Mass
    ------------   -----------------  -----------------  -----------------  -----------------
         C           -0.516783993000    -0.825795421570     0.215183901908    12.000000000000
         C           -2.829211993000    -0.225498421570    -0.270645098092    12.000000000000
         C           -1.446915993000    -0.331304421570    -0.916417098092    12.000000000000
         C           -1.219872993000    -0.368629421570     1.532026901908    12.000000000000
         C           -2.488105993000     0.379592578430     1.093170901908    12.000000000000
         C            0.902076007000    -0.339590421570     0.067648901908    12.000000000000
         C           -3.843828993000     0.568298578430    -1.080846098092    12.000000000000
         C            1.204344007000     1.027100578430     0.174634901908    12.000000000000
         C            1.985561907000    -1.263307421570    -0.207324198092    12.000000000000
         C            2.512702007000     1.485775578430     0.024380901908    12.000000000000
         C            3.260498007000    -0.777562421570    -0.351090098092    12.000000000000
         C            3.546754007000     0.583721578430    -0.241043098092    12.000000000000
         H           -0.498362993000    -1.923081421570     0.190407901908     1.007825032230
         H           -3.215648993000    -1.243166421570    -0.109103098092     1.007825032230
         H           -1.131524993000     0.666920578430    -1.249181098092     1.007825032230
         H           -1.419266993000    -0.988760421570    -1.793014098092     1.007825032230
         H           -0.560386993000     0.247305578430     2.150807901908     1.007825032230
         H           -1.486471993000    -1.246333421570     2.131014901908     1.007825032230
         H           -3.306576993000     0.301612578430     1.817698901908     1.007825032230
         H           -2.275040993000     1.449101578430     0.957540901908     1.007825032230
         H           -3.477956993000     1.586468578430    -1.253682098092     1.007825032230
         H           -4.024802993000     0.104578578430    -2.055851098092     1.007825032230
         H           -4.803094993000     0.638006578430    -0.557719098092     1.007825032230
         H            0.407053007000     1.740231578430     0.381114901908     1.007825032230
         H            1.732402007000    -2.295679421570    -0.281923098092     1.007825032230
         H            2.726853007000     2.548621578430     0.113197901908     1.007825032230
         H            4.058459007000    -1.487987421570    -0.555510098092     1.007825032230
         H            4.567211007000     0.940425578430    -0.358271098092     1.007825032230

  Basis Set: AUG-CC-PVTZ
    Blend: AUG-CC-PVTZ
  Basis Set: (AUG-CC-PVTZ AUX)
    Blend: AUG-CC-PVTZ-JKFIT
	 Reference Energy          =    -463.8911231199708709 [Eh]
	 Singles Energy            =      -0.0000000000000000 [Eh]
	 Same-Spin Energy          =      -0.5195366713078502 [Eh]
	 Opposite-Spin Energy      =      -1.7266456313020491 [Eh]
	 Correlation Energy        =      -2.2461823026098990 [Eh]
	 Total Energy              =    -466.1373054225807664 [Eh]

	 ================> DF-SCS-MP2 Energies <==================
	-----------------------------------------------------------
	 SCS Same-Spin Scale       =       0.3333333333333333 [-]
	 SCS Opposite-Spin Scale   =       1.2000000000000000 [-]
	 SCS Same-Spin Energy      =      -0.1731788904359501 [Eh]
	 SCS Opposite-Spin Energy  =      -2.0719747575624590 [Eh]
	 SCS Correlation Energy    =      -2.2451536479984089 [Eh]
	 SCS Total Energy          =    -466.1362767679692638 [Eh]
	-----------------------------------------------------------

  Dipole Moment: [D]
     X:    -0.5988      Y:    -0.2131      Z:     0.0399     Total:     0.6369

*** Psi4 exiting successfully. Buy a developer a beer!
