                               Psi4 1.4a3.dev225

  ==> Input File <==

--------------------------------------------------------------------------
#psi4
#
memory 32 gb

molecule  {
0 1
  C       -0.4549485    -0.9367300     0.2508448
  C       -2.7550300    -0.2335230    -0.2686280
  C       -1.3727340    -0.3393290    -0.9144000
  C       -1.1456910    -0.3766540     1.5340440
  C       -2.4139240     0.3715680     1.0951880
  C        0.9762580    -0.3476150     0.0696660
  C       -3.7696470     0.5602740    -1.0788290
  C        1.2785260     1.0190760     0.1766520
  C        2.0223850    -1.2394820    -0.1958260
  C        2.5868840     1.4777510     0.0263980
  C        3.3346800    -0.7855870    -0.3490730
  C        3.6209360     0.5756970    -0.2390260
  H       -0.4241810    -1.9311060     0.1924250
  H       -3.1414670    -1.2511910    -0.1070860
  H       -1.0573430     0.6588960    -1.2471640
  H       -1.3450850    -0.9967850    -1.7909970
  H       -0.4862050     0.2392810     2.1528250
  H       -1.4122900    -1.2543580     2.1330320
  H       -3.2323950     0.2935880     1.8197160
  H       -2.2008590     1.4410770     0.9595580
  H       -3.4037750     1.5784440    -1.2516650
  H       -3.9506210     0.0965540    -2.0538340
  H       -4.7289130     0.6299820    -0.5557020
  H        0.4812350     1.7322070     0.3831320
  H        1.8065840    -2.3037040    -0.2799060
  H        2.8010350     2.5405970     0.1152150
  H        4.1326410    -1.4960120    -0.5534930
  H        4.6413930     0.9324010    -0.3562540
units angstrom
no_reorient  #important for SAPT in psi4, default
symmetry c1  #important for SAPT in psi4, default
}

set PROPERTIES_ORIGIN ["COM"]
properties('MP2/aug-cc-pvtz', properties = ['dipole'])
--------------------------------------------------------------------------

    Molecular point group: c1
  Charge       = 0
  Multiplicity = 1
  Basis Set: AUG-CC-PVTZ
    Blend: AUG-CC-PVTZ
  Basis Set: (AUG-CC-PVTZ AUX)
    Blend: AUG-CC-PVTZ-JKFIT

    Orbital Energies [Eh]
    ---------------------

    Doubly Occupied:

       1A    -11.238790     2A    -11.233554     3A    -11.231864
       4A    -11.228623     5A    -11.227633     6A    -11.226833
       7A    -11.226066     8A    -11.220660     9A    -11.217110
      10A    -11.216952    11A    -11.215150    12A    -11.211253
      13A     -1.152205    14A     -1.122381    15A     -1.036195
      16A     -1.007600    17A     -0.988215    18A     -0.950416
      19A     -0.894543    20A     -0.826870    21A     -0.812263
      22A     -0.768381    23A     -0.760511    24A     -0.690834
      25A     -0.659461    26A     -0.631555    27A     -0.621182
      28A     -0.606055    29A     -0.589110    30A     -0.579448
      31A     -0.576272    32A     -0.554154    33A     -0.529271
      34A     -0.512918    35A     -0.506162    36A     -0.491164
      37A     -0.476645    38A     -0.469863    39A     -0.460756
      40A     -0.451011    41A     -0.450457    42A     -0.435036
      43A     -0.331727    44A     -0.316713

  @DF-RHF Final Energy:  -463.88144604281007

   => Energetics <=

    Nuclear Repulsion Energy =            674.6342923518685666
    One-Electron Energy =               -1965.1237473821604453
    Two-Electron Energy =                 826.6080089874819805
    Total Energy =                       -463.8814460428100119
  Basis Set: (AUG-CC-PVTZ AUX)
    Blend: AUG-CC-PVTZ-RI
    Molecular point group: c1

    Geometry (in Angstrom), charge = 0, multiplicity = 1:

       Center              X                  Y                   Z               Mass
    ------------   -----------------  -----------------  -----------------  -----------------
         C           -0.525405502817    -0.923380088661     0.245595863332    12.000000000000
         C           -2.825487002817    -0.220173088661    -0.273876936668    12.000000000000
         C           -1.443191002817    -0.325979088661    -0.919648936668    12.000000000000
         C           -1.216148002817    -0.363304088661     1.528795063332    12.000000000000
         C           -2.484381002817     0.384917911339     1.089939063332    12.000000000000
         C            0.905800997183    -0.334265088661     0.064417063332    12.000000000000
         C           -3.840104002817     0.573623911339    -1.084077936668    12.000000000000
         C            1.208068997183     1.032425911339     0.171403063332    12.000000000000
         C            1.951927997183    -1.226132088661    -0.201074936668    12.000000000000
         C            2.516426997183     1.491100911339     0.021149063332    12.000000000000
         C            3.264222997183    -0.772237088661    -0.354321936668    12.000000000000
         C            3.550478997183     0.589046911339    -0.244274936668    12.000000000000
         H           -0.494638002817    -1.917756088661     0.187176063332     1.007825032230
         H           -3.211924002817    -1.237841088661    -0.112334936668     1.007825032230
         H           -1.127800002817     0.672245911339    -1.252412936668     1.007825032230
         H           -1.415542002817    -0.983435088661    -1.796245936668     1.007825032230
         H           -0.556662002817     0.252630911339     2.147576063332     1.007825032230
         H           -1.482747002817    -1.241008088661     2.127783063332     1.007825032230
         H           -3.302852002817     0.306937911339     1.814467063332     1.007825032230
         H           -2.271316002817     1.454426911339     0.954309063332     1.007825032230
         H           -3.474232002817     1.591793911339    -1.256913936668     1.007825032230
         H           -4.021078002817     0.109903911339    -2.059082936668     1.007825032230
         H           -4.799370002817     0.643331911339    -0.560950936668     1.007825032230
         H            0.410777997183     1.745556911339     0.377883063332     1.007825032230
         H            1.736126997183    -2.290354088661    -0.285154936668     1.007825032230
         H            2.730577997183     2.553946911339     0.109966063332     1.007825032230
         H            4.062183997183    -1.482662088661    -0.558741936668     1.007825032230
         H            4.570935997183     0.945750911339    -0.361502936668     1.007825032230

  Basis Set: AUG-CC-PVTZ
    Blend: AUG-CC-PVTZ
  Basis Set: (AUG-CC-PVTZ AUX)
    Blend: AUG-CC-PVTZ-JKFIT
	 Reference Energy          =    -463.8814460428100688 [Eh]
	 Singles Energy            =      -0.0000000000000000 [Eh]
	 Same-Spin Energy          =      -0.5190963190135152 [Eh]
	 Opposite-Spin Energy      =      -1.7262958914620541 [Eh]
	 Correlation Energy        =      -2.2453922104755693 [Eh]
	 Total Energy              =    -466.1268382532856549 [Eh]

	 ================> DF-SCS-MP2 Energies <==================
	-----------------------------------------------------------
	 SCS Same-Spin Scale       =       0.3333333333333333 [-]
	 SCS Opposite-Spin Scale   =       1.2000000000000000 [-]
	 SCS Same-Spin Energy      =      -0.1730321063378384 [Eh]
	 SCS Opposite-Spin Energy  =      -2.0715550697544649 [Eh]
	 SCS Correlation Energy    =      -2.2445871760923031 [Eh]
	 SCS Total Energy          =    -466.1260332189023643 [Eh]
	-----------------------------------------------------------

  Dipole Moment: [D]
     X:    -0.6200      Y:    -0.2688      Z:     0.0490     Total:     0.6775

*** Psi4 exiting successfully. Buy a developer a beer!
