                               Psi4 1.4a3.dev225

  ==> Input File <==

--------------------------------------------------------------------------
#psi4
#
memory 32 gb

molecule  {
0 1
  C       -0.4426020    -0.8338200     0.2172010
  C       -2.7550300    -0.2335230    -0.2686280
  C       -1.3727340    -0.3393290    -0.9144000
  C       -1.1456910    -0.3766540     1.5340440
  C       -2.4139240     0.3715680     1.0951880
  C        0.9762580    -0.3476150     0.0696660
  C       -3.7696470     0.5602740    -1.0788290
  C        1.2785260     1.0190760     0.1766520
  C        2.0223850    -1.2394820    -0.1958260
  C        2.5868840     1.4777510     0.0263980
  C        3.2877118    -0.8018323    -0.3435882
  C        3.6209360     0.5756970    -0.2390260
  H       -0.4241810    -1.9311060     0.1924250
  H       -3.1414670    -1.2511910    -0.1070860
  H       -1.0573430     0.6588960    -1.2471640
  H       -1.3450850    -0.9967850    -1.7909970
  H       -0.4862050     0.2392810     2.1528250
  H       -1.4122900    -1.2543580     2.1330320
  H       -3.2323950     0.2935880     1.8197160
  H       -2.2008590     1.4410770     0.9595580
  H       -3.4037750     1.5784440    -1.2516650
  H       -3.9506210     0.0965540    -2.0538340
  H       -4.7289130     0.6299820    -0.5557020
  H        0.4812350     1.7322070     0.3831320
  H        1.8065840    -2.3037040    -0.2799060
  H        2.8010350     2.5405970     0.1152150
  H        4.1326410    -1.4960120    -0.5534930
  H        4.6413930     0.9324010    -0.3562540
units angstrom
no_reorient  #important for SAPT in psi4, default
symmetry c1  #important for SAPT in psi4, default
}

set PROPERTIES_ORIGIN ["COM"]
properties('MP2/aug-cc-pvtz', properties = ['dipole'])
--------------------------------------------------------------------------

    Molecular point group: c1
  Charge       = 0
  Multiplicity = 1
  Basis Set: AUG-CC-PVTZ
    Blend: AUG-CC-PVTZ
  Basis Set: (AUG-CC-PVTZ AUX)
    Blend: AUG-CC-PVTZ-JKFIT

    Orbital Energies [Eh]
    ---------------------

    Doubly Occupied:

       1A    -11.236833     2A    -11.233324     3A    -11.232157
       4A    -11.230648     5A    -11.228449     6A    -11.227322
       7A    -11.222818     8A    -11.221209     9A    -11.216713
      10A    -11.214900    11A    -11.214832    12A    -11.211623
      13A     -1.157956    14A     -1.125547    15A     -1.037725
      16A     -1.014448    17A     -0.987289    18A     -0.953356
      19A     -0.893061    20A     -0.825632    21A     -0.815712
      22A     -0.763625    23A     -0.756655    24A     -0.690450
      25A     -0.660951    26A     -0.632903    27A     -0.623797
      28A     -0.604399    29A     -0.585188    30A     -0.580604
      31A     -0.574762    32A     -0.555888    33A     -0.529684
      34A     -0.512552    35A     -0.511296    36A     -0.483029
      37A     -0.475834    38A     -0.463566    39A     -0.461493
      40A     -0.454148    41A     -0.450055    42A     -0.444200
      43A     -0.338739    44A     -0.314714

  @DF-RHF Final Energy:  -463.89114707347363

   => Energetics <=

    Nuclear Repulsion Energy =            676.5854580262061972
    One-Electron Energy =               -1969.0130475211058183
    Two-Electron Energy =                 828.5364424214260453
    Total Energy =                       -463.8911470734735758
  Basis Set: (AUG-CC-PVTZ AUX)
    Blend: AUG-CC-PVTZ-RI
    Molecular point group: c1

    Geometry (in Angstrom), charge = 0, multiplicity = 1:

       Center              X                  Y                   Z               Mass
    ------------   -----------------  -----------------  -----------------  -----------------
         C           -0.510464405597    -0.826964858982     0.214062337036    12.000000000000
         C           -2.822892405597    -0.226667858982    -0.271766662964    12.000000000000
         C           -1.440596405597    -0.332473858982    -0.917538662964    12.000000000000
         C           -1.213553405597    -0.369798858982     1.530905337036    12.000000000000
         C           -2.481786405597     0.378423141018     1.092049337036    12.000000000000
         C            0.908395594403    -0.340759858982     0.066527337036    12.000000000000
         C           -3.837509405597     0.567129141018    -1.081967662964    12.000000000000
         C            1.210663594403     1.025931141018     0.173513337036    12.000000000000
         C            1.954522594403    -1.232626858982    -0.198964662964    12.000000000000
         C            2.519021594403     1.484606141018     0.023259337036    12.000000000000
         C            3.219849394403    -0.794977158982    -0.346726862964    12.000000000000
         C            3.553073594403     0.582552141018    -0.242164662964    12.000000000000
         H           -0.492043405597    -1.924250858982     0.189286337036     1.007825032230
         H           -3.209329405597    -1.244335858982    -0.110224662964     1.007825032230
         H           -1.125205405597     0.665751141018    -1.250302662964     1.007825032230
         H           -1.412947405597    -0.989929858982    -1.794135662964     1.007825032230
         H           -0.554067405597     0.246136141018     2.149686337036     1.007825032230
         H           -1.480152405597    -1.247502858982     2.129893337036     1.007825032230
         H           -3.300257405597     0.300443141018     1.816577337036     1.007825032230
         H           -2.268721405597     1.447932141018     0.956419337036     1.007825032230
         H           -3.471637405597     1.585299141018    -1.254803662964     1.007825032230
         H           -4.018483405597     0.103409141018    -2.056972662964     1.007825032230
         H           -4.796775405597     0.636837141018    -0.558840662964     1.007825032230
         H            0.413372594403     1.739062141018     0.379993337036     1.007825032230
         H            1.738721594403    -2.296848858982    -0.283044662964     1.007825032230
         H            2.733172594403     2.547452141018     0.112076337036     1.007825032230
         H            4.064778594403    -1.489156858982    -0.556631662964     1.007825032230
         H            4.573530594403     0.939256141018    -0.359392662964     1.007825032230

  Basis Set: AUG-CC-PVTZ
    Blend: AUG-CC-PVTZ
  Basis Set: (AUG-CC-PVTZ AUX)
    Blend: AUG-CC-PVTZ-JKFIT
	 Reference Energy          =    -463.8911470734736326 [Eh]
	 Singles Energy            =      -0.0000000000000000 [Eh]
	 Same-Spin Energy          =      -0.5195963480168614 [Eh]
	 Opposite-Spin Energy      =      -1.7265145535663298 [Eh]
	 Correlation Energy        =      -2.2461109015831910 [Eh]
	 Total Energy              =    -466.1372579750567979 [Eh]

	 ================> DF-SCS-MP2 Energies <==================
	-----------------------------------------------------------
	 SCS Same-Spin Scale       =       0.3333333333333333 [-]
	 SCS Opposite-Spin Scale   =       1.2000000000000000 [-]
	 SCS Same-Spin Energy      =      -0.1731987826722871 [Eh]
	 SCS Opposite-Spin Energy  =      -2.0718174642795955 [Eh]
	 SCS Correlation Energy    =      -2.2450162469518826 [Eh]
	 SCS Total Energy          =    -466.1361633204255099 [Eh]
	-----------------------------------------------------------

  Dipole Moment: [D]
     X:    -0.5732      Y:    -0.1899      Z:     0.0392     Total:     0.6052

*** Psi4 exiting successfully. Buy a developer a beer!
