                               Psi4 1.4a3.dev225

  ==> Input File <==

--------------------------------------------------------------------------
#psi4
#
memory 32 gb

molecule  {
0 1
  C       -0.4426020    -0.8338200     0.2172010
  C       -2.7550300    -0.2335230    -0.2686280
  C       -1.3727340    -0.3393290    -0.9144000
  C       -1.1456910    -0.3766540     1.5340440
  C       -2.4139240     0.3715680     1.0951880
  C        0.9762580    -0.3476150     0.0696660
  C       -3.7696470     0.5602740    -1.0788290
  C        1.2785260     1.0190760     0.1766520
  C        2.0223850    -1.2394820    -0.1958260
  C        2.5868840     1.4777510     0.0263980
  C        3.3346800    -0.7855870    -0.3490730
  C        3.6209360     0.5756970    -0.2390260
  H       -0.4241810    -1.9311060     0.1924250
  H       -3.1414670    -1.2511910    -0.1070860
  H       -1.0573430     0.6588960    -1.2471640
  H       -1.3450850    -0.9967850    -1.7909970
  H       -0.4862050     0.2392810     2.1528250
  H       -1.4122900    -1.2543580     2.1330320
  H       -3.2323950     0.2935880     1.8197160
  H       -2.2008590     1.4410770     0.9595580
  H       -3.4025776     1.5810436    -1.2327583
  H       -3.9506210     0.0965540    -2.0538340
  H       -4.7289130     0.6299820    -0.5557020
  H        0.4812350     1.7322070     0.3831320
  H        1.8065840    -2.3037040    -0.2799060
  H        2.8010350     2.5405970     0.1152150
  H        4.1326410    -1.4960120    -0.5534930
  H        4.6413930     0.9324010    -0.3562540
units angstrom
no_reorient  #important for SAPT in psi4, default
symmetry c1  #important for SAPT in psi4, default
}

set PROPERTIES_ORIGIN ["COM"]
properties('MP2/aug-cc-pvtz', properties = ['dipole'])
--------------------------------------------------------------------------

    Molecular point group: c1
  Charge       = 0
  Multiplicity = 1
  Basis Set: AUG-CC-PVTZ
    Blend: AUG-CC-PVTZ
  Basis Set: (AUG-CC-PVTZ AUX)
    Blend: AUG-CC-PVTZ-JKFIT

    Orbital Energies [Eh]
    ---------------------

    Doubly Occupied:

       1A    -11.236489     2A    -11.233582     3A    -11.232842
       4A    -11.228923     5A    -11.228426     6A    -11.228360
       7A    -11.228108     8A    -11.221052     9A    -11.216704
      10A    -11.214916    11A    -11.214716    12A    -11.211620
      13A     -1.155995    14A     -1.124828    15A     -1.039517
      16A     -1.008435    17A     -0.988478    18A     -0.953796
      19A     -0.892565    20A     -0.826351    21A     -0.816183
      22A     -0.763494    23A     -0.757207    24A     -0.689873
      25A     -0.660486    26A     -0.635141    27A     -0.621960
      28A     -0.606391    29A     -0.586547    30A     -0.580037
      31A     -0.573345    32A     -0.556026    33A     -0.528788
      34A     -0.510793    35A     -0.510045    36A     -0.489980
      37A     -0.475267    38A     -0.463145    39A     -0.461213
      40A     -0.453809    41A     -0.450375    42A     -0.443850
      43A     -0.332341    44A     -0.318793

  @DF-RHF Final Energy:  -463.89435417305828

   => Energetics <=

    Nuclear Repulsion Energy =            675.9590999062646688
    One-Electron Energy =               -1967.7653199429898905
    Two-Electron Energy =                 827.9118658636671171
    Total Energy =                       -463.8943541730582183
  Basis Set: (AUG-CC-PVTZ AUX)
    Blend: AUG-CC-PVTZ-RI
    Molecular point group: c1

    Geometry (in Angstrom), charge = 0, multiplicity = 1:

       Center              X                  Y                   Z               Mass
    ------------   -----------------  -----------------  -----------------  -----------------
         C           -0.513991802708    -0.828198665661     0.214354376979    12.000000000000
         C           -2.826419802708    -0.227901665661    -0.271474623021    12.000000000000
         C           -1.444123802708    -0.333707665661    -0.917246623021    12.000000000000
         C           -1.217080802708    -0.371032665661     1.531197376979    12.000000000000
         C           -2.485313802708     0.377189334339     1.092341376979    12.000000000000
         C            0.904868197292    -0.341993665661     0.066819376979    12.000000000000
         C           -3.841036802708     0.565895334339    -1.081675623021    12.000000000000
         C            1.207136197292     1.024697334339     0.173805376979    12.000000000000
         C            1.950995197292    -1.233860665661    -0.198672623021    12.000000000000
         C            2.515494197292     1.483372334339     0.023551376979    12.000000000000
         C            3.263290197292    -0.779965665661    -0.351919623021    12.000000000000
         C            3.549546197292     0.581318334339    -0.241872623021    12.000000000000
         H           -0.495570802708    -1.925484665661     0.189578376979     1.007825032230
         H           -3.212856802708    -1.245569665661    -0.109932623021     1.007825032230
         H           -1.128732802708     0.664517334339    -1.250010623021     1.007825032230
         H           -1.416474802708    -0.991163665661    -1.793843623021     1.007825032230
         H           -0.557594802708     0.244902334339     2.149978376979     1.007825032230
         H           -1.483679802708    -1.248736665661     2.130185376979     1.007825032230
         H           -3.303784802708     0.299209334339     1.816869376979     1.007825032230
         H           -2.272248802708     1.446698334339     0.956711376979     1.007825032230
         H           -3.473967402708     1.586664934339    -1.235604923021     1.007825032230
         H           -4.022010802708     0.102175334339    -2.056680623021     1.007825032230
         H           -4.800302802708     0.635603334339    -0.558548623021     1.007825032230
         H            0.409845197292     1.737828334339     0.380285376979     1.007825032230
         H            1.735194197292    -2.298082665661    -0.282752623021     1.007825032230
         H            2.729645197292     2.546218334339     0.112368376979     1.007825032230
         H            4.061251197292    -1.490390665661    -0.556339623021     1.007825032230
         H            4.570003197292     0.938022334339    -0.359100623021     1.007825032230

  Basis Set: AUG-CC-PVTZ
    Blend: AUG-CC-PVTZ
  Basis Set: (AUG-CC-PVTZ AUX)
    Blend: AUG-CC-PVTZ-JKFIT
	 Reference Energy          =    -463.8943541730582751 [Eh]
	 Singles Energy            =      -0.0000000000000000 [Eh]
	 Same-Spin Energy          =      -0.5195225114942418 [Eh]
	 Opposite-Spin Energy      =      -1.7264592887906649 [Eh]
	 Correlation Energy        =      -2.2459818002849068 [Eh]
	 Total Energy              =    -466.1403359733431557 [Eh]

	 ================> DF-SCS-MP2 Energies <==================
	-----------------------------------------------------------
	 SCS Same-Spin Scale       =       0.3333333333333333 [-]
	 SCS Opposite-Spin Scale   =       1.2000000000000000 [-]
	 SCS Same-Spin Energy      =      -0.1731741704980806 [Eh]
	 SCS Opposite-Spin Energy  =      -2.0717511465487979 [Eh]
	 SCS Correlation Energy    =      -2.2449253170468784 [Eh]
	 SCS Total Energy          =    -466.1392794901051388 [Eh]
	-----------------------------------------------------------

  Dipole Moment: [D]
     X:    -0.5707      Y:    -0.2041      Z:     0.0419     Total:     0.6075

*** Psi4 exiting successfully. Buy a developer a beer!
