                               Psi4 1.4a3.dev225

  ==> Input File <==

--------------------------------------------------------------------------
#psi4
#
memory 32 gb

molecule  {
0 1
  C       -0.4426020    -0.8338200     0.2172010
  C       -2.7550300    -0.2335230    -0.2686280
  C       -1.3727340    -0.3393290    -0.9144000
  C       -1.1456910    -0.3766540     1.5340440
  C       -2.4139240     0.3715680     1.0951880
  C        0.9762580    -0.3476150     0.0696660
  C       -3.7696470     0.5602740    -1.0788290
  C        1.2785260     1.0190760     0.1766520
  C        2.0223850    -1.2394820    -0.1958260
  C        2.5868840     1.4777510     0.0263980
  C        3.3346800    -0.7855870    -0.3490730
  C        3.6209360     0.5756970    -0.2390260
  H       -0.4241810    -1.9311060     0.1924250
  H       -3.1414670    -1.2511910    -0.1070860
  H       -1.0531175     0.6449960    -1.2826472
  H       -1.3450850    -0.9967850    -1.7909970
  H       -0.4862050     0.2392810     2.1528250
  H       -1.4122900    -1.2543580     2.1330320
  H       -3.2323950     0.2935880     1.8197160
  H       -2.2008590     1.4410770     0.9595580
  H       -3.4037750     1.5784440    -1.2516650
  H       -3.9506210     0.0965540    -2.0538340
  H       -4.7289130     0.6299820    -0.5557020
  H        0.4812350     1.7322070     0.3831320
  H        1.8065840    -2.3037040    -0.2799060
  H        2.8010350     2.5405970     0.1152150
  H        4.1326410    -1.4960120    -0.5534930
  H        4.6413930     0.9324010    -0.3562540
units angstrom
no_reorient  #important for SAPT in psi4, default
symmetry c1  #important for SAPT in psi4, default
}

set PROPERTIES_ORIGIN ["COM"]
properties('MP2/aug-cc-pvtz', properties = ['dipole'])
--------------------------------------------------------------------------

    Molecular point group: c1
  Charge       = 0
  Multiplicity = 1
  Basis Set: AUG-CC-PVTZ
    Blend: AUG-CC-PVTZ
  Basis Set: (AUG-CC-PVTZ AUX)
    Blend: AUG-CC-PVTZ-JKFIT

    Orbital Energies [Eh]
    ---------------------

    Doubly Occupied:

       1A    -11.236501     2A    -11.233545     3A    -11.232822
       4A    -11.228900     5A    -11.228572     6A    -11.228359
       7A    -11.228093     8A    -11.221371     9A    -11.216695
      10A    -11.214866    11A    -11.214576    12A    -11.211593
      13A     -1.155902    14A     -1.124657    15A     -1.039468
      16A     -1.008401    17A     -0.988472    18A     -0.953815
      19A     -0.892632    20A     -0.826333    21A     -0.816198
      22A     -0.763942    23A     -0.757453    24A     -0.689825
      25A     -0.660071    26A     -0.635327    27A     -0.621782
      28A     -0.606529    29A     -0.586169    30A     -0.579774
      31A     -0.573218    32A     -0.555853    33A     -0.528053
      34A     -0.510893    35A     -0.510186    36A     -0.489869
      37A     -0.475226    38A     -0.463801    39A     -0.461200
      40A     -0.453753    41A     -0.450390    42A     -0.443791
      43A     -0.332321    44A     -0.318754

  @DF-RHF Final Energy:  -463.89432109175561

   => Energetics <=

    Nuclear Repulsion Energy =            675.8753577396699939
    One-Electron Energy =               -1967.5994616541097457
    Two-Electron Energy =                 827.8297828226840238
    Total Energy =                       -463.8943210917556144
  Basis Set: (AUG-CC-PVTZ AUX)
    Blend: AUG-CC-PVTZ-RI
    Molecular point group: c1

    Geometry (in Angstrom), charge = 0, multiplicity = 1:

       Center              X                  Y                   Z               Mass
    ------------   -----------------  -----------------  -----------------  -----------------
         C           -0.514010861513    -0.828094817486     0.214696705998    12.000000000000
         C           -2.826438861513    -0.227797817486    -0.271132294002    12.000000000000
         C           -1.444142861513    -0.333603817486    -0.916904294002    12.000000000000
         C           -1.217099861513    -0.370928817486     1.531539705998    12.000000000000
         C           -2.485332861513     0.377293182514     1.092683705998    12.000000000000
         C            0.904849138487    -0.341889817486     0.067161705998    12.000000000000
         C           -3.841055861513     0.565999182514    -1.081333294002    12.000000000000
         C            1.207117138487     1.024801182514     0.174147705998    12.000000000000
         C            1.950976138487    -1.233756817486    -0.198330294002    12.000000000000
         C            2.515475138487     1.483476182514     0.023893705998    12.000000000000
         C            3.263271138487    -0.779861817486    -0.351577294002    12.000000000000
         C            3.549527138487     0.581422182514    -0.241530294002    12.000000000000
         H           -0.495589861513    -1.925380817486     0.189920705998     1.007825032230
         H           -3.212875861513    -1.245465817486    -0.109590294002     1.007825032230
         H           -1.124526361513     0.650721182514    -1.285151494002     1.007825032230
         H           -1.416493861513    -0.991059817486    -1.793501294002     1.007825032230
         H           -0.557613861513     0.245006182514     2.150320705998     1.007825032230
         H           -1.483698861513    -1.248632817486     2.130527705998     1.007825032230
         H           -3.303803861513     0.299313182514     1.817211705998     1.007825032230
         H           -2.272267861513     1.446802182514     0.957053705998     1.007825032230
         H           -3.475183861513     1.584169182514    -1.254169294002     1.007825032230
         H           -4.022029861513     0.102279182514    -2.056338294002     1.007825032230
         H           -4.800321861513     0.635707182514    -0.558206294002     1.007825032230
         H            0.409826138487     1.737932182514     0.380627705998     1.007825032230
         H            1.735175138487    -2.297978817486    -0.282410294002     1.007825032230
         H            2.729626138487     2.546322182514     0.112710705998     1.007825032230
         H            4.061232138487    -1.490286817486    -0.555997294002     1.007825032230
         H            4.569984138487     0.938126182514    -0.358758294002     1.007825032230

  Basis Set: AUG-CC-PVTZ
    Blend: AUG-CC-PVTZ
  Basis Set: (AUG-CC-PVTZ AUX)
    Blend: AUG-CC-PVTZ-JKFIT
	 Reference Energy          =    -463.8943210917556144 [Eh]
	 Singles Energy            =      -0.0000000000000000 [Eh]
	 Same-Spin Energy          =      -0.5194557774436471 [Eh]
	 Opposite-Spin Energy      =      -1.7263628970989158 [Eh]
	 Correlation Energy        =      -2.2458186745425630 [Eh]
	 Total Energy              =    -466.1401397662982049 [Eh]

	 ================> DF-SCS-MP2 Energies <==================
	-----------------------------------------------------------
	 SCS Same-Spin Scale       =       0.3333333333333333 [-]
	 SCS Opposite-Spin Scale   =       1.2000000000000000 [-]
	 SCS Same-Spin Energy      =      -0.1731519258145490 [Eh]
	 SCS Opposite-Spin Energy  =      -2.0716354765186988 [Eh]
	 SCS Correlation Energy    =      -2.2447874023332477 [Eh]
	 SCS Total Energy          =    -466.1391084940888732 [Eh]
	-----------------------------------------------------------

  Dipole Moment: [D]
     X:    -0.5692      Y:    -0.1991      Z:     0.0297     Total:     0.6038

*** Psi4 exiting successfully. Buy a developer a beer!
