                               Psi4 1.4a3.dev225

  ==> Input File <==

--------------------------------------------------------------------------
#psi4
#
memory 32 gb

molecule  {
0 1
  C       -0.4426020    -0.8338200     0.2172010
  C       -2.7123575    -0.2653478    -0.2641347
  C       -1.3727340    -0.3393290    -0.9144000
  C       -1.1456910    -0.3766540     1.5340440
  C       -2.4139240     0.3715680     1.0951880
  C        0.9762580    -0.3476150     0.0696660
  C       -3.7696470     0.5602740    -1.0788290
  C        1.2785260     1.0190760     0.1766520
  C        2.0223850    -1.2394820    -0.1958260
  C        2.5868840     1.4777510     0.0263980
  C        3.3346800    -0.7855870    -0.3490730
  C        3.6209360     0.5756970    -0.2390260
  H       -0.4241810    -1.9311060     0.1924250
  H       -3.1414670    -1.2511910    -0.1070860
  H       -1.0573430     0.6588960    -1.2471640
  H       -1.3450850    -0.9967850    -1.7909970
  H       -0.4862050     0.2392810     2.1528250
  H       -1.4122900    -1.2543580     2.1330320
  H       -3.2323950     0.2935880     1.8197160
  H       -2.2008590     1.4410770     0.9595580
  H       -3.4037750     1.5784440    -1.2516650
  H       -3.9506210     0.0965540    -2.0538340
  H       -4.7289130     0.6299820    -0.5557020
  H        0.4812350     1.7322070     0.3831320
  H        1.8065840    -2.3037040    -0.2799060
  H        2.8010350     2.5405970     0.1152150
  H        4.1326410    -1.4960120    -0.5534930
  H        4.6413930     0.9324010    -0.3562540
units angstrom
no_reorient  #important for SAPT in psi4, default
symmetry c1  #important for SAPT in psi4, default
}

set PROPERTIES_ORIGIN ["COM"]
properties('MP2/aug-cc-pvtz', properties = ['dipole'])
--------------------------------------------------------------------------

    Molecular point group: c1
  Charge       = 0
  Multiplicity = 1
  Basis Set: AUG-CC-PVTZ
    Blend: AUG-CC-PVTZ
  Basis Set: (AUG-CC-PVTZ AUX)
    Blend: AUG-CC-PVTZ-JKFIT

    Orbital Energies [Eh]
    ---------------------

    Doubly Occupied:

       1A    -11.236394     2A    -11.233620     3A    -11.232864
       4A    -11.228906     5A    -11.228418     6A    -11.228226
       7A    -11.228068     8A    -11.220568     9A    -11.216050
      10A    -11.214660    11A    -11.213559    12A    -11.212251
      13A     -1.157095    14A     -1.127209    15A     -1.037308
      16A     -1.008426    17A     -0.984952    18A     -0.955396
      19A     -0.892143    20A     -0.826279    21A     -0.816109
      22A     -0.766489    23A     -0.757638    24A     -0.689887
      25A     -0.662480    26A     -0.635600    27A     -0.621303
      28A     -0.606138    29A     -0.584619    30A     -0.580002
      31A     -0.573623    32A     -0.553616    33A     -0.527657
      34A     -0.511182    35A     -0.509472    36A     -0.489801
      37A     -0.481158    38A     -0.462683    39A     -0.460863
      40A     -0.453150    41A     -0.447554    42A     -0.445101
      43A     -0.332370    44A     -0.318768

  @DF-RHF Final Energy:  -463.89164202385592

   => Energetics <=

    Nuclear Repulsion Energy =            676.3738400347477864
    One-Electron Energy =               -1968.5916548033565050
    Two-Electron Energy =                 828.3261727447527392
    Total Energy =                       -463.8916420238558658
  Basis Set: (AUG-CC-PVTZ AUX)
    Blend: AUG-CC-PVTZ-RI
    Molecular point group: c1

    Geometry (in Angstrom), charge = 0, multiplicity = 1:

       Center              X                  Y                   Z               Mass
    ------------   -----------------  -----------------  -----------------  -----------------
         C           -0.517182201400    -0.825797310093     0.214136641393    12.000000000000
         C           -2.786937701400    -0.257325110093    -0.267199058607    12.000000000000
         C           -1.447314201400    -0.331306310093    -0.917464358607    12.000000000000
         C           -1.220271201400    -0.368631310093     1.530979641393    12.000000000000
         C           -2.488504201400     0.379590689907     1.092123641393    12.000000000000
         C            0.901677798600    -0.339592310093     0.066601641393    12.000000000000
         C           -3.844227201400     0.568296689907    -1.081893358607    12.000000000000
         C            1.203945798600     1.027098689907     0.173587641393    12.000000000000
         C            1.947804798600    -1.231459310093    -0.198890358607    12.000000000000
         C            2.512303798600     1.485773689907     0.023333641393    12.000000000000
         C            3.260099798600    -0.777564310093    -0.352137358607    12.000000000000
         C            3.546355798600     0.583719689907    -0.242090358607    12.000000000000
         H           -0.498761201400    -1.923083310093     0.189360641393     1.007825032230
         H           -3.216047201400    -1.243168310093    -0.110150358607     1.007825032230
         H           -1.131923201400     0.666918689907    -1.250228358607     1.007825032230
         H           -1.419665201400    -0.988762310093    -1.794061358607     1.007825032230
         H           -0.560785201400     0.247303689907     2.149760641393     1.007825032230
         H           -1.486870201400    -1.246335310093     2.129967641393     1.007825032230
         H           -3.306975201400     0.301610689907     1.816651641393     1.007825032230
         H           -2.275439201400     1.449099689907     0.956493641393     1.007825032230
         H           -3.478355201400     1.586466689907    -1.254729358607     1.007825032230
         H           -4.025201201400     0.104576689907    -2.056898358607     1.007825032230
         H           -4.803493201400     0.638004689907    -0.558766358607     1.007825032230
         H            0.406654798600     1.740229689907     0.380067641393     1.007825032230
         H            1.732003798600    -2.295681310093    -0.282970358607     1.007825032230
         H            2.726454798600     2.548619689907     0.112150641393     1.007825032230
         H            4.058060798600    -1.487989310093    -0.556557358607     1.007825032230
         H            4.566812798600     0.940423689907    -0.359318358607     1.007825032230

  Basis Set: AUG-CC-PVTZ
    Blend: AUG-CC-PVTZ
  Basis Set: (AUG-CC-PVTZ AUX)
    Blend: AUG-CC-PVTZ-JKFIT
	 Reference Energy          =    -463.8916420238559226 [Eh]
	 Singles Energy            =      -0.0000000000000000 [Eh]
	 Same-Spin Energy          =      -0.5196012258347505 [Eh]
	 Opposite-Spin Energy      =      -1.7265470039385540 [Eh]
	 Correlation Energy        =      -2.2461482297733046 [Eh]
	 Total Energy              =    -466.1377902536292481 [Eh]

	 ================> DF-SCS-MP2 Energies <==================
	-----------------------------------------------------------
	 SCS Same-Spin Scale       =       0.3333333333333333 [-]
	 SCS Opposite-Spin Scale   =       1.2000000000000000 [-]
	 SCS Same-Spin Energy      =      -0.1732004086115835 [Eh]
	 SCS Opposite-Spin Energy  =      -2.0718564047262649 [Eh]
	 SCS Correlation Energy    =      -2.2450568133378486 [Eh]
	 SCS Total Energy          =    -466.1366988371937623 [Eh]
	-----------------------------------------------------------

  Dipole Moment: [D]
     X:    -0.5507      Y:    -0.2239      Z:     0.0549     Total:     0.5970

*** Psi4 exiting successfully. Buy a developer a beer!
