                               Psi4 1.4a3.dev225

  ==> Input File <==

--------------------------------------------------------------------------
#psi4
#
memory 32 gb

molecule  {
0 1
  C       -0.4743256    -0.7486354     0.2753556
  C       -2.7550300    -0.2335230    -0.2686280
  C       -1.3727340    -0.3393290    -0.9144000
  C       -1.1456910    -0.3766540     1.5340440
  C       -2.4139240     0.3715680     1.0951880
  C        0.9762580    -0.3476150     0.0696660
  C       -3.7696470     0.5602740    -1.0788290
  C        1.2785260     1.0190760     0.1766520
  C        2.0223850    -1.2394820    -0.1958260
  C        2.5868840     1.4777510     0.0263980
  C        3.3346800    -0.7855870    -0.3490730
  C        3.6209360     0.5756970    -0.2390260
  H       -0.4241810    -1.9311060     0.1924250
  H       -3.1414670    -1.2511910    -0.1070860
  H       -1.0573430     0.6588960    -1.2471640
  H       -1.3450850    -0.9967850    -1.7909970
  H       -0.4862050     0.2392810     2.1528250
  H       -1.4122900    -1.2543580     2.1330320
  H       -3.2323950     0.2935880     1.8197160
  H       -2.2008590     1.4410770     0.9595580
  H       -3.4037750     1.5784440    -1.2516650
  H       -3.9506210     0.0965540    -2.0538340
  H       -4.7289130     0.6299820    -0.5557020
  H        0.4812350     1.7322070     0.3831320
  H        1.8065840    -2.3037040    -0.2799060
  H        2.8010350     2.5405970     0.1152150
  H        4.1326410    -1.4960120    -0.5534930
  H        4.6413930     0.9324010    -0.3562540
units angstrom
no_reorient  #important for SAPT in psi4, default
symmetry c1  #important for SAPT in psi4, default
}

set PROPERTIES_ORIGIN ["COM"]
properties('MP2/aug-cc-pvtz', properties = ['dipole'])
--------------------------------------------------------------------------

    Molecular point group: c1
  Charge       = 0
  Multiplicity = 1
  Basis Set: AUG-CC-PVTZ
    Blend: AUG-CC-PVTZ
  Basis Set: (AUG-CC-PVTZ AUX)
    Blend: AUG-CC-PVTZ-JKFIT

    Orbital Energies [Eh]
    ---------------------

    Doubly Occupied:

       1A    -11.237366     2A    -11.233584     3A    -11.233164
       4A    -11.232851     5A    -11.229887     6A    -11.229441
       7A    -11.227631     8A    -11.221014     9A    -11.215757
      10A    -11.215168    11A    -11.213783    12A    -11.211554
      13A     -1.159010    14A     -1.129806    15A     -1.039563
      16A     -1.008603    17A     -0.994502    18A     -0.952041
      19A     -0.896376    20A     -0.824359    21A     -0.818425
      22A     -0.764991    23A     -0.751263    24A     -0.689170
      25A     -0.664259    26A     -0.637462    27A     -0.620429
      28A     -0.608444    29A     -0.587429    30A     -0.580224
      31A     -0.569003    32A     -0.554931    33A     -0.530185
      34A     -0.515062    35A     -0.510572    36A     -0.490532
      37A     -0.483442    38A     -0.471035    39A     -0.463970
      40A     -0.454326    41A     -0.440976    42A     -0.425810
      43A     -0.332507    44A     -0.320729

  @DF-RHF Final Energy:  -463.88120920193927

   => Energetics <=

    Nuclear Repulsion Energy =            676.8708422068378923
    One-Electron Energy =               -1969.5228327685867953
    Two-Electron Energy =                 828.7707813598095754
    Total Energy =                       -463.8812092019392139
  Basis Set: (AUG-CC-PVTZ AUX)
    Blend: AUG-CC-PVTZ-RI
    Molecular point group: c1

    Geometry (in Angstrom), charge = 0, multiplicity = 1:

       Center              X                  Y                   Z               Mass
    ------------   -----------------  -----------------  -----------------  -----------------
         C           -0.543330456626    -0.749381553444     0.268269790691    12.000000000000
         C           -2.824034856626    -0.234269153444    -0.275713809309    12.000000000000
         C           -1.441738856626    -0.340075153444    -0.921485809309    12.000000000000
         C           -1.214695856626    -0.377400153444     1.526958190691    12.000000000000
         C           -2.482928856626     0.370821846556     1.088102190691    12.000000000000
         C            0.907253143374    -0.348361153444     0.062580190691    12.000000000000
         C           -3.838651856626     0.559527846556    -1.085914809309    12.000000000000
         C            1.209521143374     1.018329846556     0.169566190691    12.000000000000
         C            1.953380143374    -1.240228153444    -0.202911809309    12.000000000000
         C            2.517879143374     1.477004846556     0.019312190691    12.000000000000
         C            3.265675143374    -0.786333153444    -0.356158809309    12.000000000000
         C            3.551931143374     0.574950846556    -0.246111809309    12.000000000000
         H           -0.493185856626    -1.931852153444     0.185339190691     1.007825032230
         H           -3.210471856626    -1.251937153444    -0.114171809309     1.007825032230
         H           -1.126347856626     0.658149846556    -1.254249809309     1.007825032230
         H           -1.414089856626    -0.997531153444    -1.798082809309     1.007825032230
         H           -0.555209856626     0.238534846556     2.145739190691     1.007825032230
         H           -1.481294856626    -1.255104153444     2.125946190691     1.007825032230
         H           -3.301399856626     0.292841846556     1.812630190691     1.007825032230
         H           -2.269863856626     1.440330846556     0.952472190691     1.007825032230
         H           -3.472779856626     1.577697846556    -1.258750809309     1.007825032230
         H           -4.019625856626     0.095807846556    -2.060919809309     1.007825032230
         H           -4.797917856626     0.629235846556    -0.562787809309     1.007825032230
         H            0.412230143374     1.731460846556     0.376046190691     1.007825032230
         H            1.737579143374    -2.304450153444    -0.286991809309     1.007825032230
         H            2.732030143374     2.539850846556     0.108129190691     1.007825032230
         H            4.063636143374    -1.496758153444    -0.560578809309     1.007825032230
         H            4.572388143374     0.931654846556    -0.363339809309     1.007825032230

  Basis Set: AUG-CC-PVTZ
    Blend: AUG-CC-PVTZ
  Basis Set: (AUG-CC-PVTZ AUX)
    Blend: AUG-CC-PVTZ-JKFIT
	 Reference Energy          =    -463.8812092019392708 [Eh]
	 Singles Energy            =      -0.0000000000000000 [Eh]
	 Same-Spin Energy          =      -0.5204003229941988 [Eh]
	 Opposite-Spin Energy      =      -1.7279393316937617 [Eh]
	 Correlation Energy        =      -2.2483396546879604 [Eh]
	 Total Energy              =    -466.1295488566272525 [Eh]

	 ================> DF-SCS-MP2 Energies <==================
	-----------------------------------------------------------
	 SCS Same-Spin Scale       =       0.3333333333333333 [-]
	 SCS Opposite-Spin Scale   =       1.2000000000000000 [-]
	 SCS Same-Spin Energy      =      -0.1734667743313996 [Eh]
	 SCS Opposite-Spin Energy  =      -2.0735271980325138 [Eh]
	 SCS Correlation Energy    =      -2.2469939723639136 [Eh]
	 SCS Total Energy          =    -466.1282031743031666 [Eh]
	-----------------------------------------------------------

  Dipole Moment: [D]
     X:    -0.5483      Y:    -0.1325      Z:     0.0635     Total:     0.5677

*** Psi4 exiting successfully. Buy a developer a beer!
