                               Psi4 1.4a3.dev225

  ==> Input File <==

--------------------------------------------------------------------------
#psi4
#
memory 32 gb

molecule  {
0 1
  C       -0.4426020    -0.8338200     0.2172010
  C       -2.7550300    -0.2335230    -0.2686280
  C       -1.3727340    -0.3393290    -0.9144000
  C       -1.1456910    -0.3766540     1.5340440
  C       -2.4139240     0.3715680     1.0951880
  C        0.9762580    -0.3476150     0.0696660
  C       -3.7696470     0.5602740    -1.0788290
  C        1.2785260     1.0190760     0.1766520
  C        2.0223850    -1.2394820    -0.1958260
  C        2.5868840     1.4777510     0.0263980
  C        3.3346800    -0.7855870    -0.3490730
  C        3.6209360     0.5756970    -0.2390260
  H       -0.4241810    -1.9311060     0.1924250
  H       -3.1414670    -1.2511910    -0.1070860
  H       -1.0573430     0.6588960    -1.2471640
  H       -1.3450850    -0.9967850    -1.7909970
  H       -0.4862050     0.2392810     2.1528250
  H       -1.4122900    -1.2543580     2.1330320
  H       -3.2323950     0.2935880     1.8197160
  H       -2.2008590     1.4410770     0.9595580
  H       -3.4037750     1.5784440    -1.2516650
  H       -3.9506210     0.0965540    -2.0538340
  H       -4.7289130     0.6299820    -0.5557020
  H        0.4812350     1.7322070     0.3831320
  H        1.8164910    -2.2548476    -0.2760460
  H        2.8010350     2.5405970     0.1152150
  H        4.1326410    -1.4960120    -0.5534930
  H        4.6413930     0.9324010    -0.3562540
units angstrom
no_reorient  #important for SAPT in psi4, default
symmetry c1  #important for SAPT in psi4, default
}

set PROPERTIES_ORIGIN ["COM"]
properties('MP2/aug-cc-pvtz', properties = ['dipole'])
--------------------------------------------------------------------------

    Molecular point group: c1
  Charge       = 0
  Multiplicity = 1
  Basis Set: AUG-CC-PVTZ
    Blend: AUG-CC-PVTZ
  Basis Set: (AUG-CC-PVTZ AUX)
    Blend: AUG-CC-PVTZ-JKFIT

    Orbital Energies [Eh]
    ---------------------

    Doubly Occupied:

       1A    -11.235968     2A    -11.233356     3A    -11.232321
       4A    -11.228533     5A    -11.228422     6A    -11.227987
       7A    -11.222144     8A    -11.221175     9A    -11.216706
      10A    -11.214888    11A    -11.214756    12A    -11.211589
      13A     -1.156050    14A     -1.124784    15A     -1.039446
      16A     -1.009759    17A     -0.988465    18A     -0.953923
      19A     -0.892759    20A     -0.827315    21A     -0.818199
      22A     -0.763674    23A     -0.757166    24A     -0.692945
      25A     -0.660406    26A     -0.637603    27A     -0.621786
      28A     -0.606893    29A     -0.586362    30A     -0.581103
      31A     -0.575011    32A     -0.556230    33A     -0.528701
      34A     -0.510759    35A     -0.509891    36A     -0.492188
      37A     -0.475312    38A     -0.463331    39A     -0.461128
      40A     -0.453737    41A     -0.450248    42A     -0.443833
      43A     -0.332062    44A     -0.318480

  @DF-RHF Final Energy:  -463.89369574254135

   => Energetics <=

    Nuclear Repulsion Energy =            676.2021792915346623
    One-Electron Energy =               -1968.2369645153253259
    Two-Electron Energy =                 828.1410894812491961
    Total Energy =                       -463.8936957425413539
  Basis Set: (AUG-CC-PVTZ AUX)
    Blend: AUG-CC-PVTZ-RI
    Molecular point group: c1

    Geometry (in Angstrom), charge = 0, multiplicity = 1:

       Center              X                  Y                   Z               Mass
    ------------   -----------------  -----------------  -----------------  -----------------
         C           -0.514046620769    -0.828489805100     0.214449080629    12.000000000000
         C           -2.826474620769    -0.228192805100    -0.271379919371    12.000000000000
         C           -1.444178620769    -0.333998805100    -0.917151919371    12.000000000000
         C           -1.217135620769    -0.371323805100     1.531292080629    12.000000000000
         C           -2.485368620769     0.376898194900     1.092436080629    12.000000000000
         C            0.904813379231    -0.342284805100     0.066914080629    12.000000000000
         C           -3.841091620769     0.565604194900    -1.081580919371    12.000000000000
         C            1.207081379231     1.024406194900     0.173900080629    12.000000000000
         C            1.950940379231    -1.234151805100    -0.198577919371    12.000000000000
         C            2.515439379231     1.483081194900     0.023646080629    12.000000000000
         C            3.263235379231    -0.780256805100    -0.351824919371    12.000000000000
         C            3.549491379231     0.581027194900    -0.241777919371    12.000000000000
         H           -0.495625620769    -1.925775805100     0.189673080629     1.007825032230
         H           -3.212911620769    -1.245860805100    -0.109837919371     1.007825032230
         H           -1.128787620769     0.664226194900    -1.249915919371     1.007825032230
         H           -1.416529620769    -0.991454805100    -1.793748919371     1.007825032230
         H           -0.557649620769     0.244611194900     2.150073080629     1.007825032230
         H           -1.483734620769    -1.249027805100     2.130280080629     1.007825032230
         H           -3.303839620769     0.298918194900     1.816964080629     1.007825032230
         H           -2.272303620769     1.446407194900     0.956806080629     1.007825032230
         H           -3.475219620769     1.583774194900    -1.254416919371     1.007825032230
         H           -4.022065620769     0.101884194900    -2.056585919371     1.007825032230
         H           -4.800357620769     0.635312194900    -0.558453919371     1.007825032230
         H            0.409790379231     1.737537194900     0.380380080629     1.007825032230
         H            1.745046379231    -2.249517405100    -0.278797919371     1.007825032230
         H            2.729590379231     2.545927194900     0.112463080629     1.007825032230
         H            4.061196379231    -1.490681805100    -0.556244919371     1.007825032230
         H            4.569948379231     0.937731194900    -0.359005919371     1.007825032230

  Basis Set: AUG-CC-PVTZ
    Blend: AUG-CC-PVTZ
  Basis Set: (AUG-CC-PVTZ AUX)
    Blend: AUG-CC-PVTZ-JKFIT
	 Reference Energy          =    -463.8936957425413539 [Eh]
	 Singles Energy            =      -0.0000000000000000 [Eh]
	 Same-Spin Energy          =      -0.5193974802860580 [Eh]
	 Opposite-Spin Energy      =      -1.7260911642762020 [Eh]
	 Correlation Energy        =      -2.2454886445622599 [Eh]
	 Total Energy              =    -466.1391843871036258 [Eh]

	 ================> DF-SCS-MP2 Energies <==================
	-----------------------------------------------------------
	 SCS Same-Spin Scale       =       0.3333333333333333 [-]
	 SCS Opposite-Spin Scale   =       1.2000000000000000 [-]
	 SCS Same-Spin Energy      =      -0.1731324934286860 [Eh]
	 SCS Opposite-Spin Energy  =      -2.0713093971314422 [Eh]
	 SCS Correlation Energy    =      -2.2444418905601284 [Eh]
	 SCS Total Energy          =    -466.1381376331015076 [Eh]
	-----------------------------------------------------------

  Dipole Moment: [D]
     X:    -0.5747      Y:    -0.2216      Z:     0.0362     Total:     0.6170

*** Psi4 exiting successfully. Buy a developer a beer!
