                               Psi4 1.4a3.dev225

  ==> Input File <==

--------------------------------------------------------------------------
#psi4
#
memory 32 gb

molecule  {
0 1
  C       -0.4426020    -0.8338200     0.2172010
  C       -2.7617525    -0.2809020    -0.2448794
  C       -1.3727340    -0.3393290    -0.9144000
  C       -1.1456910    -0.3766540     1.5340440
  C       -2.4139240     0.3715680     1.0951880
  C        0.9762580    -0.3476150     0.0696660
  C       -3.7696470     0.5602740    -1.0788290
  C        1.2785260     1.0190760     0.1766520
  C        2.0223850    -1.2394820    -0.1958260
  C        2.5868840     1.4777510     0.0263980
  C        3.3346800    -0.7855870    -0.3490730
  C        3.6209360     0.5756970    -0.2390260
  H       -0.4241810    -1.9311060     0.1924250
  H       -3.1414670    -1.2511910    -0.1070860
  H       -1.0573430     0.6588960    -1.2471640
  H       -1.3450850    -0.9967850    -1.7909970
  H       -0.4862050     0.2392810     2.1528250
  H       -1.4122900    -1.2543580     2.1330320
  H       -3.2323950     0.2935880     1.8197160
  H       -2.2008590     1.4410770     0.9595580
  H       -3.4037750     1.5784440    -1.2516650
  H       -3.9506210     0.0965540    -2.0538340
  H       -4.7289130     0.6299820    -0.5557020
  H        0.4812350     1.7322070     0.3831320
  H        1.8065840    -2.3037040    -0.2799060
  H        2.8010350     2.5405970     0.1152150
  H        4.1326410    -1.4960120    -0.5534930
  H        4.6413930     0.9324010    -0.3562540
units angstrom
no_reorient  #important for SAPT in psi4, default
symmetry c1  #important for SAPT in psi4, default
}

set PROPERTIES_ORIGIN ["COM"]
properties('MP2/aug-cc-pvtz', properties = ['dipole'])
--------------------------------------------------------------------------

    Molecular point group: c1
  Charge       = 0
  Multiplicity = 1
  Basis Set: AUG-CC-PVTZ
    Blend: AUG-CC-PVTZ
  Basis Set: (AUG-CC-PVTZ AUX)
    Blend: AUG-CC-PVTZ-JKFIT

    Orbital Energies [Eh]
    ---------------------

    Doubly Occupied:

       1A    -11.236188     2A    -11.233462     3A    -11.232696
       4A    -11.228705     5A    -11.228223     6A    -11.227853
       7A    -11.227628     8A    -11.219432     9A    -11.216151
      10A    -11.215090    11A    -11.214844    12A    -11.211986
      13A     -1.155595    14A     -1.123760    15A     -1.037649
      16A     -1.008243    17A     -0.985148    18A     -0.952875
      19A     -0.890455    20A     -0.826206    21A     -0.815784
      22A     -0.772424    23A     -0.756069    24A     -0.689494
      25A     -0.659785    26A     -0.635431    27A     -0.620238
      28A     -0.605810    29A     -0.585503    30A     -0.579805
      31A     -0.573231    32A     -0.553811    33A     -0.528528
      34A     -0.511195    35A     -0.509283    36A     -0.490120
      37A     -0.473833    38A     -0.471181    39A     -0.461146
      40A     -0.452027    41A     -0.449886    42A     -0.439946
      43A     -0.332208    44A     -0.318351

  @DF-RHF Final Energy:  -463.89160592547648

   => Energetics <=

    Nuclear Repulsion Energy =            675.6567179012438373
    One-Electron Energy =               -1967.1820852944160833
    Two-Electron Energy =                 827.6337614676957628
    Total Energy =                       -463.8916059254764832
  Basis Set: (AUG-CC-PVTZ AUX)
    Blend: AUG-CC-PVTZ-RI
    Molecular point group: c1

    Geometry (in Angstrom), charge = 0, multiplicity = 1:

       Center              X                  Y                   Z               Mass
    ------------   -----------------  -----------------  -----------------  -----------------
         C           -0.513480473015    -0.824631657220     0.212693623059    12.000000000000
         C           -2.832630973015    -0.271713657220    -0.249386776941    12.000000000000
         C           -1.443612473015    -0.330140657220    -0.918907376941    12.000000000000
         C           -1.216569473015    -0.367465657220     1.529536623059    12.000000000000
         C           -2.484802473015     0.380756342780     1.090680623059    12.000000000000
         C            0.905379526985    -0.338426657220     0.065158623059    12.000000000000
         C           -3.840525473015     0.569462342780    -1.083336376941    12.000000000000
         C            1.207647526985     1.028264342780     0.172144623059    12.000000000000
         C            1.951506526985    -1.230293657220    -0.200333376941    12.000000000000
         C            2.516005526985     1.486939342780     0.021890623059    12.000000000000
         C            3.263801526985    -0.776398657220    -0.353580376941    12.000000000000
         C            3.550057526985     0.584885342780    -0.243533376941    12.000000000000
         H           -0.495059473015    -1.921917657220     0.187917623059     1.007825032230
         H           -3.212345473015    -1.242002657220    -0.111593376941     1.007825032230
         H           -1.128221473015     0.668084342780    -1.251671376941     1.007825032230
         H           -1.415963473015    -0.987596657220    -1.795504376941     1.007825032230
         H           -0.557083473015     0.248469342780     2.148317623059     1.007825032230
         H           -1.483168473015    -1.245169657220     2.128524623059     1.007825032230
         H           -3.303273473015     0.302776342780     1.815208623059     1.007825032230
         H           -2.271737473015     1.450265342780     0.955050623059     1.007825032230
         H           -3.474653473015     1.587632342780    -1.256172376941     1.007825032230
         H           -4.021499473015     0.105742342780    -2.058341376941     1.007825032230
         H           -4.799791473015     0.639170342780    -0.560209376941     1.007825032230
         H            0.410356526985     1.741395342780     0.378624623059     1.007825032230
         H            1.735705526985    -2.294515657220    -0.284413376941     1.007825032230
         H            2.730156526985     2.549785342780     0.110707623059     1.007825032230
         H            4.061762526985    -1.486823657220    -0.558000376941     1.007825032230
         H            4.570514526985     0.941589342780    -0.360761376941     1.007825032230

  Basis Set: AUG-CC-PVTZ
    Blend: AUG-CC-PVTZ
  Basis Set: (AUG-CC-PVTZ AUX)
    Blend: AUG-CC-PVTZ-JKFIT
	 Reference Energy          =    -463.8916059254764832 [Eh]
	 Singles Energy            =      -0.0000000000000000 [Eh]
	 Same-Spin Energy          =      -0.5193319276415225 [Eh]
	 Opposite-Spin Energy      =      -1.7263513977421558 [Eh]
	 Correlation Energy        =      -2.2456833253836783 [Eh]
	 Total Energy              =    -466.1372892508601353 [Eh]

	 ================> DF-SCS-MP2 Energies <==================
	-----------------------------------------------------------
	 SCS Same-Spin Scale       =       0.3333333333333333 [-]
	 SCS Opposite-Spin Scale   =       1.2000000000000000 [-]
	 SCS Same-Spin Energy      =      -0.1731106425471741 [Eh]
	 SCS Opposite-Spin Energy  =      -2.0716216772905871 [Eh]
	 SCS Correlation Energy    =      -2.2447323198377611 [Eh]
	 SCS Total Energy          =    -466.1363382453142208 [Eh]
	-----------------------------------------------------------

  Dipole Moment: [D]
     X:    -0.5813      Y:    -0.2296      Z:     0.0505     Total:     0.6271

*** Psi4 exiting successfully. Buy a developer a beer!
