                               Psi4 1.4a3.dev225

  ==> Input File <==

--------------------------------------------------------------------------
#psi4
#
memory 32 gb

molecule  {
0 1
  C       -0.5238257    -0.7866370     0.1619624
  C       -2.7550300    -0.2335230    -0.2686280
  C       -1.3727340    -0.3393290    -0.9144000
  C       -1.1456910    -0.3766540     1.5340440
  C       -2.4139240     0.3715680     1.0951880
  C        0.9762580    -0.3476150     0.0696660
  C       -3.7696470     0.5602740    -1.0788290
  C        1.2785260     1.0190760     0.1766520
  C        2.0223850    -1.2394820    -0.1958260
  C        2.5868840     1.4777510     0.0263980
  C        3.3346800    -0.7855870    -0.3490730
  C        3.6209360     0.5756970    -0.2390260
  H       -0.4241810    -1.9311060     0.1924250
  H       -3.1414670    -1.2511910    -0.1070860
  H       -1.0573430     0.6588960    -1.2471640
  H       -1.3450850    -0.9967850    -1.7909970
  H       -0.4862050     0.2392810     2.1528250
  H       -1.4122900    -1.2543580     2.1330320
  H       -3.2323950     0.2935880     1.8197160
  H       -2.2008590     1.4410770     0.9595580
  H       -3.4037750     1.5784440    -1.2516650
  H       -3.9506210     0.0965540    -2.0538340
  H       -4.7289130     0.6299820    -0.5557020
  H        0.4812350     1.7322070     0.3831320
  H        1.8065840    -2.3037040    -0.2799060
  H        2.8010350     2.5405970     0.1152150
  H        4.1326410    -1.4960120    -0.5534930
  H        4.6413930     0.9324010    -0.3562540
units angstrom
no_reorient  #important for SAPT in psi4, default
symmetry c1  #important for SAPT in psi4, default
}

set PROPERTIES_ORIGIN ["COM"]
properties('MP2/aug-cc-pvtz', properties = ['dipole'])
--------------------------------------------------------------------------

    Molecular point group: c1
  Charge       = 0
  Multiplicity = 1
  Basis Set: AUG-CC-PVTZ
    Blend: AUG-CC-PVTZ
  Basis Set: (AUG-CC-PVTZ AUX)
    Blend: AUG-CC-PVTZ-JKFIT

    Orbital Energies [Eh]
    ---------------------

    Doubly Occupied:

       1A    -11.238118     2A    -11.233012     3A    -11.232843
       4A    -11.231734     5A    -11.228962     6A    -11.228756
       7A    -11.227554     8A    -11.221804     9A    -11.216778
      10A    -11.214421    11A    -11.211579    12A    -11.209942
      13A     -1.158141    14A     -1.131497    15A     -1.034681
      16A     -1.007942    17A     -0.988689    18A     -0.966478
      19A     -0.888950    20A     -0.823161    21A     -0.813579
      22A     -0.767108    23A     -0.753270    24A     -0.690132
      25A     -0.664673    26A     -0.634306    27A     -0.621679
      28A     -0.607497    29A     -0.586032    30A     -0.580971
      31A     -0.573555    32A     -0.556297    33A     -0.527111
      34A     -0.516790    35A     -0.507329    36A     -0.488821
      37A     -0.488227    38A     -0.467124    39A     -0.461698
      40A     -0.452232    41A     -0.439718    42A     -0.432641
      43A     -0.332031    44A     -0.321040

  @DF-RHF Final Energy:  -463.88152934254077

   => Energetics <=

    Nuclear Repulsion Energy =            676.5906738055342657
    One-Electron Energy =               -1968.9865973622406727
    Two-Electron Energy =                 828.5143942141655771
    Total Energy =                       -463.8815293425407162
  Basis Set: (AUG-CC-PVTZ AUX)
    Blend: AUG-CC-PVTZ-RI
    Molecular point group: c1

    Geometry (in Angstrom), charge = 0, multiplicity = 1:

       Center              X                  Y                   Z               Mass
    ------------   -----------------  -----------------  -----------------  -----------------
         C           -0.589120951903    -0.784535261929     0.163374431103    12.000000000000
         C           -2.820325251903    -0.231421261929    -0.267215968897    12.000000000000
         C           -1.438029251903    -0.337227261929    -0.912987968897    12.000000000000
         C           -1.210986251903    -0.374552261929     1.535456031103    12.000000000000
         C           -2.479219251903     0.373669738071     1.096600031103    12.000000000000
         C            0.910962748097    -0.345513261929     0.071078031103    12.000000000000
         C           -3.834942251903     0.562375738071    -1.077416968897    12.000000000000
         C            1.213230748097     1.021177738071     0.178064031103    12.000000000000
         C            1.957089748097    -1.237380261929    -0.194413968897    12.000000000000
         C            2.521588748097     1.479852738071     0.027810031103    12.000000000000
         C            3.269384748097    -0.783485261929    -0.347660968897    12.000000000000
         C            3.555640748097     0.577798738071    -0.237613968897    12.000000000000
         H           -0.489476251903    -1.929004261929     0.193837031103     1.007825032230
         H           -3.206762251903    -1.249089261929    -0.105673968897     1.007825032230
         H           -1.122638251903     0.660997738071    -1.245751968897     1.007825032230
         H           -1.410380251903    -0.994683261929    -1.789584968897     1.007825032230
         H           -0.551500251903     0.241382738071     2.154237031103     1.007825032230
         H           -1.477585251903    -1.252256261929     2.134444031103     1.007825032230
         H           -3.297690251903     0.295689738071     1.821128031103     1.007825032230
         H           -2.266154251903     1.443178738071     0.960970031103     1.007825032230
         H           -3.469070251903     1.580545738071    -1.250252968897     1.007825032230
         H           -4.015916251903     0.098655738071    -2.052421968897     1.007825032230
         H           -4.794208251903     0.632083738071    -0.554289968897     1.007825032230
         H            0.415939748097     1.734308738071     0.384544031103     1.007825032230
         H            1.741288748097    -2.301602261929    -0.278493968897     1.007825032230
         H            2.735739748097     2.542698738071     0.116627031103     1.007825032230
         H            4.067345748097    -1.493910261929    -0.552080968897     1.007825032230
         H            4.576097748097     0.934502738071    -0.354841968897     1.007825032230

  Basis Set: AUG-CC-PVTZ
    Blend: AUG-CC-PVTZ
  Basis Set: (AUG-CC-PVTZ AUX)
    Blend: AUG-CC-PVTZ-JKFIT
	 Reference Energy          =    -463.8815293425407731 [Eh]
	 Singles Energy            =      -0.0000000000000000 [Eh]
	 Same-Spin Energy          =      -0.5202058862697998 [Eh]
	 Opposite-Spin Energy      =      -1.7274486625429897 [Eh]
	 Correlation Energy        =      -2.2476545488127897 [Eh]
	 Total Energy              =    -466.1291838913535912 [Eh]

	 ================> DF-SCS-MP2 Energies <==================
	-----------------------------------------------------------
	 SCS Same-Spin Scale       =       0.3333333333333333 [-]
	 SCS Opposite-Spin Scale   =       1.2000000000000000 [-]
	 SCS Same-Spin Energy      =      -0.1734019620899332 [Eh]
	 SCS Opposite-Spin Energy  =      -2.0729383950515876 [Eh]
	 SCS Correlation Energy    =      -2.2463403571415208 [Eh]
	 SCS Total Energy          =    -466.1278696996823214 [Eh]
	-----------------------------------------------------------

  Dipole Moment: [D]
     X:    -0.5669      Y:    -0.1647      Z:     0.0147     Total:     0.5905

*** Psi4 exiting successfully. Buy a developer a beer!
