                               Psi4 1.4a3.dev225

  ==> Input File <==

--------------------------------------------------------------------------
#psi4
#
memory 32 gb

molecule  {
0 1
  C       -0.4426020    -0.8338200     0.2172010
  C       -2.7550300    -0.2335230    -0.2686280
  C       -1.3727340    -0.3393290    -0.9144000
  C       -1.1456910    -0.3766540     1.5340440
  C       -2.4139240     0.3715680     1.0951880
  C        0.9762580    -0.3476150     0.0696660
  C       -3.8363176     0.6124345    -1.1320674
  C        1.2785260     1.0190760     0.1766520
  C        2.0223850    -1.2394820    -0.1958260
  C        2.5868840     1.4777510     0.0263980
  C        3.3346800    -0.7855870    -0.3490730
  C        3.6209360     0.5756970    -0.2390260
  H       -0.4241810    -1.9311060     0.1924250
  H       -3.1414670    -1.2511910    -0.1070860
  H       -1.0573430     0.6588960    -1.2471640
  H       -1.3450850    -0.9967850    -1.7909970
  H       -0.4862050     0.2392810     2.1528250
  H       -1.4122900    -1.2543580     2.1330320
  H       -3.2323950     0.2935880     1.8197160
  H       -2.2008590     1.4410770     0.9595580
  H       -3.4037750     1.5784440    -1.2516650
  H       -3.9506210     0.0965540    -2.0538340
  H       -4.7289130     0.6299820    -0.5557020
  H        0.4812350     1.7322070     0.3831320
  H        1.8065840    -2.3037040    -0.2799060
  H        2.8010350     2.5405970     0.1152150
  H        4.1326410    -1.4960120    -0.5534930
  H        4.6413930     0.9324010    -0.3562540
units angstrom
no_reorient  #important for SAPT in psi4, default
symmetry c1  #important for SAPT in psi4, default
}

set PROPERTIES_ORIGIN ["COM"]
properties('MP2/aug-cc-pvtz', properties = ['dipole'])
--------------------------------------------------------------------------

    Molecular point group: c1
  Charge       = 0
  Multiplicity = 1
  Basis Set: AUG-CC-PVTZ
    Blend: AUG-CC-PVTZ
  Basis Set: (AUG-CC-PVTZ AUX)
    Blend: AUG-CC-PVTZ-JKFIT

    Orbital Energies [Eh]
    ---------------------

    Doubly Occupied:

       1A    -11.236437     2A    -11.233533     3A    -11.232792
       4A    -11.228868     5A    -11.228366     6A    -11.228298
       7A    -11.228048     8A    -11.225181     9A    -11.216638
      10A    -11.214754    11A    -11.214587    12A    -11.208317
      13A     -1.155382    14A     -1.121702    15A     -1.035108
      16A     -1.008339    17A     -0.983461    18A     -0.953113
      19A     -0.897711    20A     -0.826305    21A     -0.816026
      22A     -0.761646    23A     -0.756617    24A     -0.689393
      25A     -0.659484    26A     -0.634023    27A     -0.620088
      28A     -0.603027    29A     -0.587171    30A     -0.581747
      31A     -0.575899    32A     -0.563055    33A     -0.535689
      34A     -0.514274    35A     -0.508773    36A     -0.489532
      37A     -0.474222    38A     -0.461597    39A     -0.456599
      40A     -0.450806    41A     -0.449378    42A     -0.439785
      43A     -0.332287    44A     -0.318593

  @DF-RHF Final Energy:  -463.88705796565728

   => Energetics <=

    Nuclear Repulsion Energy =            674.2386042483759638
    One-Electron Energy =               -1964.3380245981727512
    Two-Electron Energy =                 826.2123623841393965
    Total Energy =                       -463.8870579656572772
  Basis Set: (AUG-CC-PVTZ AUX)
    Blend: AUG-CC-PVTZ-RI
    Molecular point group: c1

    Geometry (in Angstrom), charge = 0, multiplicity = 1:

       Center              X                  Y                   Z               Mass
    ------------   -----------------  -----------------  -----------------  -----------------
         C           -0.508987880983    -0.832091282539     0.218463133399    12.000000000000
         C           -2.821415880983    -0.231794282539    -0.267365866601    12.000000000000
         C           -1.439119880983    -0.337600282539    -0.913137866601    12.000000000000
         C           -1.212076880983    -0.374925282539     1.535306133399    12.000000000000
         C           -2.480309880983     0.373296717461     1.096450133399    12.000000000000
         C            0.909872119017    -0.345886282539     0.070928133399    12.000000000000
         C           -3.902703480983     0.614163217461    -1.130805266601    12.000000000000
         C            1.212140119017     1.020804717461     0.177914133399    12.000000000000
         C            1.955999119017    -1.237753282539    -0.194563866601    12.000000000000
         C            2.520498119017     1.479479717461     0.027660133399    12.000000000000
         C            3.268294119017    -0.783858282539    -0.347810866601    12.000000000000
         C            3.554550119017     0.577425717461    -0.237763866601    12.000000000000
         H           -0.490566880983    -1.929377282539     0.193687133399     1.007825032230
         H           -3.207852880983    -1.249462282539    -0.105823866601     1.007825032230
         H           -1.123728880983     0.660624717461    -1.245901866601     1.007825032230
         H           -1.411470880983    -0.995056282539    -1.789734866601     1.007825032230
         H           -0.552590880983     0.241009717461     2.154087133399     1.007825032230
         H           -1.478675880983    -1.252629282539     2.134294133399     1.007825032230
         H           -3.298780880983     0.295316717461     1.820978133399     1.007825032230
         H           -2.267244880983     1.442805717461     0.960820133399     1.007825032230
         H           -3.470160880983     1.580172717461    -1.250402866601     1.007825032230
         H           -4.017006880983     0.098282717461    -2.052571866601     1.007825032230
         H           -4.795298880983     0.631710717461    -0.554439866601     1.007825032230
         H            0.414849119017     1.733935717461     0.384394133399     1.007825032230
         H            1.740198119017    -2.301975282539    -0.278643866601     1.007825032230
         H            2.734649119017     2.542325717461     0.116477133399     1.007825032230
         H            4.066255119017    -1.494283282539    -0.552230866601     1.007825032230
         H            4.575007119017     0.934129717461    -0.354991866601     1.007825032230

  Basis Set: AUG-CC-PVTZ
    Blend: AUG-CC-PVTZ
  Basis Set: (AUG-CC-PVTZ AUX)
    Blend: AUG-CC-PVTZ-JKFIT
	 Reference Energy          =    -463.8870579656572772 [Eh]
	 Singles Energy            =      -0.0000000000000000 [Eh]
	 Same-Spin Energy          =      -0.5192417695734045 [Eh]
	 Opposite-Spin Energy      =      -1.7265504647313534 [Eh]
	 Correlation Energy        =      -2.2457922343047581 [Eh]
	 Total Energy              =    -466.1328501999620357 [Eh]

	 ================> DF-SCS-MP2 Energies <==================
	-----------------------------------------------------------
	 SCS Same-Spin Scale       =       0.3333333333333333 [-]
	 SCS Opposite-Spin Scale   =       1.2000000000000000 [-]
	 SCS Same-Spin Energy      =      -0.1730805898578015 [Eh]
	 SCS Opposite-Spin Energy  =      -2.0718605576776241 [Eh]
	 SCS Correlation Energy    =      -2.2449411475354255 [Eh]
	 SCS Total Energy          =    -466.1319991131927054 [Eh]
	-----------------------------------------------------------

  Dipole Moment: [D]
     X:    -0.5518      Y:    -0.2110      Z:     0.0504     Total:     0.5929

*** Psi4 exiting successfully. Buy a developer a beer!
