                               Psi4 1.4a3.dev225

  ==> Input File <==

--------------------------------------------------------------------------
#psi4
#
memory 32 gb

molecule  {
0 1
  C       -0.4426020    -0.8338200     0.2172010
  C       -2.7550300    -0.2335230    -0.2686280
  C       -1.3727340    -0.3393290    -0.9144000
  C       -1.1456910    -0.3766540     1.5340440
  C       -2.4139240     0.3715680     1.0951880
  C        0.9762580    -0.3476150     0.0696660
  C       -3.7696470     0.5602740    -1.0788290
  C        1.2785260     1.0190760     0.1766520
  C        2.0074415    -1.2267420    -0.1920335
  C        2.5868840     1.4777510     0.0263980
  C        3.3346800    -0.7855870    -0.3490730
  C        3.6209360     0.5756970    -0.2390260
  H       -0.4241810    -1.9311060     0.1924250
  H       -3.1414670    -1.2511910    -0.1070860
  H       -1.0573430     0.6588960    -1.2471640
  H       -1.3450850    -0.9967850    -1.7909970
  H       -0.4862050     0.2392810     2.1528250
  H       -1.4122900    -1.2543580     2.1330320
  H       -3.2323950     0.2935880     1.8197160
  H       -2.2008590     1.4410770     0.9595580
  H       -3.4037750     1.5784440    -1.2516650
  H       -3.9506210     0.0965540    -2.0538340
  H       -4.7289130     0.6299820    -0.5557020
  H        0.4812350     1.7322070     0.3831320
  H        1.8065840    -2.3037040    -0.2799060
  H        2.8010350     2.5405970     0.1152150
  H        4.1326410    -1.4960120    -0.5534930
  H        4.6413930     0.9324010    -0.3562540
units angstrom
no_reorient  #important for SAPT in psi4, default
symmetry c1  #important for SAPT in psi4, default
}

set PROPERTIES_ORIGIN ["COM"]
properties('MP2/aug-cc-pvtz', properties = ['dipole'])
--------------------------------------------------------------------------

    Molecular point group: c1
  Charge       = 0
  Multiplicity = 1
  Basis Set: AUG-CC-PVTZ
    Blend: AUG-CC-PVTZ
  Basis Set: (AUG-CC-PVTZ AUX)
    Blend: AUG-CC-PVTZ-JKFIT

    Orbital Energies [Eh]
    ---------------------

    Doubly Occupied:

       1A    -11.234171     2A    -11.233827     3A    -11.233415
       4A    -11.229106     5A    -11.228735     6A    -11.228120
       7A    -11.227817     8A    -11.221102     9A    -11.216591
      10A    -11.214822    11A    -11.214619    12A    -11.211531
      13A     -1.157130    14A     -1.124822    15A     -1.040371
      16A     -1.007098    17A     -0.989003    18A     -0.954121
      19A     -0.892512    20A     -0.827717    21A     -0.814852
      22A     -0.763510    23A     -0.757983    24A     -0.689273
      25A     -0.660339    26A     -0.634262    27A     -0.622370
      28A     -0.607896    29A     -0.586096    30A     -0.579298
      31A     -0.572171    32A     -0.556212    33A     -0.528358
      34A     -0.511096    35A     -0.510718    36A     -0.489805
      37A     -0.474905    38A     -0.463259    39A     -0.461484
      40A     -0.453385    41A     -0.450389    42A     -0.443746
      43A     -0.331381    44A     -0.320755

  @DF-RHF Final Energy:  -463.89406304217749

   => Energetics <=

    Nuclear Repulsion Energy =            676.2499461332744204
    One-Electron Energy =               -1968.3476716053282871
    Two-Electron Energy =                 828.2036624298762035
    Total Energy =                       -463.8940630421775495
  Basis Set: (AUG-CC-PVTZ AUX)
    Blend: AUG-CC-PVTZ-RI
    Molecular point group: c1

    Geometry (in Angstrom), charge = 0, multiplicity = 1:

       Center              X                  Y                   Z               Mass
    ------------   -----------------  -----------------  -----------------  -----------------
         C           -0.512864380110    -0.829137056730     0.214189160296    12.000000000000
         C           -2.825292380110    -0.228840056730    -0.271639839704    12.000000000000
         C           -1.442996380110    -0.334646056730    -0.917411839704    12.000000000000
         C           -1.215953380110    -0.371971056730     1.531032160296    12.000000000000
         C           -2.484186380110     0.376250943270     1.092176160296    12.000000000000
         C            0.905995619890    -0.342932056730     0.066654160296    12.000000000000
         C           -3.839909380110     0.564956943270    -1.081840839704    12.000000000000
         C            1.208263619890     1.023758943270     0.173640160296    12.000000000000
         C            1.937179119890    -1.222059056730    -0.195045339704    12.000000000000
         C            2.516621619890     1.482433943270     0.023386160296    12.000000000000
         C            3.264417619890    -0.780904056730    -0.352084839704    12.000000000000
         C            3.550673619890     0.580379943270    -0.242037839704    12.000000000000
         H           -0.494443380110    -1.926423056730     0.189413160296     1.007825032230
         H           -3.211729380110    -1.246508056730    -0.110097839704     1.007825032230
         H           -1.127605380110     0.663578943270    -1.250175839704     1.007825032230
         H           -1.415347380110    -0.992102056730    -1.794008839704     1.007825032230
         H           -0.556467380110     0.243963943270     2.149813160296     1.007825032230
         H           -1.482552380110    -1.249675056730     2.130020160296     1.007825032230
         H           -3.302657380110     0.298270943270     1.816704160296     1.007825032230
         H           -2.271121380110     1.445759943270     0.956546160296     1.007825032230
         H           -3.474037380110     1.583126943270    -1.254676839704     1.007825032230
         H           -4.020883380110     0.101236943270    -2.056845839704     1.007825032230
         H           -4.799175380110     0.634664943270    -0.558713839704     1.007825032230
         H            0.410972619890     1.736889943270     0.380120160296     1.007825032230
         H            1.736321619890    -2.299021056730    -0.282917839704     1.007825032230
         H            2.730772619890     2.545279943270     0.112203160296     1.007825032230
         H            4.062378619890    -1.491329056730    -0.556504839704     1.007825032230
         H            4.571130619890     0.937083943270    -0.359265839704     1.007825032230

  Basis Set: AUG-CC-PVTZ
    Blend: AUG-CC-PVTZ
  Basis Set: (AUG-CC-PVTZ AUX)
    Blend: AUG-CC-PVTZ-JKFIT
	 Reference Energy          =    -463.8940630421774927 [Eh]
	 Singles Energy            =      -0.0000000000000000 [Eh]
	 Same-Spin Energy          =      -0.5194742471829777 [Eh]
	 Opposite-Spin Energy      =      -1.7264241435637175 [Eh]
	 Correlation Energy        =      -2.2458983907466954 [Eh]
	 Total Energy              =    -466.1399614329241672 [Eh]

	 ================> DF-SCS-MP2 Energies <==================
	-----------------------------------------------------------
	 SCS Same-Spin Scale       =       0.3333333333333333 [-]
	 SCS Opposite-Spin Scale   =       1.2000000000000000 [-]
	 SCS Same-Spin Energy      =      -0.1731580823943259 [Eh]
	 SCS Opposite-Spin Energy  =      -2.0717089722764608 [Eh]
	 SCS Correlation Energy    =      -2.2448670546707867 [Eh]
	 SCS Total Energy          =    -466.1389300968482985 [Eh]
	-----------------------------------------------------------

  Dipole Moment: [D]
     X:    -0.5563      Y:    -0.1971      Z:     0.0363     Total:     0.5913

*** Psi4 exiting successfully. Buy a developer a beer!
