                               Psi4 1.4a3.dev225

  ==> Input File <==

--------------------------------------------------------------------------
#psi4
#
memory 32 gb

molecule  {
0 1
  C       -0.4426020    -0.8338200     0.2172010
  C       -2.7550300    -0.2335230    -0.2686280
  C       -1.3727340    -0.3393290    -0.9144000
  C       -1.1456910    -0.3766540     1.5340440
  C       -2.4139240     0.3715680     1.0951880
  C        0.9762580    -0.3476150     0.0696660
  C       -3.7696470     0.5602740    -1.0788290
  C        1.2785260     1.0190760     0.1766520
  C        2.0223850    -1.2394820    -0.1958260
  C        2.5868840     1.4777510     0.0263980
  C        3.3015391    -0.6951379    -0.3339486
  C        3.6209360     0.5756970    -0.2390260
  H       -0.4241810    -1.9311060     0.1924250
  H       -3.1414670    -1.2511910    -0.1070860
  H       -1.0573430     0.6588960    -1.2471640
  H       -1.3450850    -0.9967850    -1.7909970
  H       -0.4862050     0.2392810     2.1528250
  H       -1.4122900    -1.2543580     2.1330320
  H       -3.2323950     0.2935880     1.8197160
  H       -2.2008590     1.4410770     0.9595580
  H       -3.4037750     1.5784440    -1.2516650
  H       -3.9506210     0.0965540    -2.0538340
  H       -4.7289130     0.6299820    -0.5557020
  H        0.4812350     1.7322070     0.3831320
  H        1.8065840    -2.3037040    -0.2799060
  H        2.8010350     2.5405970     0.1152150
  H        4.1326410    -1.4960120    -0.5534930
  H        4.6413930     0.9324010    -0.3562540
units angstrom
no_reorient  #important for SAPT in psi4, default
symmetry c1  #important for SAPT in psi4, default
}

set PROPERTIES_ORIGIN ["COM"]
properties('MP2/aug-cc-pvtz', properties = ['dipole'])
--------------------------------------------------------------------------

    Molecular point group: c1
  Charge       = 0
  Multiplicity = 1
  Basis Set: AUG-CC-PVTZ
    Blend: AUG-CC-PVTZ
  Basis Set: (AUG-CC-PVTZ AUX)
    Blend: AUG-CC-PVTZ-JKFIT

    Orbital Energies [Eh]
    ---------------------

    Doubly Occupied:

       1A    -11.236555     2A    -11.234199     3A    -11.230564
       4A    -11.228178     5A    -11.227277     6A    -11.227186
       7A    -11.221332     8A    -11.219156     9A    -11.216894
      10A    -11.215029    11A    -11.214962    12A    -11.211697
      13A     -1.162005    14A     -1.128613    15A     -1.045463
      16A     -1.005984    17A     -0.991136    18A     -0.955877
      19A     -0.893667    20A     -0.825480    21A     -0.818414
      22A     -0.763831    23A     -0.751976    24A     -0.694007
      25A     -0.661577    26A     -0.632405    27A     -0.625528
      28A     -0.602103    29A     -0.586942    30A     -0.579021
      31A     -0.568778    32A     -0.557865    33A     -0.530848
      34A     -0.514715    35A     -0.509542    36A     -0.488825
      37A     -0.474781    38A     -0.466085    39A     -0.458726
      40A     -0.453354    41A     -0.449572    42A     -0.441076
      43A     -0.333136    44A     -0.324378

  @DF-RHF Final Energy:  -463.88252928781867

   => Energetics <=

    Nuclear Repulsion Energy =            677.5533389266439599
    One-Electron Energy =               -1970.9142552825010171
    Two-Electron Energy =                 829.4783870680385007
    Total Energy =                       -463.8825292878186701
  Basis Set: (AUG-CC-PVTZ AUX)
    Blend: AUG-CC-PVTZ-RI
    Molecular point group: c1

    Geometry (in Angstrom), charge = 0, multiplicity = 1:

       Center              X                  Y                   Z               Mass
    ------------   -----------------  -----------------  -----------------  -----------------
         C           -0.511500642239    -0.834960682224     0.213339932320    12.000000000000
         C           -2.823928642239    -0.234663682224    -0.272489067680    12.000000000000
         C           -1.441632642239    -0.340469682224    -0.918261067680    12.000000000000
         C           -1.214589642239    -0.377794682224     1.530182932320    12.000000000000
         C           -2.482822642239     0.370427317776     1.091326932320    12.000000000000
         C            0.907359357761    -0.348755682224     0.065804932320    12.000000000000
         C           -3.838545642239     0.559133317776    -1.082690067680    12.000000000000
         C            1.209627357761     1.017935317776     0.172790932320    12.000000000000
         C            1.953486357761    -1.240622682224    -0.199687067680    12.000000000000
         C            2.517985357761     1.476610317776     0.022536932320    12.000000000000
         C            3.232640457761    -0.696278582224    -0.337809667680    12.000000000000
         C            3.552037357761     0.574556317776    -0.242887067680    12.000000000000
         H           -0.493079642239    -1.932246682224     0.188563932320     1.007825032230
         H           -3.210365642239    -1.252331682224    -0.110947067680     1.007825032230
         H           -1.126241642239     0.657755317776    -1.251025067680     1.007825032230
         H           -1.413983642239    -0.997925682224    -1.794858067680     1.007825032230
         H           -0.555103642239     0.238140317776     2.148963932320     1.007825032230
         H           -1.481188642239    -1.255498682224     2.129170932320     1.007825032230
         H           -3.301293642239     0.292447317776     1.815854932320     1.007825032230
         H           -2.269757642239     1.439936317776     0.955696932320     1.007825032230
         H           -3.472673642239     1.577303317776    -1.255526067680     1.007825032230
         H           -4.019519642239     0.095413317776    -2.057695067680     1.007825032230
         H           -4.797811642239     0.628841317776    -0.559563067680     1.007825032230
         H            0.412336357761     1.731066317776     0.379270932320     1.007825032230
         H            1.737685357761    -2.304844682224    -0.283767067680     1.007825032230
         H            2.732136357761     2.539456317776     0.111353932320     1.007825032230
         H            4.063742357761    -1.497152682224    -0.557354067680     1.007825032230
         H            4.572494357761     0.931260317776    -0.360115067680     1.007825032230

  Basis Set: AUG-CC-PVTZ
    Blend: AUG-CC-PVTZ
  Basis Set: (AUG-CC-PVTZ AUX)
    Blend: AUG-CC-PVTZ-JKFIT
	 Reference Energy          =    -463.8825292878186701 [Eh]
	 Singles Energy            =      -0.0000000000000000 [Eh]
	 Same-Spin Energy          =      -0.5195617576590627 [Eh]
	 Opposite-Spin Energy      =      -1.7264171396819603 [Eh]
	 Correlation Energy        =      -2.2459788973410229 [Eh]
	 Total Energy              =    -466.1285081851597170 [Eh]

	 ================> DF-SCS-MP2 Energies <==================
	-----------------------------------------------------------
	 SCS Same-Spin Scale       =       0.3333333333333333 [-]
	 SCS Opposite-Spin Scale   =       1.2000000000000000 [-]
	 SCS Same-Spin Energy      =      -0.1731872525530209 [Eh]
	 SCS Opposite-Spin Energy  =      -2.0717005676183522 [Eh]
	 SCS Correlation Energy    =      -2.2448878201713729 [Eh]
	 SCS Total Energy          =    -466.1274171079900270 [Eh]
	-----------------------------------------------------------

  Dipole Moment: [D]
     X:    -0.6173      Y:    -0.1657      Z:     0.0493     Total:     0.6410

*** Psi4 exiting successfully. Buy a developer a beer!
