                               Psi4 1.4a3.dev225

  ==> Input File <==

--------------------------------------------------------------------------
#psi4
#
memory 32 gb

molecule  {
0 1
  C       -0.4426020    -0.8338200     0.2172010
  C       -2.6648476    -0.1022158    -0.2685743
  C       -1.3727340    -0.3393290    -0.9144000
  C       -1.1456910    -0.3766540     1.5340440
  C       -2.4139240     0.3715680     1.0951880
  C        0.9762580    -0.3476150     0.0696660
  C       -3.7696470     0.5602740    -1.0788290
  C        1.2785260     1.0190760     0.1766520
  C        2.0223850    -1.2394820    -0.1958260
  C        2.5868840     1.4777510     0.0263980
  C        3.3346800    -0.7855870    -0.3490730
  C        3.6209360     0.5756970    -0.2390260
  H       -0.4241810    -1.9311060     0.1924250
  H       -3.1414670    -1.2511910    -0.1070860
  H       -1.0573430     0.6588960    -1.2471640
  H       -1.3450850    -0.9967850    -1.7909970
  H       -0.4862050     0.2392810     2.1528250
  H       -1.4122900    -1.2543580     2.1330320
  H       -3.2323950     0.2935880     1.8197160
  H       -2.2008590     1.4410770     0.9595580
  H       -3.4037750     1.5784440    -1.2516650
  H       -3.9506210     0.0965540    -2.0538340
  H       -4.7289130     0.6299820    -0.5557020
  H        0.4812350     1.7322070     0.3831320
  H        1.8065840    -2.3037040    -0.2799060
  H        2.8010350     2.5405970     0.1152150
  H        4.1326410    -1.4960120    -0.5534930
  H        4.6413930     0.9324010    -0.3562540
units angstrom
no_reorient  #important for SAPT in psi4, default
symmetry c1  #important for SAPT in psi4, default
}

set PROPERTIES_ORIGIN ["COM"]
properties('MP2/aug-cc-pvtz', properties = ['dipole'])
--------------------------------------------------------------------------

    Molecular point group: c1
  Charge       = 0
  Multiplicity = 1
  Basis Set: AUG-CC-PVTZ
    Blend: AUG-CC-PVTZ
  Basis Set: (AUG-CC-PVTZ AUX)
    Blend: AUG-CC-PVTZ-JKFIT

    Orbital Energies [Eh]
    ---------------------

    Doubly Occupied:

       1A    -11.237216     2A    -11.234071     3A    -11.233354
       4A    -11.230305     5A    -11.230262     6A    -11.229492
       7A    -11.228996     8A    -11.228776     9A    -11.218634
      10A    -11.215117    11A    -11.214693    12A    -11.214569
      13A     -1.161004    14A     -1.134428    15A     -1.042549
      16A     -1.009002    17A     -0.991124    18A     -0.961815
      19A     -0.900593    20A     -0.828738    21A     -0.818822
      22A     -0.762334    23A     -0.745552    24A     -0.691649
      25A     -0.666800    26A     -0.636877    27A     -0.625599
      28A     -0.609918    29A     -0.585367    30A     -0.580508
      31A     -0.573338    32A     -0.560968    33A     -0.526132
      34A     -0.515311    35A     -0.511284    36A     -0.493449
      37A     -0.489288    38A     -0.472134    39A     -0.463345
      40A     -0.458171    41A     -0.451921    42A     -0.404570
      43A     -0.332819    44A     -0.319564

  @DF-RHF Final Energy:  -463.86792179285601

   => Energetics <=

    Nuclear Repulsion Energy =            677.7445168028841636
    One-Electron Energy =               -1971.1439620945805018
    Two-Electron Energy =                 829.5315234988403290
    Total Energy =                       -463.8679217928560092
  Basis Set: (AUG-CC-PVTZ AUX)
    Blend: AUG-CC-PVTZ-RI
    Molecular point group: c1

    Geometry (in Angstrom), charge = 0, multiplicity = 1:

       Center              X                  Y                   Z               Mass
    ------------   -----------------  -----------------  -----------------  -----------------
         C           -0.520742657832    -0.838022643730     0.214469351046    12.000000000000
         C           -2.742988257832    -0.106418443730    -0.271305948954    12.000000000000
         C           -1.450874657832    -0.343531643730    -0.917131648954    12.000000000000
         C           -1.223831657832    -0.380856643730     1.531312351046    12.000000000000
         C           -2.492064657832     0.367365356270     1.092456351046    12.000000000000
         C            0.898117342168    -0.351817643730     0.066934351046    12.000000000000
         C           -3.847787657832     0.556071356270    -1.081560648954    12.000000000000
         C            1.200385342168     1.014873356270     0.173920351046    12.000000000000
         C            1.944244342168    -1.243684643730    -0.198557648954    12.000000000000
         C            2.508743342168     1.473548356270     0.023666351046    12.000000000000
         C            3.256539342168    -0.789789643730    -0.351804648954    12.000000000000
         C            3.542795342168     0.571494356270    -0.241757648954    12.000000000000
         H           -0.502321657832    -1.935308643730     0.189693351046     1.007825032230
         H           -3.219607657832    -1.255393643730    -0.109817648954     1.007825032230
         H           -1.135483657832     0.654693356270    -1.249895648954     1.007825032230
         H           -1.423225657832    -1.000987643730    -1.793728648954     1.007825032230
         H           -0.564345657832     0.235078356270     2.150093351046     1.007825032230
         H           -1.490430657832    -1.258560643730     2.130300351046     1.007825032230
         H           -3.310535657832     0.289385356270     1.816984351046     1.007825032230
         H           -2.278999657832     1.436874356270     0.956826351046     1.007825032230
         H           -3.481915657832     1.574241356270    -1.254396648954     1.007825032230
         H           -4.028761657832     0.092351356270    -2.056565648954     1.007825032230
         H           -4.807053657832     0.625779356270    -0.558433648954     1.007825032230
         H            0.403094342168     1.728004356270     0.380400351046     1.007825032230
         H            1.728443342168    -2.307906643730    -0.282637648954     1.007825032230
         H            2.722894342168     2.536394356270     0.112483351046     1.007825032230
         H            4.054500342168    -1.500214643730    -0.556224648954     1.007825032230
         H            4.563252342168     0.928198356270    -0.358985648954     1.007825032230

  Basis Set: AUG-CC-PVTZ
    Blend: AUG-CC-PVTZ
  Basis Set: (AUG-CC-PVTZ AUX)
    Blend: AUG-CC-PVTZ-JKFIT
	 Reference Energy          =    -463.8679217928560092 [Eh]
	 Singles Energy            =      -0.0000000000000000 [Eh]
	 Same-Spin Energy          =      -0.5208794850916403 [Eh]
	 Opposite-Spin Energy      =      -1.7285588210131202 [Eh]
	 Correlation Energy        =      -2.2494383061047607 [Eh]
	 Total Energy              =    -466.1173600989607735 [Eh]

	 ================> DF-SCS-MP2 Energies <==================
	-----------------------------------------------------------
	 SCS Same-Spin Scale       =       0.3333333333333333 [-]
	 SCS Opposite-Spin Scale   =       1.2000000000000000 [-]
	 SCS Same-Spin Energy      =      -0.1736264950305468 [Eh]
	 SCS Opposite-Spin Energy  =      -2.0742705852157441 [Eh]
	 SCS Correlation Energy    =      -2.2478970802462910 [Eh]
	 SCS Total Energy          =    -466.1158188731022847 [Eh]
	-----------------------------------------------------------

  Dipole Moment: [D]
     X:    -0.4766      Y:    -0.0945      Z:     0.0372     Total:     0.4873

*** Psi4 exiting successfully. Buy a developer a beer!
