                               Psi4 1.4a3.dev225

  ==> Input File <==

--------------------------------------------------------------------------
#psi4
#
memory 32 gb

molecule  {
0 1
  C       -0.4426020    -0.8338200     0.2172010
  C       -2.7550300    -0.2335230    -0.2686280
  C       -1.3727340    -0.3393290    -0.9144000
  C       -1.1456910    -0.3766540     1.5340440
  C       -2.4139240     0.3715680     1.0951880
  C        0.9762580    -0.3476150     0.0696660
  C       -3.7696470     0.5602740    -1.0788290
  C        1.2785260     1.0190760     0.1766520
  C        2.0223850    -1.2394820    -0.1958260
  C        2.5868840     1.4777510     0.0263980
  C        3.3346800    -0.7855870    -0.3490730
  C        3.6209360     0.5756970    -0.2390260
  H       -0.4241810    -1.9311060     0.1924250
  H       -3.1414670    -1.2511910    -0.1070860
  H       -1.0573430     0.6588960    -1.2471640
  H       -1.3450850    -0.9967850    -1.7909970
  H       -0.4862050     0.2392810     2.1528250
  H       -1.4122900    -1.2543580     2.1330320
  H       -3.2325567     0.3699733     1.8237170
  H       -2.2008590     1.4410770     0.9595580
  H       -3.4037750     1.5784440    -1.2516650
  H       -3.9506210     0.0965540    -2.0538340
  H       -4.7289130     0.6299820    -0.5557020
  H        0.4812350     1.7322070     0.3831320
  H        1.8065840    -2.3037040    -0.2799060
  H        2.8010350     2.5405970     0.1152150
  H        4.1326410    -1.4960120    -0.5534930
  H        4.6413930     0.9324010    -0.3562540
units angstrom
no_reorient  #important for SAPT in psi4, default
symmetry c1  #important for SAPT in psi4, default
}

set PROPERTIES_ORIGIN ["COM"]
properties('MP2/aug-cc-pvtz', properties = ['dipole'])
--------------------------------------------------------------------------

    Molecular point group: c1
  Charge       = 0
  Multiplicity = 1
  Basis Set: AUG-CC-PVTZ
    Blend: AUG-CC-PVTZ
  Basis Set: (AUG-CC-PVTZ AUX)
    Blend: AUG-CC-PVTZ-JKFIT

    Orbital Energies [Eh]
    ---------------------

    Doubly Occupied:

       1A    -11.236568     2A    -11.233593     3A    -11.232882
       4A    -11.228983     5A    -11.228725     6A    -11.228423
       7A    -11.228198     8A    -11.221624     9A    -11.217166
      10A    -11.215005    11A    -11.214827    12A    -11.211570
      13A     -1.156041    14A     -1.124744    15A     -1.039513
      16A     -1.008470    17A     -0.988393    18A     -0.953798
      19A     -0.892745    20A     -0.826463    21A     -0.816481
      22A     -0.764987    23A     -0.757447    24A     -0.689914
      25A     -0.659754    26A     -0.635422    27A     -0.621189
      28A     -0.607006    29A     -0.585873    30A     -0.579545
      31A     -0.573612    32A     -0.554999    33A     -0.528863
      34A     -0.510436    35A     -0.509466    36A     -0.489963
      37A     -0.477309    38A     -0.463497    39A     -0.461094
      40A     -0.453740    41A     -0.449566    42A     -0.444031
      43A     -0.332370    44A     -0.318901

  @DF-RHF Final Energy:  -463.89382326168106

   => Energetics <=

    Nuclear Repulsion Energy =            675.8925660191310953
    One-Electron Energy =               -1967.6263877200412935
    Two-Electron Energy =                 827.8399984392290207
    Total Energy =                       -463.8938232616810637
  Basis Set: (AUG-CC-PVTZ AUX)
    Blend: AUG-CC-PVTZ-RI
    Molecular point group: c1

    Geometry (in Angstrom), charge = 0, multiplicity = 1:

       Center              X                  Y                   Z               Mass
    ------------   -----------------  -----------------  -----------------  -----------------
         C           -0.513983248558    -0.828663071484     0.214448193178    12.000000000000
         C           -2.826411248558    -0.228366071484    -0.271380806822    12.000000000000
         C           -1.444115248558    -0.334172071484    -0.917152806822    12.000000000000
         C           -1.217072248558    -0.371497071484     1.531291193178    12.000000000000
         C           -2.485305248558     0.376724928516     1.092435193178    12.000000000000
         C            0.904876751442    -0.342458071484     0.066913193178    12.000000000000
         C           -3.841028248558     0.565430928516    -1.081581806822    12.000000000000
         C            1.207144751442     1.024232928516     0.173899193178    12.000000000000
         C            1.951003751442    -1.234325071484    -0.198578806822    12.000000000000
         C            2.515502751442     1.482907928516     0.023645193178    12.000000000000
         C            3.263298751442    -0.780430071484    -0.351825806822    12.000000000000
         C            3.549554751442     0.580853928516    -0.241778806822    12.000000000000
         H           -0.495562248558    -1.925949071484     0.189672193178     1.007825032230
         H           -3.212848248558    -1.246034071484    -0.109838806822     1.007825032230
         H           -1.128724248558     0.664052928516    -1.249916806822     1.007825032230
         H           -1.416466248558    -0.991628071484    -1.793749806822     1.007825032230
         H           -0.557586248558     0.244437928516     2.150072193178     1.007825032230
         H           -1.483671248558    -1.249201071484     2.130279193178     1.007825032230
         H           -3.303937948558     0.375130228516     1.820964193178     1.007825032230
         H           -2.272240248558     1.446233928516     0.956805193178     1.007825032230
         H           -3.475156248558     1.583600928516    -1.254417806822     1.007825032230
         H           -4.022002248558     0.101710928516    -2.056586806822     1.007825032230
         H           -4.800294248558     0.635138928516    -0.558454806822     1.007825032230
         H            0.409853751442     1.737363928516     0.380379193178     1.007825032230
         H            1.735202751442    -2.298547071484    -0.282658806822     1.007825032230
         H            2.729653751442     2.545753928516     0.112462193178     1.007825032230
         H            4.061259751442    -1.490855071484    -0.556245806822     1.007825032230
         H            4.570011751442     0.937557928516    -0.359006806822     1.007825032230

  Basis Set: AUG-CC-PVTZ
    Blend: AUG-CC-PVTZ
  Basis Set: (AUG-CC-PVTZ AUX)
    Blend: AUG-CC-PVTZ-JKFIT
	 Reference Energy          =    -463.8938232616810637 [Eh]
	 Singles Energy            =      -0.0000000000000000 [Eh]
	 Same-Spin Energy          =      -0.5195171038802971 [Eh]
	 Opposite-Spin Energy      =      -1.7263760531253043 [Eh]
	 Correlation Energy        =      -2.2458931570056015 [Eh]
	 Total Energy              =    -466.1397164186866462 [Eh]

	 ================> DF-SCS-MP2 Energies <==================
	-----------------------------------------------------------
	 SCS Same-Spin Scale       =       0.3333333333333333 [-]
	 SCS Opposite-Spin Scale   =       1.2000000000000000 [-]
	 SCS Same-Spin Energy      =      -0.1731723679600990 [Eh]
	 SCS Opposite-Spin Energy  =      -2.0716512637503652 [Eh]
	 SCS Correlation Energy    =      -2.2448236317104642 [Eh]
	 SCS Total Energy          =    -466.1386468933915239 [Eh]
	-----------------------------------------------------------

  Dipole Moment: [D]
     X:    -0.5639      Y:    -0.1810      Z:     0.0378     Total:     0.5935

*** Psi4 exiting successfully. Buy a developer a beer!
