                               Psi4 1.4a3.dev225

  ==> Input File <==

--------------------------------------------------------------------------
#psi4
#
memory 32 gb

molecule  {
0 1
  C       -0.4426020    -0.8338200     0.2172010
  C       -2.7550300    -0.2335230    -0.2686280
  C       -1.3727340    -0.3393290    -0.9144000
  C       -1.1456910    -0.3766540     1.5340440
  C       -2.4139240     0.3715680     1.0951880
  C        0.9291852    -0.3637456     0.0745607
  C       -3.7696470     0.5602740    -1.0788290
  C        1.2785260     1.0190760     0.1766520
  C        2.0223850    -1.2394820    -0.1958260
  C        2.5868840     1.4777510     0.0263980
  C        3.3346800    -0.7855870    -0.3490730
  C        3.6209360     0.5756970    -0.2390260
  H       -0.4241810    -1.9311060     0.1924250
  H       -3.1414670    -1.2511910    -0.1070860
  H       -1.0573430     0.6588960    -1.2471640
  H       -1.3450850    -0.9967850    -1.7909970
  H       -0.4862050     0.2392810     2.1528250
  H       -1.4122900    -1.2543580     2.1330320
  H       -3.2323950     0.2935880     1.8197160
  H       -2.2008590     1.4410770     0.9595580
  H       -3.4037750     1.5784440    -1.2516650
  H       -3.9506210     0.0965540    -2.0538340
  H       -4.7289130     0.6299820    -0.5557020
  H        0.4812350     1.7322070     0.3831320
  H        1.8065840    -2.3037040    -0.2799060
  H        2.8010350     2.5405970     0.1152150
  H        4.1326410    -1.4960120    -0.5534930
  H        4.6413930     0.9324010    -0.3562540
units angstrom
no_reorient  #important for SAPT in psi4, default
symmetry c1  #important for SAPT in psi4, default
}

set PROPERTIES_ORIGIN ["COM"]
properties('MP2/aug-cc-pvtz', properties = ['dipole'])
--------------------------------------------------------------------------

    Molecular point group: c1
  Charge       = 0
  Multiplicity = 1
  Basis Set: AUG-CC-PVTZ
    Blend: AUG-CC-PVTZ
  Basis Set: (AUG-CC-PVTZ AUX)
    Blend: AUG-CC-PVTZ-JKFIT

    Orbital Energies [Eh]
    ---------------------

    Doubly Occupied:

       1A    -11.240303     2A    -11.233407     3A    -11.232703
       4A    -11.230757     5A    -11.230607     6A    -11.228964
       7A    -11.226728     8A    -11.221954     9A    -11.217936
      10A    -11.216102    11A    -11.215669    12A    -11.212163
      13A     -1.155517    14A     -1.124141    15A     -1.043879
      16A     -1.005779    17A     -0.987959    18A     -0.953831
      19A     -0.895180    20A     -0.826454    21A     -0.816279
      22A     -0.764582    23A     -0.757444    24A     -0.688628
      25A     -0.662218    26A     -0.638946    27A     -0.621674
      28A     -0.606085    29A     -0.585271    30A     -0.576991
      31A     -0.574338    32A     -0.557514    33A     -0.528924
      34A     -0.512275    35A     -0.509716    36A     -0.486356
      37A     -0.478313    38A     -0.464594    39A     -0.463052
      40A     -0.456296    41A     -0.449519    42A     -0.445578
      43A     -0.331383    44A     -0.313602

  @DF-RHF Final Energy:  -463.88965160519274

   => Energetics <=

    Nuclear Repulsion Energy =            675.9611477084607714
    One-Electron Energy =               -1967.7223817258754934
    Two-Electron Energy =                 827.8715824122218692
    Total Energy =                       -463.8896516051927392
  Basis Set: (AUG-CC-PVTZ AUX)
    Blend: AUG-CC-PVTZ-RI
    Molecular point group: c1

    Geometry (in Angstrom), charge = 0, multiplicity = 1:

       Center              X                  Y                   Z               Mass
    ------------   -----------------  -----------------  -----------------  -----------------
         C           -0.510456566731    -0.826973454756     0.214106559931    12.000000000000
         C           -2.822884566731    -0.226676454756    -0.271722440069    12.000000000000
         C           -1.440588566731    -0.332482454756    -0.917494440069    12.000000000000
         C           -1.213545566731    -0.369807454756     1.530949559931    12.000000000000
         C           -2.481778566731     0.378414545244     1.092093559931    12.000000000000
         C            0.861330633269    -0.356899054756     0.071466259931    12.000000000000
         C           -3.837501566731     0.567120545244    -1.081923440069    12.000000000000
         C            1.210671433269     1.025922545244     0.173557559931    12.000000000000
         C            1.954530433269    -1.232635454756    -0.198920440069    12.000000000000
         C            2.519029433269     1.484597545244     0.023303559931    12.000000000000
         C            3.266825433269    -0.778740454756    -0.352167440069    12.000000000000
         C            3.553081433269     0.582543545244    -0.242120440069    12.000000000000
         H           -0.492035566731    -1.924259454756     0.189330559931     1.007825032230
         H           -3.209321566731    -1.244344454756    -0.110180440069     1.007825032230
         H           -1.125197566731     0.665742545244    -1.250258440069     1.007825032230
         H           -1.412939566731    -0.989938454756    -1.794091440069     1.007825032230
         H           -0.554059566731     0.246127545244     2.149730559931     1.007825032230
         H           -1.480144566731    -1.247511454756     2.129937559931     1.007825032230
         H           -3.300249566731     0.300434545244     1.816621559931     1.007825032230
         H           -2.268713566731     1.447923545244     0.956463559931     1.007825032230
         H           -3.471629566731     1.585290545244    -1.254759440069     1.007825032230
         H           -4.018475566731     0.103400545244    -2.056928440069     1.007825032230
         H           -4.796767566731     0.636828545244    -0.558796440069     1.007825032230
         H            0.413380433269     1.739053545244     0.380037559931     1.007825032230
         H            1.738729433269    -2.296857454756    -0.283000440069     1.007825032230
         H            2.733180433269     2.547443545244     0.112120559931     1.007825032230
         H            4.064786433269    -1.489165454756    -0.556587440069     1.007825032230
         H            4.573538433269     0.939247545244    -0.359348440069     1.007825032230

  Basis Set: AUG-CC-PVTZ
    Blend: AUG-CC-PVTZ
  Basis Set: (AUG-CC-PVTZ AUX)
    Blend: AUG-CC-PVTZ-JKFIT
	 Reference Energy          =    -463.8896516051927392 [Eh]
	 Singles Energy            =      -0.0000000000000000 [Eh]
	 Same-Spin Energy          =      -0.5202370216063673 [Eh]
	 Opposite-Spin Energy      =      -1.7276324742344129 [Eh]
	 Correlation Energy        =      -2.2478694958407801 [Eh]
	 Total Energy              =    -466.1375211010335420 [Eh]

	 ================> DF-SCS-MP2 Energies <==================
	-----------------------------------------------------------
	 SCS Same-Spin Scale       =       0.3333333333333333 [-]
	 SCS Opposite-Spin Scale   =       1.2000000000000000 [-]
	 SCS Same-Spin Energy      =      -0.1734123405354558 [Eh]
	 SCS Opposite-Spin Energy  =      -2.0731589690812955 [Eh]
	 SCS Correlation Energy    =      -2.2465713096167512 [Eh]
	 SCS Total Energy          =    -466.1362229148094798 [Eh]
	-----------------------------------------------------------

  Dipole Moment: [D]
     X:    -0.6739      Y:    -0.2093      Z:     0.0448     Total:     0.7071

*** Psi4 exiting successfully. Buy a developer a beer!
