                               Psi4 1.4a3.dev225

  ==> Input File <==

--------------------------------------------------------------------------
#psi4
#
memory 32 gb

molecule  {
0 1
  C       -0.4426020    -0.8338200     0.2172010
  C       -2.7550300    -0.2335230    -0.2686280
  C       -1.3727340    -0.3393290    -0.9144000
  C       -1.1456910    -0.3766540     1.5340440
  C       -2.4139240     0.3715680     1.0951880
  C        0.9574289    -0.3540672     0.0716239
  C       -3.7696470     0.5602740    -1.0788290
  C        1.2785260     1.0190760     0.1766520
  C        2.0223850    -1.2394820    -0.1958260
  C        2.5868840     1.4777510     0.0263980
  C        3.3346800    -0.7855870    -0.3490730
  C        3.6209360     0.5756970    -0.2390260
  H       -0.4241810    -1.9311060     0.1924250
  H       -3.1414670    -1.2511910    -0.1070860
  H       -1.0573430     0.6588960    -1.2471640
  H       -1.3450850    -0.9967850    -1.7909970
  H       -0.4862050     0.2392810     2.1528250
  H       -1.4122900    -1.2543580     2.1330320
  H       -3.2323950     0.2935880     1.8197160
  H       -2.2008590     1.4410770     0.9595580
  H       -3.4037750     1.5784440    -1.2516650
  H       -3.9506210     0.0965540    -2.0538340
  H       -4.7289130     0.6299820    -0.5557020
  H        0.4812350     1.7322070     0.3831320
  H        1.8065840    -2.3037040    -0.2799060
  H        2.8010350     2.5405970     0.1152150
  H        4.1326410    -1.4960120    -0.5534930
  H        4.6413930     0.9324010    -0.3562540
units angstrom
no_reorient  #important for SAPT in psi4, default
symmetry c1  #important for SAPT in psi4, default
}

set PROPERTIES_ORIGIN ["COM"]
properties('MP2/aug-cc-pvtz', properties = ['dipole'])
--------------------------------------------------------------------------

    Molecular point group: c1
  Charge       = 0
  Multiplicity = 1
  Basis Set: AUG-CC-PVTZ
    Blend: AUG-CC-PVTZ
  Basis Set: (AUG-CC-PVTZ AUX)
    Blend: AUG-CC-PVTZ-JKFIT

    Orbital Energies [Eh]
    ---------------------

    Doubly Occupied:

       1A    -11.237986     2A    -11.233501     3A    -11.232767
       4A    -11.229377     5A    -11.229182     6A    -11.228890
       7A    -11.227756     8A    -11.221470     9A    -11.217166
      10A    -11.215261    11A    -11.215181    12A    -11.211808
      13A     -1.155589    14A     -1.124621    15A     -1.041145
      16A     -1.007337    17A     -0.988239    18A     -0.953846
      19A     -0.893633    20A     -0.826134    21A     -0.816449
      22A     -0.763971    23A     -0.757339    24A     -0.689367
      25A     -0.661111    26A     -0.636609    27A     -0.621705
      28A     -0.606397    29A     -0.585572    30A     -0.578963
      31A     -0.573856    32A     -0.556670    33A     -0.528683
      34A     -0.511447    35A     -0.509794    36A     -0.488384
      37A     -0.476379    38A     -0.463740    39A     -0.461947
      40A     -0.455078    41A     -0.450078    42A     -0.444882
      43A     -0.331950    44A     -0.316779

  @DF-RHF Final Energy:  -463.89330060438942

   => Energetics <=

    Nuclear Repulsion Energy =            675.9427241060473079
    One-Electron Energy =               -1967.7159737131298698
    Two-Electron Energy =                 827.8799490026931380
    Total Energy =                       -463.8933006043894238
  Basis Set: (AUG-CC-PVTZ AUX)
    Blend: AUG-CC-PVTZ-RI
    Molecular point group: c1

    Geometry (in Angstrom), charge = 0, multiplicity = 1:

       Center              X                  Y                   Z               Mass
    ------------   -----------------  -----------------  -----------------  -----------------
         C           -0.512573187968    -0.827698767196     0.214326647712    12.000000000000
         C           -2.825001187968    -0.227401767196    -0.271502352288    12.000000000000
         C           -1.442705187968    -0.333207767196    -0.917274352288    12.000000000000
         C           -1.215662187968    -0.370532767196     1.531169647712    12.000000000000
         C           -2.483895187968     0.377689232804     1.092313647712    12.000000000000
         C            0.887457712032    -0.347945967196     0.068749547712    12.000000000000
         C           -3.839618187968     0.566395232804    -1.081703352288    12.000000000000
         C            1.208554812032     1.025197232804     0.173777647712    12.000000000000
         C            1.952413812032    -1.233360767196    -0.198700352288    12.000000000000
         C            2.516912812032     1.483872232804     0.023523647712    12.000000000000
         C            3.264708812032    -0.779465767196    -0.351947352288    12.000000000000
         C            3.550964812032     0.581818232804    -0.241900352288    12.000000000000
         H           -0.494152187968    -1.924984767196     0.189550647712     1.007825032230
         H           -3.211438187968    -1.245069767196    -0.109960352288     1.007825032230
         H           -1.127314187968     0.665017232804    -1.250038352288     1.007825032230
         H           -1.415056187968    -0.990663767196    -1.793871352288     1.007825032230
         H           -0.556176187968     0.245402232804     2.149950647712     1.007825032230
         H           -1.482261187968    -1.248236767196     2.130157647712     1.007825032230
         H           -3.302366187968     0.299709232804     1.816841647712     1.007825032230
         H           -2.270830187968     1.447198232804     0.956683647712     1.007825032230
         H           -3.473746187968     1.584565232804    -1.254539352288     1.007825032230
         H           -4.020592187968     0.102675232804    -2.056708352288     1.007825032230
         H           -4.798884187968     0.636103232804    -0.558576352288     1.007825032230
         H            0.411263812032     1.738328232804     0.380257647712     1.007825032230
         H            1.736612812032    -2.297582767196    -0.282780352288     1.007825032230
         H            2.731063812032     2.546718232804     0.112340647712     1.007825032230
         H            4.062669812032    -1.489890767196    -0.556367352288     1.007825032230
         H            4.571421812032     0.938522232804    -0.359128352288     1.007825032230

  Basis Set: AUG-CC-PVTZ
    Blend: AUG-CC-PVTZ
  Basis Set: (AUG-CC-PVTZ AUX)
    Blend: AUG-CC-PVTZ-JKFIT
	 Reference Energy          =    -463.8933006043894238 [Eh]
	 Singles Energy            =      -0.0000000000000000 [Eh]
	 Same-Spin Energy          =      -0.5197611962863697 [Eh]
	 Opposite-Spin Energy      =      -1.7268500105526658 [Eh]
	 Correlation Energy        =      -2.2466112068390354 [Eh]
	 Total Energy              =    -466.1399118112284441 [Eh]

	 ================> DF-SCS-MP2 Energies <==================
	-----------------------------------------------------------
	 SCS Same-Spin Scale       =       0.3333333333333333 [-]
	 SCS Opposite-Spin Scale   =       1.2000000000000000 [-]
	 SCS Same-Spin Energy      =      -0.1732537320954566 [Eh]
	 SCS Opposite-Spin Energy  =      -2.0722200126631991 [Eh]
	 SCS Correlation Energy    =      -2.2454737447586557 [Eh]
	 SCS Total Energy          =    -466.1387743491480933 [Eh]
	-----------------------------------------------------------

  Dipole Moment: [D]
     X:    -0.6094      Y:    -0.2052      Z:     0.0402     Total:     0.6442

*** Psi4 exiting successfully. Buy a developer a beer!
