                               Psi4 1.4a3.dev225

  ==> Input File <==

--------------------------------------------------------------------------
#psi4
#
memory 32 gb

molecule  {
0 1
  C       -0.4426020    -0.8338200     0.2172010
  C       -2.7550300    -0.2335230    -0.2686280
  C       -1.3727340    -0.3393290    -0.9144000
  C       -1.1456910    -0.3766540     1.5340440
  C       -2.4139240     0.3715680     1.0951880
  C        0.9762580    -0.3476150     0.0696660
  C       -3.6363059     0.4559531    -0.9723523
  C        1.2785260     1.0190760     0.1766520
  C        2.0223850    -1.2394820    -0.1958260
  C        2.5868840     1.4777510     0.0263980
  C        3.3346800    -0.7855870    -0.3490730
  C        3.6209360     0.5756970    -0.2390260
  H       -0.4241810    -1.9311060     0.1924250
  H       -3.1414670    -1.2511910    -0.1070860
  H       -1.0573430     0.6588960    -1.2471640
  H       -1.3450850    -0.9967850    -1.7909970
  H       -0.4862050     0.2392810     2.1528250
  H       -1.4122900    -1.2543580     2.1330320
  H       -3.2323950     0.2935880     1.8197160
  H       -2.2008590     1.4410770     0.9595580
  H       -3.4037750     1.5784440    -1.2516650
  H       -3.9506210     0.0965540    -2.0538340
  H       -4.7289130     0.6299820    -0.5557020
  H        0.4812350     1.7322070     0.3831320
  H        1.8065840    -2.3037040    -0.2799060
  H        2.8010350     2.5405970     0.1152150
  H        4.1326410    -1.4960120    -0.5534930
  H        4.6413930     0.9324010    -0.3562540
units angstrom
no_reorient  #important for SAPT in psi4, default
symmetry c1  #important for SAPT in psi4, default
}

set PROPERTIES_ORIGIN ["COM"]
properties('MP2/aug-cc-pvtz', properties = ['dipole'])
--------------------------------------------------------------------------

    Molecular point group: c1
  Charge       = 0
  Multiplicity = 1
  Basis Set: AUG-CC-PVTZ
    Blend: AUG-CC-PVTZ
  Basis Set: (AUG-CC-PVTZ AUX)
    Blend: AUG-CC-PVTZ-JKFIT

    Orbital Energies [Eh]
    ---------------------

    Doubly Occupied:

       1A    -11.237112     2A    -11.234078     3A    -11.233345
       4A    -11.229452     5A    -11.229318     6A    -11.228996
       7A    -11.228709     8A    -11.225713     9A    -11.217728
      10A    -11.216971    11A    -11.216927    12A    -11.210776
      13A     -1.160829    14A     -1.137645    15A     -1.056144
      16A     -1.009162    17A     -0.999861    18A     -0.956613
      19A     -0.883362    20A     -0.826850    21A     -0.817154
      22A     -0.766750    23A     -0.759533    24A     -0.691860
      25A     -0.665067    26A     -0.642797    27A     -0.630360
      28A     -0.613761    29A     -0.589798    30A     -0.581004
      31A     -0.574183    32A     -0.547231    33A     -0.529902
      34A     -0.513899    35A     -0.498260    36A     -0.495784
      37A     -0.486543    38A     -0.472946    39A     -0.462306
      40A     -0.452631    41A     -0.433087    42A     -0.419993
      43A     -0.332860    44A     -0.319453

  @DF-RHF Final Energy:  -463.84426294338607

   => Energetics <=

    Nuclear Repulsion Energy =            679.7229900099326869
    One-Electron Energy =               -1975.0610023023320991
    Two-Electron Energy =                 831.4937493490134557
    Total Energy =                       -463.8442629433860702
  Basis Set: (AUG-CC-PVTZ AUX)
    Blend: AUG-CC-PVTZ-RI
    Molecular point group: c1

    Geometry (in Angstrom), charge = 0, multiplicity = 1:

       Center              X                  Y                   Z               Mass
    ------------   -----------------  -----------------  -----------------  -----------------
         C           -0.523977029426    -0.820364353898     0.206493866888    12.000000000000
         C           -2.836405029426    -0.220067353898    -0.279335133112    12.000000000000
         C           -1.454109029426    -0.325873353898    -0.925107133112    12.000000000000
         C           -1.227066029426    -0.363198353898     1.523336866888    12.000000000000
         C           -2.495299029426     0.385023646102     1.084480866888    12.000000000000
         C            0.894882970574    -0.334159353898     0.058958866888    12.000000000000
         C           -3.717680929426     0.469408746102    -0.983059433112    12.000000000000
         C            1.197150970574     1.032531646102     0.165944866888    12.000000000000
         C            1.941009970574    -1.226026353898    -0.206533133112    12.000000000000
         C            2.505508970574     1.491206646102     0.015690866888    12.000000000000
         C            3.253304970574    -0.772131353898    -0.359780133112    12.000000000000
         C            3.539560970574     0.589152646102    -0.249733133112    12.000000000000
         H           -0.505556029426    -1.917650353898     0.181717866888     1.007825032230
         H           -3.222842029426    -1.237735353898    -0.117793133112     1.007825032230
         H           -1.138718029426     0.672351646102    -1.257871133112     1.007825032230
         H           -1.426460029426    -0.983329353898    -1.801704133112     1.007825032230
         H           -0.567580029426     0.252736646102     2.142117866888     1.007825032230
         H           -1.493665029426    -1.240902353898     2.122324866888     1.007825032230
         H           -3.313770029426     0.307043646102     1.809008866888     1.007825032230
         H           -2.282234029426     1.454532646102     0.948850866888     1.007825032230
         H           -3.485150029426     1.591899646102    -1.262372133112     1.007825032230
         H           -4.031996029426     0.110009646102    -2.064541133112     1.007825032230
         H           -4.810288029426     0.643437646102    -0.566409133112     1.007825032230
         H            0.399859970574     1.745662646102     0.372424866888     1.007825032230
         H            1.725208970574    -2.290248353898    -0.290613133112     1.007825032230
         H            2.719659970574     2.554052646102     0.104507866888     1.007825032230
         H            4.051265970574    -1.482556353898    -0.564200133112     1.007825032230
         H            4.560017970574     0.945856646102    -0.366961133112     1.007825032230

  Basis Set: AUG-CC-PVTZ
    Blend: AUG-CC-PVTZ
  Basis Set: (AUG-CC-PVTZ AUX)
    Blend: AUG-CC-PVTZ-JKFIT
	 Reference Energy          =    -463.8442629433860702 [Eh]
	 Singles Energy            =      -0.0000000000000000 [Eh]
	 Same-Spin Energy          =      -0.5225299601580022 [Eh]
	 Opposite-Spin Energy      =      -1.7304813686781655 [Eh]
	 Correlation Energy        =      -2.2530113288361679 [Eh]
	 Total Energy              =    -466.0972742722222506 [Eh]

	 ================> DF-SCS-MP2 Energies <==================
	-----------------------------------------------------------
	 SCS Same-Spin Scale       =       0.3333333333333333 [-]
	 SCS Opposite-Spin Scale   =       1.2000000000000000 [-]
	 SCS Same-Spin Energy      =      -0.1741766533860007 [Eh]
	 SCS Opposite-Spin Energy  =      -2.0765776424137985 [Eh]
	 SCS Correlation Energy    =      -2.2507542957997990 [Eh]
	 SCS Total Energy          =    -466.0950172391858928 [Eh]
	-----------------------------------------------------------

  Dipole Moment: [D]
     X:    -0.4658      Y:    -0.2538      Z:     0.0956     Total:     0.5391

*** Psi4 exiting successfully. Buy a developer a beer!
