                               Psi4 1.4a3.dev225

  ==> Input File <==

--------------------------------------------------------------------------
#psi4
#
memory 32 gb

molecule  {
0 1
  C       -0.4828100    -0.8104928     0.1887622
  C       -2.7550300    -0.2335230    -0.2686280
  C       -1.3727340    -0.3393290    -0.9144000
  C       -1.1456910    -0.3766540     1.5340440
  C       -2.4139240     0.3715680     1.0951880
  C        0.9762580    -0.3476150     0.0696660
  C       -3.7696470     0.5602740    -1.0788290
  C        1.2785260     1.0190760     0.1766520
  C        2.0223850    -1.2394820    -0.1958260
  C        2.5868840     1.4777510     0.0263980
  C        3.3346800    -0.7855870    -0.3490730
  C        3.6209360     0.5756970    -0.2390260
  H       -0.4241810    -1.9311060     0.1924250
  H       -3.1414670    -1.2511910    -0.1070860
  H       -1.0573430     0.6588960    -1.2471640
  H       -1.3450850    -0.9967850    -1.7909970
  H       -0.4862050     0.2392810     2.1528250
  H       -1.4122900    -1.2543580     2.1330320
  H       -3.2323950     0.2935880     1.8197160
  H       -2.2008590     1.4410770     0.9595580
  H       -3.4037750     1.5784440    -1.2516650
  H       -3.9506210     0.0965540    -2.0538340
  H       -4.7289130     0.6299820    -0.5557020
  H        0.4812350     1.7322070     0.3831320
  H        1.8065840    -2.3037040    -0.2799060
  H        2.8010350     2.5405970     0.1152150
  H        4.1326410    -1.4960120    -0.5534930
  H        4.6413930     0.9324010    -0.3562540
units angstrom
no_reorient  #important for SAPT in psi4, default
symmetry c1  #important for SAPT in psi4, default
}

set PROPERTIES_ORIGIN ["COM"]
properties('MP2/aug-cc-pvtz', properties = ['dipole'])
--------------------------------------------------------------------------

    Molecular point group: c1
  Charge       = 0
  Multiplicity = 1
  Basis Set: AUG-CC-PVTZ
    Blend: AUG-CC-PVTZ
  Basis Set: (AUG-CC-PVTZ AUX)
    Blend: AUG-CC-PVTZ-JKFIT

    Orbital Energies [Eh]
    ---------------------

    Doubly Occupied:

       1A    -11.237305     2A    -11.233301     3A    -11.232896
       4A    -11.229784     5A    -11.228980     6A    -11.228514
       7A    -11.228010     8A    -11.221382     9A    -11.216590
      10A    -11.214580    11A    -11.212398    12A    -11.211531
      13A     -1.156552    14A     -1.128116    15A     -1.037001
      16A     -1.008224    17A     -0.988513    18A     -0.959759
      19A     -0.890839    20A     -0.824675    21A     -0.814982
      22A     -0.765158    23A     -0.755355    24A     -0.689897
      25A     -0.662281    26A     -0.634569    27A     -0.621891
      28A     -0.607043    29A     -0.586009    30A     -0.580359
      31A     -0.573397    32A     -0.556022    33A     -0.527859
      34A     -0.512856    35A     -0.508726    36A     -0.489187
      37A     -0.481322    38A     -0.465921    39A     -0.461144
      40A     -0.452158    41A     -0.445037    42A     -0.441299
      43A     -0.332216    44A     -0.320188

  @DF-RHF Final Energy:  -463.89124375178602

   => Energetics <=

    Nuclear Repulsion Energy =            676.2534365140056707
    One-Electron Energy =               -1968.3417075857412328
    Two-Electron Energy =                 828.1970273199495978
    Total Energy =                       -463.8912437517859644
  Basis Set: (AUG-CC-PVTZ AUX)
    Blend: AUG-CC-PVTZ-RI
    Molecular point group: c1

    Geometry (in Angstrom), charge = 0, multiplicity = 1:

       Center              X                  Y                   Z               Mass
    ------------   -----------------  -----------------  -----------------  -----------------
         C           -0.551179024167    -0.806603275877     0.188165817693    12.000000000000
         C           -2.823399024167    -0.229633475877    -0.269224382307    12.000000000000
         C           -1.441103024167    -0.335439475877    -0.914996382307    12.000000000000
         C           -1.214060024167    -0.372764475877     1.533447617693    12.000000000000
         C           -2.482293024167     0.375457524123     1.094591617693    12.000000000000
         C            0.907888975833    -0.343725475877     0.069069617693    12.000000000000
         C           -3.838016024167     0.564163524123    -1.079425382307    12.000000000000
         C            1.210156975833     1.022965524123     0.176055617693    12.000000000000
         C            1.954015975833    -1.235592475877    -0.196422382307    12.000000000000
         C            2.518514975833     1.481640524123     0.025801617693    12.000000000000
         C            3.266310975833    -0.781697475877    -0.349669382307    12.000000000000
         C            3.552566975833     0.579586524123    -0.239622382307    12.000000000000
         H           -0.492550024167    -1.927216475877     0.191828617693     1.007825032230
         H           -3.209836024167    -1.247301475877    -0.107682382307     1.007825032230
         H           -1.125712024167     0.662785524123    -1.247760382307     1.007825032230
         H           -1.413454024167    -0.992895475877    -1.791593382307     1.007825032230
         H           -0.554574024167     0.243170524123     2.152228617693     1.007825032230
         H           -1.480659024167    -1.250468475877     2.132435617693     1.007825032230
         H           -3.300764024167     0.297477524123     1.819119617693     1.007825032230
         H           -2.269228024167     1.444966524123     0.958961617693     1.007825032230
         H           -3.472144024167     1.582333524123    -1.252261382307     1.007825032230
         H           -4.018990024167     0.100443524123    -2.054430382307     1.007825032230
         H           -4.797282024167     0.633871524123    -0.556298382307     1.007825032230
         H            0.412865975833     1.736096524123     0.382535617693     1.007825032230
         H            1.738214975833    -2.299814475877    -0.280502382307     1.007825032230
         H            2.732665975833     2.544486524123     0.114618617693     1.007825032230
         H            4.064271975833    -1.492122475877    -0.554089382307     1.007825032230
         H            4.573023975833     0.936290524123    -0.356850382307     1.007825032230

  Basis Set: AUG-CC-PVTZ
    Blend: AUG-CC-PVTZ
  Basis Set: (AUG-CC-PVTZ AUX)
    Blend: AUG-CC-PVTZ-JKFIT
	 Reference Energy          =    -463.8912437517860212 [Eh]
	 Singles Energy            =      -0.0000000000000000 [Eh]
	 Same-Spin Energy          =      -0.5197044708899767 [Eh]
	 Opposite-Spin Energy      =      -1.7266889089235551 [Eh]
	 Correlation Energy        =      -2.2463933798135320 [Eh]
	 Total Energy              =    -466.1376371315995470 [Eh]

	 ================> DF-SCS-MP2 Energies <==================
	-----------------------------------------------------------
	 SCS Same-Spin Scale       =       0.3333333333333333 [-]
	 SCS Opposite-Spin Scale   =       1.2000000000000000 [-]
	 SCS Same-Spin Energy      =      -0.1732348236299922 [Eh]
	 SCS Opposite-Spin Energy  =      -2.0720266907082658 [Eh]
	 SCS Correlation Energy    =      -2.2452615143382579 [Eh]
	 SCS Total Energy          =    -466.1365052661242885 [Eh]
	-----------------------------------------------------------

  Dipole Moment: [D]
     X:    -0.5612      Y:    -0.1853      Z:     0.0272     Total:     0.5916

*** Psi4 exiting successfully. Buy a developer a beer!
