                               Psi4 1.4a3.dev225

  ==> Input File <==

--------------------------------------------------------------------------
#psi4
#
memory 32 gb

molecule  {
0 1
  C       -0.4426020    -0.8338200     0.2172010
  C       -2.7550300    -0.2335230    -0.2686280
  C       -1.3727340    -0.3393290    -0.9144000
  C       -1.1456910    -0.3766540     1.5340440
  C       -2.4139240     0.3715680     1.0951880
  C        0.9762580    -0.3476150     0.0696660
  C       -3.7696470     0.5602740    -1.0788290
  C        1.2785260     1.0190760     0.1766520
  C        2.0223850    -1.2394820    -0.1958260
  C        2.5868840     1.4777510     0.0263980
  C        3.3346800    -0.7855870    -0.3490730
  C        3.6209360     0.5756970    -0.2390260
  H       -0.4241810    -1.9311060     0.1924250
  H       -3.1414670    -1.2511910    -0.1070860
  H       -1.0573430     0.6588960    -1.2471640
  H       -1.3450850    -0.9967850    -1.7909970
  H       -0.4862050     0.2392810     2.1528250
  H       -1.4122900    -1.2543580     2.1330320
  H       -3.2323950     0.2935880     1.8197160
  H       -2.2008590     1.4410770     0.9595580
  H       -3.4037750     1.5784440    -1.2516650
  H       -3.9506210     0.0965540    -2.0538340
  H       -4.7289130     0.6299820    -0.5557020
  H        0.4446430     1.7649365     0.3926085
  H        1.8065840    -2.3037040    -0.2799060
  H        2.8010350     2.5405970     0.1152150
  H        4.1326410    -1.4960120    -0.5534930
  H        4.6413930     0.9324010    -0.3562540
units angstrom
no_reorient  #important for SAPT in psi4, default
symmetry c1  #important for SAPT in psi4, default
}

set PROPERTIES_ORIGIN ["COM"]
properties('MP2/aug-cc-pvtz', properties = ['dipole'])
--------------------------------------------------------------------------

    Molecular point group: c1
  Charge       = 0
  Multiplicity = 1
  Basis Set: AUG-CC-PVTZ
    Blend: AUG-CC-PVTZ
  Basis Set: (AUG-CC-PVTZ AUX)
    Blend: AUG-CC-PVTZ-JKFIT

    Orbital Energies [Eh]
    ---------------------

    Doubly Occupied:

       1A    -11.237179     2A    -11.234762     3A    -11.233573
       4A    -11.233115     5A    -11.229342     6A    -11.228582
       7A    -11.228397     8A    -11.221064     9A    -11.216540
      10A    -11.214767    11A    -11.214574    12A    -11.211500
      13A     -1.155976    14A     -1.124829    15A     -1.039551
      16A     -1.007538    17A     -0.988270    18A     -0.953604
      19A     -0.892491    20A     -0.824133    21A     -0.816438
      22A     -0.763487    23A     -0.756545    24A     -0.687955
      25A     -0.660106    26A     -0.632890    27A     -0.622006
      28A     -0.605622    29A     -0.585859    30A     -0.578315
      31A     -0.572958    32A     -0.555805    33A     -0.528129
      34A     -0.510312    35A     -0.509916    36A     -0.488940
      37A     -0.475204    38A     -0.463330    39A     -0.460901
      40A     -0.453681    41A     -0.450153    42A     -0.443757
      43A     -0.332696    44A     -0.319152

  @DF-RHF Final Energy:  -463.89186425754042

   => Energetics <=

    Nuclear Repulsion Energy =            675.7207672814924990
    One-Electron Energy =               -1967.2973720277097982
    Two-Electron Energy =                 827.6847404886768800
    Total Energy =                       -463.8918642575404192
  Basis Set: (AUG-CC-PVTZ AUX)
    Blend: AUG-CC-PVTZ-RI
    Molecular point group: c1

    Geometry (in Angstrom), charge = 0, multiplicity = 1:

       Center              X                  Y                   Z               Mass
    ------------   -----------------  -----------------  -----------------  -----------------
         C           -0.513753956928    -0.828388302691     0.214413730483    12.000000000000
         C           -2.826181956928    -0.228091302691    -0.271415269517    12.000000000000
         C           -1.443885956928    -0.333897302691    -0.917187269517    12.000000000000
         C           -1.216842956928    -0.371222302691     1.531256730483    12.000000000000
         C           -2.485075956928     0.376999697309     1.092400730483    12.000000000000
         C            0.905106043072    -0.342183302691     0.066878730483    12.000000000000
         C           -3.840798956928     0.565705697309    -1.081616269517    12.000000000000
         C            1.207374043072     1.024507697309     0.173864730483    12.000000000000
         C            1.951233043072    -1.234050302691    -0.198613269517    12.000000000000
         C            2.515732043072     1.483182697309     0.023610730483    12.000000000000
         C            3.263528043072    -0.780155302691    -0.351860269517    12.000000000000
         C            3.549784043072     0.581128697309    -0.241813269517    12.000000000000
         H           -0.495332956928    -1.925674302691     0.189637730483     1.007825032230
         H           -3.212618956928    -1.245759302691    -0.109873269517     1.007825032230
         H           -1.128494956928     0.664327697309    -1.249951269517     1.007825032230
         H           -1.416236956928    -0.991353302691    -1.793784269517     1.007825032230
         H           -0.557356956928     0.244712697309     2.150037730483     1.007825032230
         H           -1.483441956928    -1.248926302691     2.130244730483     1.007825032230
         H           -3.303546956928     0.299019697309     1.816928730483     1.007825032230
         H           -2.272010956928     1.446508697309     0.956770730483     1.007825032230
         H           -3.474926956928     1.583875697309    -1.254452269517     1.007825032230
         H           -4.021772956928     0.101985697309    -2.056621269517     1.007825032230
         H           -4.800064956928     0.635413697309    -0.558489269517     1.007825032230
         H            0.373491043072     1.770368197309     0.389821230483     1.007825032230
         H            1.735432043072    -2.298272302691    -0.282693269517     1.007825032230
         H            2.729883043072     2.546028697309     0.112427730483     1.007825032230
         H            4.061489043072    -1.490580302691    -0.556280269517     1.007825032230
         H            4.570241043072     0.937832697309    -0.359041269517     1.007825032230

  Basis Set: AUG-CC-PVTZ
    Blend: AUG-CC-PVTZ
  Basis Set: (AUG-CC-PVTZ AUX)
    Blend: AUG-CC-PVTZ-JKFIT
	 Reference Energy          =    -463.8918642575404192 [Eh]
	 Singles Energy            =      -0.0000000000000000 [Eh]
	 Same-Spin Energy          =      -0.5196771754044678 [Eh]
	 Opposite-Spin Energy      =      -1.7269010421531583 [Eh]
	 Correlation Energy        =      -2.2465782175576261 [Eh]
	 Total Energy              =    -466.1384424750980315 [Eh]

	 ================> DF-SCS-MP2 Energies <==================
	-----------------------------------------------------------
	 SCS Same-Spin Scale       =       0.3333333333333333 [-]
	 SCS Opposite-Spin Scale   =       1.2000000000000000 [-]
	 SCS Same-Spin Energy      =      -0.1732257251348226 [Eh]
	 SCS Opposite-Spin Energy  =      -2.0722812505837900 [Eh]
	 SCS Correlation Energy    =      -2.2455069757186124 [Eh]
	 SCS Total Energy          =    -466.1373712332590458 [Eh]
	-----------------------------------------------------------

  Dipole Moment: [D]
     X:    -0.5481      Y:    -0.2154      Z:     0.0332     Total:     0.5899

*** Psi4 exiting successfully. Buy a developer a beer!
