                               Psi4 1.4a3.dev225

  ==> Input File <==

--------------------------------------------------------------------------
#psi4
#
memory 32 gb

molecule  {
0 1
  C       -0.4426020    -0.8338200     0.2172010
  C       -2.7550300    -0.2335230    -0.2686280
  C       -1.3727340    -0.3393290    -0.9144000
  C       -1.1456910    -0.3766540     1.5340440
  C       -2.4139240     0.3715680     1.0951880
  C        0.9762580    -0.3476150     0.0696660
  C       -3.7696470     0.5602740    -1.0788290
  C        1.2785260     1.0190760     0.1766520
  C        2.0223850    -1.2394820    -0.1958260
  C        2.5868840     1.4777510     0.0263980
  C        3.3346800    -0.7855870    -0.3490730
  C        3.6209360     0.5756970    -0.2390260
  H       -0.4241810    -1.9311060     0.1924250
  H       -3.1414670    -1.2511910    -0.1070860
  H       -1.0573430     0.6588960    -1.2471640
  H       -1.3450850    -0.9967850    -1.7909970
  H       -0.4862050     0.2392810     2.1528250
  H       -1.4122900    -1.2543580     2.1330320
  H       -3.2323950     0.2935880     1.8197160
  H       -2.2008590     1.4410770     0.9595580
  H       -3.4037750     1.5784440    -1.2516650
  H       -3.9506210     0.0965540    -2.0538340
  H       -4.7289130     0.6299820    -0.5557020
  H        0.4812350     1.7322070     0.3831320
  H        1.8065840    -2.3037040    -0.2799060
  H        2.8049722     2.5601375     0.1168479
  H        4.1326410    -1.4960120    -0.5534930
  H        4.6413930     0.9324010    -0.3562540
units angstrom
no_reorient  #important for SAPT in psi4, default
symmetry c1  #important for SAPT in psi4, default
}

set PROPERTIES_ORIGIN ["COM"]
properties('MP2/aug-cc-pvtz', properties = ['dipole'])
--------------------------------------------------------------------------

    Molecular point group: c1
  Charge       = 0
  Multiplicity = 1
  Basis Set: AUG-CC-PVTZ
    Blend: AUG-CC-PVTZ
  Basis Set: (AUG-CC-PVTZ AUX)
    Blend: AUG-CC-PVTZ-JKFIT

    Orbital Energies [Eh]
    ---------------------

    Doubly Occupied:

       1A    -11.236635     2A    -11.235880     3A    -11.232998
       4A    -11.229138     5A    -11.228633     6A    -11.228447
       7A    -11.228197     8A    -11.221199     9A    -11.216734
      10A    -11.214915    11A    -11.214778    12A    -11.211607
      13A     -1.156042    14A     -1.124822    15A     -1.039456
      16A     -1.007988    17A     -0.988498    18A     -0.953820
      19A     -0.892701    20A     -0.826095    21A     -0.815370
      22A     -0.763593    23A     -0.756932    24A     -0.689437
      25A     -0.660445    26A     -0.634046    27A     -0.621953
      28A     -0.605856    29A     -0.585980    30A     -0.579432
      31A     -0.573115    32A     -0.556168    33A     -0.528587
      34A     -0.511001    35A     -0.510125    36A     -0.489227
      37A     -0.475269    38A     -0.463437    39A     -0.461346
      40A     -0.453716    41A     -0.450277    42A     -0.443898
      43A     -0.332453    44A     -0.318913

  @DF-RHF Final Energy:  -463.89377069855766

   => Energetics <=

    Nuclear Repulsion Energy =            675.8368468313925632
    One-Electron Energy =               -1967.5229204143161041
    Two-Electron Energy =                 827.7923028843659949
    Total Energy =                       -463.8937706985576597
  Basis Set: (AUG-CC-PVTZ AUX)
    Blend: AUG-CC-PVTZ-RI
    Molecular point group: c1

    Geometry (in Angstrom), charge = 0, multiplicity = 1:

       Center              X                  Y                   Z               Mass
    ------------   -----------------  -----------------  -----------------  -----------------
         C           -0.514009046959    -0.828305291371     0.214463097955    12.000000000000
         C           -2.826437046959    -0.228008291371    -0.271365902045    12.000000000000
         C           -1.444141046959    -0.333814291371    -0.917137902045    12.000000000000
         C           -1.217098046959    -0.371139291371     1.531306097955    12.000000000000
         C           -2.485331046959     0.377082708629     1.092450097955    12.000000000000
         C            0.904850953041    -0.342100291371     0.066928097955    12.000000000000
         C           -3.841054046959     0.565788708629    -1.081566902045    12.000000000000
         C            1.207118953041     1.024590708629     0.173914097955    12.000000000000
         C            1.950977953041    -1.233967291371    -0.198563902045    12.000000000000
         C            2.515476953041     1.483265708629     0.023660097955    12.000000000000
         C            3.263272953041    -0.780072291371    -0.351810902045    12.000000000000
         C            3.549528953041     0.581211708629    -0.241763902045    12.000000000000
         H           -0.495588046959    -1.925591291371     0.189687097955     1.007825032230
         H           -3.212874046959    -1.245676291371    -0.109823902045     1.007825032230
         H           -1.128750046959     0.664410708629    -1.249901902045     1.007825032230
         H           -1.416492046959    -0.991270291371    -1.793734902045     1.007825032230
         H           -0.557612046959     0.244795708629     2.150087097955     1.007825032230
         H           -1.483697046959    -1.248843291371     2.130294097955     1.007825032230
         H           -3.303802046959     0.299102708629     1.816978097955     1.007825032230
         H           -2.272266046959     1.446591708629     0.956820097955     1.007825032230
         H           -3.475182046959     1.583958708629    -1.254402902045     1.007825032230
         H           -4.022028046959     0.102068708629    -2.056571902045     1.007825032230
         H           -4.800320046959     0.635496708629    -0.558439902045     1.007825032230
         H            0.409827953041     1.737721708629     0.380394097955     1.007825032230
         H            1.735176953041    -2.298189291371    -0.282643902045     1.007825032230
         H            2.733565153041     2.565652208629     0.114109997955     1.007825032230
         H            4.061233953041    -1.490497291371    -0.556230902045     1.007825032230
         H            4.569985953041     0.937915708629    -0.358991902045     1.007825032230

  Basis Set: AUG-CC-PVTZ
    Blend: AUG-CC-PVTZ
  Basis Set: (AUG-CC-PVTZ AUX)
    Blend: AUG-CC-PVTZ-JKFIT
	 Reference Energy          =    -463.8937706985576597 [Eh]
	 Singles Energy            =      -0.0000000000000000 [Eh]
	 Same-Spin Energy          =      -0.5195451389114869 [Eh]
	 Opposite-Spin Energy      =      -1.7265996392185663 [Eh]
	 Correlation Energy        =      -2.2461447781300530 [Eh]
	 Total Energy              =    -466.1399154766876904 [Eh]

	 ================> DF-SCS-MP2 Energies <==================
	-----------------------------------------------------------
	 SCS Same-Spin Scale       =       0.3333333333333333 [-]
	 SCS Opposite-Spin Scale   =       1.2000000000000000 [-]
	 SCS Same-Spin Energy      =      -0.1731817129704956 [Eh]
	 SCS Opposite-Spin Energy  =      -2.0719195670622796 [Eh]
	 SCS Correlation Energy    =      -2.2451012800327752 [Eh]
	 SCS Total Energy          =    -466.1388719785904300 [Eh]
	-----------------------------------------------------------

  Dipole Moment: [D]
     X:    -0.5728      Y:    -0.2115      Z:     0.0367     Total:     0.6117

*** Psi4 exiting successfully. Buy a developer a beer!
