                               Psi4 1.4a3.dev225

  ==> Input File <==

--------------------------------------------------------------------------
#psi4
#
memory 32 gb

molecule  {
0 1
  C       -0.4305190    -0.6754385     0.1788070
  C       -2.7550300    -0.2335230    -0.2686280
  C       -1.3727340    -0.3393290    -0.9144000
  C       -1.1456910    -0.3766540     1.5340440
  C       -2.4139240     0.3715680     1.0951880
  C        0.9762580    -0.3476150     0.0696660
  C       -3.7696470     0.5602740    -1.0788290
  C        1.2785260     1.0190760     0.1766520
  C        2.0223850    -1.2394820    -0.1958260
  C        2.5868840     1.4777510     0.0263980
  C        3.3346800    -0.7855870    -0.3490730
  C        3.6209360     0.5756970    -0.2390260
  H       -0.4241810    -1.9311060     0.1924250
  H       -3.1414670    -1.2511910    -0.1070860
  H       -1.0573430     0.6588960    -1.2471640
  H       -1.3450850    -0.9967850    -1.7909970
  H       -0.4862050     0.2392810     2.1528250
  H       -1.4122900    -1.2543580     2.1330320
  H       -3.2323950     0.2935880     1.8197160
  H       -2.2008590     1.4410770     0.9595580
  H       -3.4037750     1.5784440    -1.2516650
  H       -3.9506210     0.0965540    -2.0538340
  H       -4.7289130     0.6299820    -0.5557020
  H        0.4812350     1.7322070     0.3831320
  H        1.8065840    -2.3037040    -0.2799060
  H        2.8010350     2.5405970     0.1152150
  H        4.1326410    -1.4960120    -0.5534930
  H        4.6413930     0.9324010    -0.3562540
units angstrom
no_reorient  #important for SAPT in psi4, default
symmetry c1  #important for SAPT in psi4, default
}

set PROPERTIES_ORIGIN ["COM"]
properties('MP2/aug-cc-pvtz', properties = ['dipole'])
--------------------------------------------------------------------------

    Molecular point group: c1
  Charge       = 0
  Multiplicity = 1
  Basis Set: AUG-CC-PVTZ
    Blend: AUG-CC-PVTZ
  Basis Set: (AUG-CC-PVTZ AUX)
    Blend: AUG-CC-PVTZ-JKFIT

    Orbital Energies [Eh]
    ---------------------

    Doubly Occupied:

       1A    -11.235779     2A    -11.234848     3A    -11.234480
       4A    -11.233797     5A    -11.231459     6A    -11.230920
       7A    -11.228483     8A    -11.222489     9A    -11.219206
      10A    -11.215305    11A    -11.213553    12A    -11.212313
      13A     -1.163022    14A     -1.129122    15A     -1.045470
      16A     -1.009822    17A     -0.989766    18A     -0.960797
      19A     -0.892090    20A     -0.826447    21A     -0.822752
      22A     -0.767085    23A     -0.750046    24A     -0.689583
      25A     -0.662924    26A     -0.641884    27A     -0.623038
      28A     -0.607788    29A     -0.585867    30A     -0.581902
      31A     -0.568058    32A     -0.558811    33A     -0.529103
      34A     -0.515625    35A     -0.510105    36A     -0.490758
      37A     -0.486238    38A     -0.470217    39A     -0.466198
      40A     -0.454941    41A     -0.447915    42A     -0.405838
      43A     -0.333419    44A     -0.321651

  @DF-RHF Final Energy:  -463.86619639919599

   => Energetics <=

    Nuclear Repulsion Energy =            677.7231725286761730
    One-Electron Energy =               -1971.1369089060135593
    Two-Electron Energy =                 829.5475399781414581
    Total Energy =                       -463.8661963991960420
  Basis Set: (AUG-CC-PVTZ AUX)
    Blend: AUG-CC-PVTZ-RI
    Molecular point group: c1

    Geometry (in Angstrom), charge = 0, multiplicity = 1:

       Center              X                  Y                   Z               Mass
    ------------   -----------------  -----------------  -----------------  -----------------
         C           -0.502806782725    -0.681670128542     0.178956673902    12.000000000000
         C           -2.827317782725    -0.239754628542    -0.268478326098    12.000000000000
         C           -1.445021782725    -0.345560628542    -0.914250326098    12.000000000000
         C           -1.217978782725    -0.382885628542     1.534193673902    12.000000000000
         C           -2.486211782725     0.365336371458     1.095337673902    12.000000000000
         C            0.903970217275    -0.353846628542     0.069815673902    12.000000000000
         C           -3.841934782725     0.554042371458    -1.078679326098    12.000000000000
         C            1.206238217275     1.012844371458     0.176801673902    12.000000000000
         C            1.950097217275    -1.245713628542    -0.195676326098    12.000000000000
         C            2.514596217275     1.471519371458     0.026547673902    12.000000000000
         C            3.262392217275    -0.791818628542    -0.348923326098    12.000000000000
         C            3.548648217275     0.569465371458    -0.238876326098    12.000000000000
         H           -0.496468782725    -1.937337628542     0.192574673902     1.007825032230
         H           -3.213754782725    -1.257422628542    -0.106936326098     1.007825032230
         H           -1.129630782725     0.652664371458    -1.247014326098     1.007825032230
         H           -1.417372782725    -1.003016628542    -1.790847326098     1.007825032230
         H           -0.558492782725     0.233049371458     2.152974673902     1.007825032230
         H           -1.484577782725    -1.260589628542     2.133181673902     1.007825032230
         H           -3.304682782725     0.287356371458     1.819865673902     1.007825032230
         H           -2.273146782725     1.434845371458     0.959707673902     1.007825032230
         H           -3.476062782725     1.572212371458    -1.251515326098     1.007825032230
         H           -4.022908782725     0.090322371458    -2.053684326098     1.007825032230
         H           -4.801200782725     0.623750371458    -0.555552326098     1.007825032230
         H            0.408947217275     1.725975371458     0.383281673902     1.007825032230
         H            1.734296217275    -2.309935628542    -0.279756326098     1.007825032230
         H            2.728747217275     2.534365371458     0.115364673902     1.007825032230
         H            4.060353217275    -1.502243628542    -0.553343326098     1.007825032230
         H            4.569105217275     0.926169371458    -0.356104326098     1.007825032230

  Basis Set: AUG-CC-PVTZ
    Blend: AUG-CC-PVTZ
  Basis Set: (AUG-CC-PVTZ AUX)
    Blend: AUG-CC-PVTZ-JKFIT
	 Reference Energy          =    -463.8661963991959851 [Eh]
	 Singles Energy            =      -0.0000000000000000 [Eh]
	 Same-Spin Energy          =      -0.5213856066654542 [Eh]
	 Opposite-Spin Energy      =      -1.7296702623498075 [Eh]
	 Correlation Energy        =      -2.2510558690152616 [Eh]
	 Total Energy              =    -466.1172522682112458 [Eh]

	 ================> DF-SCS-MP2 Energies <==================
	-----------------------------------------------------------
	 SCS Same-Spin Scale       =       0.3333333333333333 [-]
	 SCS Opposite-Spin Scale   =       1.2000000000000000 [-]
	 SCS Same-Spin Energy      =      -0.1737952022218180 [Eh]
	 SCS Opposite-Spin Energy  =      -2.0756043148197687 [Eh]
	 SCS Correlation Energy    =      -2.2493995170415868 [Eh]
	 SCS Total Energy          =    -466.1155959162375666 [Eh]
	-----------------------------------------------------------

  Dipole Moment: [D]
     X:    -0.4907      Y:    -0.0385      Z:     0.0240     Total:     0.4928

*** Psi4 exiting successfully. Buy a developer a beer!
