                               Psi4 1.4a3.dev225

  ==> Input File <==

--------------------------------------------------------------------------
#psi4
#
memory 32 gb

molecule  {
0 1
  C       -0.4426020    -0.8338200     0.2172010
  C       -2.7550300    -0.2335230    -0.2686280
  C       -1.3727340    -0.3393290    -0.9144000
  C       -1.1456910    -0.3766540     1.5340440
  C       -2.4139240     0.3715680     1.0951880
  C        0.9762580    -0.3476150     0.0696660
  C       -3.7696470     0.5602740    -1.0788290
  C        1.2785260     1.0190760     0.1766520
  C        2.0223850    -1.2394820    -0.1958260
  C        2.5868840     1.4777510     0.0263980
  C        3.3419719    -0.8085623    -0.3527402
  C        3.6209360     0.5756970    -0.2390260
  H       -0.4241810    -1.9311060     0.1924250
  H       -3.1414670    -1.2511910    -0.1070860
  H       -1.0573430     0.6588960    -1.2471640
  H       -1.3450850    -0.9967850    -1.7909970
  H       -0.4862050     0.2392810     2.1528250
  H       -1.4122900    -1.2543580     2.1330320
  H       -3.2323950     0.2935880     1.8197160
  H       -2.2008590     1.4410770     0.9595580
  H       -3.4037750     1.5784440    -1.2516650
  H       -3.9506210     0.0965540    -2.0538340
  H       -4.7289130     0.6299820    -0.5557020
  H        0.4812350     1.7322070     0.3831320
  H        1.8065840    -2.3037040    -0.2799060
  H        2.8010350     2.5405970     0.1152150
  H        4.1326410    -1.4960120    -0.5534930
  H        4.6413930     0.9324010    -0.3562540
units angstrom
no_reorient  #important for SAPT in psi4, default
symmetry c1  #important for SAPT in psi4, default
}

set PROPERTIES_ORIGIN ["COM"]
properties('MP2/aug-cc-pvtz', properties = ['dipole'])
--------------------------------------------------------------------------

    Molecular point group: c1
  Charge       = 0
  Multiplicity = 1
  Basis Set: AUG-CC-PVTZ
    Blend: AUG-CC-PVTZ
  Basis Set: (AUG-CC-PVTZ AUX)
    Blend: AUG-CC-PVTZ-JKFIT

    Orbital Energies [Eh]
    ---------------------

    Doubly Occupied:

       1A    -11.236560     2A    -11.233710     3A    -11.233435
       4A    -11.231199     5A    -11.228804     6A    -11.228578
       7A    -11.228435     8A    -11.221150     9A    -11.216670
      10A    -11.214874    11A    -11.214706    12A    -11.211577
      13A     -1.154954    14A     -1.123907    15A     -1.038249
      16A     -1.009122    17A     -0.987865    18A     -0.953293
      19A     -0.892449    20A     -0.827748    21A     -0.814885
      22A     -0.763554    23A     -0.758521    24A     -0.688993
      25A     -0.660279    26A     -0.636878    27A     -0.621222
      28A     -0.607919    29A     -0.586366    30A     -0.581330
      31A     -0.572745    32A     -0.555652    33A     -0.528082
      34A     -0.511955    35A     -0.509136    36A     -0.488830
      37A     -0.475202    38A     -0.463149    39A     -0.461402
      40A     -0.453683    41A     -0.450285    42A     -0.444065
      43A     -0.332869    44A     -0.316969

  @DF-RHF Final Energy:  -463.89335443217527

   => Energetics <=

    Nuclear Repulsion Energy =            675.5606366050240013
    One-Electron Energy =               -1966.9654711924324602
    Two-Electron Energy =                 827.5114801552332437
    Total Energy =                       -463.8933544321752152
  Basis Set: (AUG-CC-PVTZ AUX)
    Blend: AUG-CC-PVTZ-RI
    Molecular point group: c1

    Geometry (in Angstrom), charge = 0, multiplicity = 1:

       Center              X                  Y                   Z               Mass
    ------------   -----------------  -----------------  -----------------  -----------------
         C           -0.514530731184    -0.826460503641     0.214748200346    12.000000000000
         C           -2.826958731184    -0.226163503641    -0.271080799654    12.000000000000
         C           -1.444662731184    -0.331969503641    -0.916852799654    12.000000000000
         C           -1.217619731184    -0.369294503641     1.531591200346    12.000000000000
         C           -2.485852731184     0.378927496359     1.092735200346    12.000000000000
         C            0.904329268816    -0.340255503641     0.067213200346    12.000000000000
         C           -3.841575731184     0.567633496359    -1.081281799654    12.000000000000
         C            1.206597268816     1.026435496359     0.174199200346    12.000000000000
         C            1.950456268816    -1.232122503641    -0.198278799654    12.000000000000
         C            2.514955268816     1.485110496359     0.023945200346    12.000000000000
         C            3.270043168816    -0.801202803641    -0.355192999654    12.000000000000
         C            3.549007268816     0.583056496359    -0.241478799654    12.000000000000
         H           -0.496109731184    -1.923746503641     0.189972200346     1.007825032230
         H           -3.213395731184    -1.243831503641    -0.109538799654     1.007825032230
         H           -1.129271731184     0.666255496359    -1.249616799654     1.007825032230
         H           -1.417013731184    -0.989425503641    -1.793449799654     1.007825032230
         H           -0.558133731184     0.246640496359     2.150372200346     1.007825032230
         H           -1.484218731184    -1.246998503641     2.130579200346     1.007825032230
         H           -3.304323731184     0.300947496359     1.817263200346     1.007825032230
         H           -2.272787731184     1.448436496359     0.957105200346     1.007825032230
         H           -3.475703731184     1.585803496359    -1.254117799654     1.007825032230
         H           -4.022549731184     0.103913496359    -2.056286799654     1.007825032230
         H           -4.800841731184     0.637341496359    -0.558154799654     1.007825032230
         H            0.409306268816     1.739566496359     0.380679200346     1.007825032230
         H            1.734655268816    -2.296344503641    -0.282358799654     1.007825032230
         H            2.729106268816     2.547956496359     0.112762200346     1.007825032230
         H            4.060712268816    -1.488652503641    -0.555945799654     1.007825032230
         H            4.569464268816     0.939760496359    -0.358706799654     1.007825032230

  Basis Set: AUG-CC-PVTZ
    Blend: AUG-CC-PVTZ
  Basis Set: (AUG-CC-PVTZ AUX)
    Blend: AUG-CC-PVTZ-JKFIT
	 Reference Energy          =    -463.8933544321752720 [Eh]
	 Singles Energy            =      -0.0000000000000000 [Eh]
	 Same-Spin Energy          =      -0.5195359607591742 [Eh]
	 Opposite-Spin Energy      =      -1.7266493296482870 [Eh]
	 Correlation Energy        =      -2.2461852904074613 [Eh]
	 Total Energy              =    -466.1395397225827537 [Eh]

	 ================> DF-SCS-MP2 Energies <==================
	-----------------------------------------------------------
	 SCS Same-Spin Scale       =       0.3333333333333333 [-]
	 SCS Opposite-Spin Scale   =       1.2000000000000000 [-]
	 SCS Same-Spin Energy      =      -0.1731786535863914 [Eh]
	 SCS Opposite-Spin Energy  =      -2.0719791955779443 [Eh]
	 SCS Correlation Energy    =      -2.2451578491643356 [Eh]
	 SCS Total Energy          =    -466.1385122813396151 [Eh]
	-----------------------------------------------------------

  Dipole Moment: [D]
     X:    -0.5647      Y:    -0.2063      Z:     0.0360     Total:     0.6023

*** Psi4 exiting successfully. Buy a developer a beer!
