                               Psi4 1.4a3.dev225

  ==> Input File <==

--------------------------------------------------------------------------
#psi4
#
memory 32 gb

molecule  {
0 1
  C       -0.4426020    -0.8338200     0.2172010
  C       -2.7550300    -0.2335230    -0.2686280
  C       -1.2436673    -0.2633826    -0.9757296
  C       -1.1456910    -0.3766540     1.5340440
  C       -2.4139240     0.3715680     1.0951880
  C        0.9762580    -0.3476150     0.0696660
  C       -3.7696470     0.5602740    -1.0788290
  C        1.2785260     1.0190760     0.1766520
  C        2.0223850    -1.2394820    -0.1958260
  C        2.5868840     1.4777510     0.0263980
  C        3.3346800    -0.7855870    -0.3490730
  C        3.6209360     0.5756970    -0.2390260
  H       -0.4241810    -1.9311060     0.1924250
  H       -3.1414670    -1.2511910    -0.1070860
  H       -1.0573430     0.6588960    -1.2471640
  H       -1.3450850    -0.9967850    -1.7909970
  H       -0.4862050     0.2392810     2.1528250
  H       -1.4122900    -1.2543580     2.1330320
  H       -3.2323950     0.2935880     1.8197160
  H       -2.2008590     1.4410770     0.9595580
  H       -3.4037750     1.5784440    -1.2516650
  H       -3.9506210     0.0965540    -2.0538340
  H       -4.7289130     0.6299820    -0.5557020
  H        0.4812350     1.7322070     0.3831320
  H        1.8065840    -2.3037040    -0.2799060
  H        2.8010350     2.5405970     0.1152150
  H        4.1326410    -1.4960120    -0.5534930
  H        4.6413930     0.9324010    -0.3562540
units angstrom
no_reorient  #important for SAPT in psi4, default
symmetry c1  #important for SAPT in psi4, default
}

set PROPERTIES_ORIGIN ["COM"]
properties('MP2/aug-cc-pvtz', properties = ['dipole'])
--------------------------------------------------------------------------

    Molecular point group: c1
  Charge       = 0
  Multiplicity = 1
  Basis Set: AUG-CC-PVTZ
    Blend: AUG-CC-PVTZ
  Basis Set: (AUG-CC-PVTZ AUX)
    Blend: AUG-CC-PVTZ-JKFIT

    Orbital Energies [Eh]
    ---------------------

    Doubly Occupied:

       1A    -11.235395     2A    -11.233327     3A    -11.232304
       4A    -11.230601     5A    -11.227473     6A    -11.227298
       7A    -11.226524     8A    -11.226433     9A    -11.217459
      10A    -11.214722    11A    -11.212887    12A    -11.210495
      13A     -1.154591    14A     -1.116506    15A     -1.037382
      16A     -1.007694    17A     -0.986211    18A     -0.956150
      19A     -0.890058    20A     -0.827316    21A     -0.815404
      22A     -0.772461    23A     -0.753877    24A     -0.689123
      25A     -0.656240    26A     -0.633317    27A     -0.619949
      28A     -0.603377    29A     -0.592813    30A     -0.583572
      31A     -0.575994    32A     -0.556184    33A     -0.536669
      34A     -0.514250    35A     -0.510335    36A     -0.492278
      37A     -0.475788    38A     -0.469111    39A     -0.461687
      40A     -0.457748    41A     -0.449706    42A     -0.411050
      43A     -0.332011    44A     -0.315643

  @DF-RHF Final Energy:  -463.86961517277081

   => Energetics <=

    Nuclear Repulsion Energy =            675.2894485769552375
    One-Electron Energy =               -1966.4193035095424875
    Two-Electron Energy =                 827.2602397598163861
    Total Energy =                       -463.8696151727708639
  Basis Set: (AUG-CC-PVTZ AUX)
    Blend: AUG-CC-PVTZ-RI
    Molecular point group: c1

    Geometry (in Angstrom), charge = 0, multiplicity = 1:

       Center              X                  Y                   Z               Mass
    ------------   -----------------  -----------------  -----------------  -----------------
         C           -0.523656700084    -0.833873830190     0.219069498916    12.000000000000
         C           -2.836084700084    -0.233576830190    -0.266759501084    12.000000000000
         C           -1.324722000084    -0.263436430190    -0.973861101084    12.000000000000
         C           -1.226745700084    -0.376707830190     1.535912498916    12.000000000000
         C           -2.494978700084     0.371514169810     1.097056498916    12.000000000000
         C            0.895203299916    -0.347668830190     0.071534498916    12.000000000000
         C           -3.850701700084     0.560220169810    -1.076960501084    12.000000000000
         C            1.197471299916     1.019022169810     0.178520498916    12.000000000000
         C            1.941330299916    -1.239535830190    -0.193957501084    12.000000000000
         C            2.505829299916     1.477697169810     0.028266498916    12.000000000000
         C            3.253625299916    -0.785640830190    -0.347204501084    12.000000000000
         C            3.539881299916     0.575643169810    -0.237157501084    12.000000000000
         H           -0.505235700084    -1.931159830190     0.194293498916     1.007825032230
         H           -3.222521700084    -1.251244830190    -0.105217501084     1.007825032230
         H           -1.138397700084     0.658842169810    -1.245295501084     1.007825032230
         H           -1.426139700084    -0.996838830190    -1.789128501084     1.007825032230
         H           -0.567259700084     0.239227169810     2.154693498916     1.007825032230
         H           -1.493344700084    -1.254411830190     2.134900498916     1.007825032230
         H           -3.313449700084     0.293534169810     1.821584498916     1.007825032230
         H           -2.281913700084     1.441023169810     0.961426498916     1.007825032230
         H           -3.484829700084     1.578390169810    -1.249796501084     1.007825032230
         H           -4.031675700084     0.096500169810    -2.051965501084     1.007825032230
         H           -4.809967700084     0.629928169810    -0.553833501084     1.007825032230
         H            0.400180299916     1.732153169810     0.385000498916     1.007825032230
         H            1.725529299916    -2.303757830190    -0.278037501084     1.007825032230
         H            2.719980299916     2.540543169810     0.117083498916     1.007825032230
         H            4.051586299916    -1.496065830190    -0.551624501084     1.007825032230
         H            4.560338299916     0.932347169810    -0.354385501084     1.007825032230

  Basis Set: AUG-CC-PVTZ
    Blend: AUG-CC-PVTZ
  Basis Set: (AUG-CC-PVTZ AUX)
    Blend: AUG-CC-PVTZ-JKFIT
	 Reference Energy          =    -463.8696151727708070 [Eh]
	 Singles Energy            =      -0.0000000000000000 [Eh]
	 Same-Spin Energy          =      -0.5196165667570537 [Eh]
	 Opposite-Spin Energy      =      -1.7277838413879192 [Eh]
	 Correlation Energy        =      -2.2474004081449728 [Eh]
	 Total Energy              =    -466.1170155809157905 [Eh]

	 ================> DF-SCS-MP2 Energies <==================
	-----------------------------------------------------------
	 SCS Same-Spin Scale       =       0.3333333333333333 [-]
	 SCS Opposite-Spin Scale   =       1.2000000000000000 [-]
	 SCS Same-Spin Energy      =      -0.1732055222523512 [Eh]
	 SCS Opposite-Spin Energy  =      -2.0733406096655029 [Eh]
	 SCS Correlation Energy    =      -2.2465461319178543 [Eh]
	 SCS Total Energy          =    -466.1161613046886600 [Eh]
	-----------------------------------------------------------

  Dipole Moment: [D]
     X:    -0.6593      Y:    -0.2124      Z:     0.0496     Total:     0.6944

*** Psi4 exiting successfully. Buy a developer a beer!
