                               Psi4 1.4a3.dev225

  ==> Input File <==

--------------------------------------------------------------------------
#psi4
#
memory 32 gb

molecule  {
0 1
  C       -0.4426020    -0.8338200     0.2172010
  C       -2.7550300    -0.2335230    -0.2686280
  C       -1.3727340    -0.3393290    -0.9144000
  C       -1.1456910    -0.3766540     1.5340440
  C       -2.4139240     0.3715680     1.0951880
  C        0.9762580    -0.3476150     0.0696660
  C       -3.7696470     0.5602740    -1.0788290
  C        1.2785260     1.0190760     0.1766520
  C        2.0223850    -1.2394820    -0.1958260
  C        2.5868840     1.4777510     0.0263980
  C        3.3346800    -0.7855870    -0.3490730
  C        3.6209360     0.5756970    -0.2390260
  H       -0.4241810    -1.9311060     0.1924250
  H       -3.1414670    -1.2511910    -0.1070860
  H       -1.0573430     0.6588960    -1.2471640
  H       -1.3450850    -0.9967850    -1.7909970
  H       -0.4862050     0.2392810     2.1528250
  H       -1.4122900    -1.2543580     2.1330320
  H       -3.2323950     0.2935880     1.8197160
  H       -2.2008590     1.4410770     0.9595580
  H       -3.4037750     1.5784440    -1.2516650
  H       -3.9506210     0.0965540    -2.0538340
  H       -4.7289130     0.6299820    -0.5557020
  H        0.4958718     1.7191152     0.3793414
  H        1.8065840    -2.3037040    -0.2799060
  H        2.8010350     2.5405970     0.1152150
  H        4.1326410    -1.4960120    -0.5534930
  H        4.6413930     0.9324010    -0.3562540
units angstrom
no_reorient  #important for SAPT in psi4, default
symmetry c1  #important for SAPT in psi4, default
}

set PROPERTIES_ORIGIN ["COM"]
properties('MP2/aug-cc-pvtz', properties = ['dipole'])
--------------------------------------------------------------------------

    Molecular point group: c1
  Charge       = 0
  Multiplicity = 1
  Basis Set: AUG-CC-PVTZ
    Blend: AUG-CC-PVTZ
  Basis Set: (AUG-CC-PVTZ AUX)
    Blend: AUG-CC-PVTZ-JKFIT

    Orbital Energies [Eh]
    ---------------------

    Doubly Occupied:

       1A    -11.236261     2A    -11.233360     3A    -11.232744
       4A    -11.228755     5A    -11.228358     6A    -11.227952
       7A    -11.226048     8A    -11.221205     9A    -11.216747
      10A    -11.214926    11A    -11.214794    12A    -11.211616
      13A     -1.156027    14A     -1.124809    15A     -1.039464
      16A     -1.008883    17A     -0.988531    18A     -0.953854
      19A     -0.892726    20A     -0.827401    21A     -0.816104
      22A     -0.763626    23A     -0.757505    24A     -0.690780
      25A     -0.660563    26A     -0.636206    27A     -0.621816
      28A     -0.606855    29A     -0.586268    30A     -0.580611
      31A     -0.573617    32A     -0.556224    33A     -0.528711
      34A     -0.511290    35A     -0.509935    36A     -0.490362
      37A     -0.475292    38A     -0.463409    39A     -0.461386
      40A     -0.453752    41A     -0.450332    42A     -0.443890
      43A     -0.332217    44A     -0.318664

  @DF-RHF Final Energy:  -463.89458657998762

   => Energetics <=

    Nuclear Repulsion Energy =            676.0308239147187805
    One-Electron Energy =               -1967.9030662272537029
    Two-Electron Energy =                 827.9776557325474187
    Total Energy =                       -463.8945865799876174
  Basis Set: (AUG-CC-PVTZ AUX)
    Blend: AUG-CC-PVTZ-RI
    Molecular point group: c1

    Geometry (in Angstrom), charge = 0, multiplicity = 1:

       Center              X                  Y                   Z               Mass
    ------------   -----------------  -----------------  -----------------  -----------------
         C           -0.514076390042    -0.828099904282     0.214497233363    12.000000000000
         C           -2.826504390042    -0.227802904282    -0.271331766637    12.000000000000
         C           -1.444208390042    -0.333608904282    -0.917103766637    12.000000000000
         C           -1.217165390042    -0.370933904282     1.531340233363    12.000000000000
         C           -2.485398390042     0.377288095718     1.092484233363    12.000000000000
         C            0.904783609958    -0.341894904282     0.066962233363    12.000000000000
         C           -3.841121390042     0.565994095718    -1.081532766637    12.000000000000
         C            1.207051609958     1.024796095718     0.173948233363    12.000000000000
         C            1.950910609958    -1.233761904282    -0.198529766637    12.000000000000
         C            2.515409609958     1.483471095718     0.023694233363    12.000000000000
         C            3.263205609958    -0.779866904282    -0.351776766637    12.000000000000
         C            3.549461609958     0.581417095718    -0.241729766637    12.000000000000
         H           -0.495655390042    -1.925385904282     0.189721233363     1.007825032230
         H           -3.212941390042    -1.245470904282    -0.109789766637     1.007825032230
         H           -1.128817390042     0.664616095718    -1.249867766637     1.007825032230
         H           -1.416559390042    -0.991064904282    -1.793700766637     1.007825032230
         H           -0.557679390042     0.245001095718     2.150121233363     1.007825032230
         H           -1.483764390042    -1.248637904282     2.130328233363     1.007825032230
         H           -3.303869390042     0.299308095718     1.817012233363     1.007825032230
         H           -2.272333390042     1.446797095718     0.956854233363     1.007825032230
         H           -3.475249390042     1.584164095718    -1.254368766637     1.007825032230
         H           -4.022095390042     0.102274095718    -2.056537766637     1.007825032230
         H           -4.800387390042     0.635702095718    -0.558405766637     1.007825032230
         H            0.424397409958     1.724835295718     0.376637633363     1.007825032230
         H            1.735109609958    -2.297983904282    -0.282609766637     1.007825032230
         H            2.729560609958     2.546317095718     0.112511233363     1.007825032230
         H            4.061166609958    -1.490291904282    -0.556196766637     1.007825032230
         H            4.569918609958     0.938121095718    -0.358957766637     1.007825032230

  Basis Set: AUG-CC-PVTZ
    Blend: AUG-CC-PVTZ
  Basis Set: (AUG-CC-PVTZ AUX)
    Blend: AUG-CC-PVTZ-JKFIT
	 Reference Energy          =    -463.8945865799876174 [Eh]
	 Singles Energy            =      -0.0000000000000000 [Eh]
	 Same-Spin Energy          =      -0.5194461236985093 [Eh]
	 Opposite-Spin Energy      =      -1.7262821942315378 [Eh]
	 Correlation Energy        =      -2.2457283179300473 [Eh]
	 Total Energy              =    -466.1403148979176763 [Eh]

	 ================> DF-SCS-MP2 Energies <==================
	-----------------------------------------------------------
	 SCS Same-Spin Scale       =       0.3333333333333333 [-]
	 SCS Opposite-Spin Scale   =       1.2000000000000000 [-]
	 SCS Same-Spin Energy      =      -0.1731487078995031 [Eh]
	 SCS Opposite-Spin Energy  =      -2.0715386330778451 [Eh]
	 SCS Correlation Energy    =      -2.2446873409773480 [Eh]
	 SCS Total Energy          =    -466.1392739209649676 [Eh]
	-----------------------------------------------------------

  Dipole Moment: [D]
     X:    -0.5768      Y:    -0.1982      Z:     0.0388     Total:     0.6111

*** Psi4 exiting successfully. Buy a developer a beer!
