                               Psi4 1.4a3.dev225

  ==> Input File <==

--------------------------------------------------------------------------
#psi4
#
memory 32 gb

molecule  {
0 1
  C       -0.4377101    -0.7814980     0.2027759
  C       -2.7550300    -0.2335230    -0.2686280
  C       -1.3727340    -0.3393290    -0.9144000
  C       -1.1456910    -0.3766540     1.5340440
  C       -2.4139240     0.3715680     1.0951880
  C        0.9762580    -0.3476150     0.0696660
  C       -3.7696470     0.5602740    -1.0788290
  C        1.2785260     1.0190760     0.1766520
  C        2.0223850    -1.2394820    -0.1958260
  C        2.5868840     1.4777510     0.0263980
  C        3.3346800    -0.7855870    -0.3490730
  C        3.6209360     0.5756970    -0.2390260
  H       -0.4241810    -1.9311060     0.1924250
  H       -3.1414670    -1.2511910    -0.1070860
  H       -1.0573430     0.6588960    -1.2471640
  H       -1.3450850    -0.9967850    -1.7909970
  H       -0.4862050     0.2392810     2.1528250
  H       -1.4122900    -1.2543580     2.1330320
  H       -3.2323950     0.2935880     1.8197160
  H       -2.2008590     1.4410770     0.9595580
  H       -3.4037750     1.5784440    -1.2516650
  H       -3.9506210     0.0965540    -2.0538340
  H       -4.7289130     0.6299820    -0.5557020
  H        0.4812350     1.7322070     0.3831320
  H        1.8065840    -2.3037040    -0.2799060
  H        2.8010350     2.5405970     0.1152150
  H        4.1326410    -1.4960120    -0.5534930
  H        4.6413930     0.9324010    -0.3562540
units angstrom
no_reorient  #important for SAPT in psi4, default
symmetry c1  #important for SAPT in psi4, default
}

set PROPERTIES_ORIGIN ["COM"]
properties('MP2/aug-cc-pvtz', properties = ['dipole'])
--------------------------------------------------------------------------

    Molecular point group: c1
  Charge       = 0
  Multiplicity = 1
  Basis Set: AUG-CC-PVTZ
    Blend: AUG-CC-PVTZ
  Basis Set: (AUG-CC-PVTZ AUX)
    Blend: AUG-CC-PVTZ-JKFIT

    Orbital Energies [Eh]
    ---------------------

    Doubly Occupied:

       1A    -11.235712     2A    -11.233638     3A    -11.233342
       4A    -11.230066     5A    -11.229593     6A    -11.229198
       7A    -11.228359     8A    -11.221539     9A    -11.217149
      10A    -11.214918    11A    -11.213995    12A    -11.211800
      13A     -1.158157    14A     -1.126171    15A     -1.041377
      16A     -1.008875    17A     -0.988755    18A     -0.955933
      19A     -0.892185    20A     -0.826321    21A     -0.818312
      22A     -0.764478    23A     -0.754137    24A     -0.689569
      25A     -0.661069    26A     -0.637348    27A     -0.622209
      28A     -0.606905    29A     -0.585430    30A     -0.580490
      31A     -0.571554    32A     -0.557100    33A     -0.528400
      34A     -0.512202    35A     -0.510377    36A     -0.489929
      37A     -0.478683    38A     -0.464624    39A     -0.464213
      40A     -0.454133    41A     -0.446010    42A     -0.437321
      43A     -0.332671    44A     -0.319771

  @DF-RHF Final Energy:  -463.89048236539571

   => Energetics <=

    Nuclear Repulsion Energy =            676.5637135471406509
    One-Electron Energy =               -1968.9403610332697099
    Two-Electron Energy =                 828.4861651207334035
    Total Energy =                       -463.8904823653956555
  Basis Set: (AUG-CC-PVTZ AUX)
    Blend: AUG-CC-PVTZ-RI
    Molecular point group: c1

    Geometry (in Angstrom), charge = 0, multiplicity = 1:

       Center              X                  Y                   Z               Mass
    ------------   -----------------  -----------------  -----------------  -----------------
         C           -0.509458971925    -0.779781385568     0.201129311983    12.000000000000
         C           -2.826778871925    -0.231806385568    -0.270274588017    12.000000000000
         C           -1.444482871925    -0.337612385568    -0.916046588017    12.000000000000
         C           -1.217439871925    -0.374937385568     1.532397411983    12.000000000000
         C           -2.485672871925     0.373284614432     1.093541411983    12.000000000000
         C            0.904509128075    -0.345898385568     0.068019411983    12.000000000000
         C           -3.841395871925     0.561990614432    -1.080475588017    12.000000000000
         C            1.206777128075     1.020792614432     0.175005411983    12.000000000000
         C            1.950636128075    -1.237765385568    -0.197472588017    12.000000000000
         C            2.515135128075     1.479467614432     0.024751411983    12.000000000000
         C            3.262931128075    -0.783870385568    -0.350719588017    12.000000000000
         C            3.549187128075     0.577413614432    -0.240672588017    12.000000000000
         H           -0.495929871925    -1.929389385568     0.190778411983     1.007825032230
         H           -3.213215871925    -1.249474385568    -0.108732588017     1.007825032230
         H           -1.129091871925     0.660612614432    -1.248810588017     1.007825032230
         H           -1.416833871925    -0.995068385568    -1.792643588017     1.007825032230
         H           -0.557953871925     0.240997614432     2.151178411983     1.007825032230
         H           -1.484038871925    -1.252641385568     2.131385411983     1.007825032230
         H           -3.304143871925     0.295304614432     1.818069411983     1.007825032230
         H           -2.272607871925     1.442793614432     0.957911411983     1.007825032230
         H           -3.475523871925     1.580160614432    -1.253311588017     1.007825032230
         H           -4.022369871925     0.098270614432    -2.055480588017     1.007825032230
         H           -4.800661871925     0.631698614432    -0.557348588017     1.007825032230
         H            0.409486128075     1.733923614432     0.381485411983     1.007825032230
         H            1.734835128075    -2.301987385568    -0.281552588017     1.007825032230
         H            2.729286128075     2.542313614432     0.113568411983     1.007825032230
         H            4.060892128075    -1.494295385568    -0.555139588017     1.007825032230
         H            4.569644128075     0.934117614432    -0.357900588017     1.007825032230

  Basis Set: AUG-CC-PVTZ
    Blend: AUG-CC-PVTZ
  Basis Set: (AUG-CC-PVTZ AUX)
    Blend: AUG-CC-PVTZ-JKFIT
	 Reference Energy          =    -463.8904823653957123 [Eh]
	 Singles Energy            =      -0.0000000000000000 [Eh]
	 Same-Spin Energy          =      -0.5199759072933299 [Eh]
	 Opposite-Spin Energy      =      -1.7271453703005211 [Eh]
	 Correlation Energy        =      -2.2471212775938509 [Eh]
	 Total Energy              =    -466.1376036429895748 [Eh]

	 ================> DF-SCS-MP2 Energies <==================
	-----------------------------------------------------------
	 SCS Same-Spin Scale       =       0.3333333333333333 [-]
	 SCS Opposite-Spin Scale   =       1.2000000000000000 [-]
	 SCS Same-Spin Energy      =      -0.1733253024311099 [Eh]
	 SCS Opposite-Spin Energy  =      -2.0725744443606251 [Eh]
	 SCS Correlation Energy    =      -2.2458997467917352 [Eh]
	 SCS Total Energy          =    -466.1363821121874480 [Eh]
	-----------------------------------------------------------

  Dipole Moment: [D]
     X:    -0.5438      Y:    -0.1563      Z:     0.0326     Total:     0.5667

*** Psi4 exiting successfully. Buy a developer a beer!
