                               Psi4 1.4a3.dev225

  ==> Input File <==

--------------------------------------------------------------------------
#psi4
#
memory 32 gb

molecule  {
0 1
  C       -0.3273082    -0.9003494     0.3119953
  C       -2.7550300    -0.2335230    -0.2686280
  C       -1.3727340    -0.3393290    -0.9144000
  C       -1.1456910    -0.3766540     1.5340440
  C       -2.4139240     0.3715680     1.0951880
  C        0.9762580    -0.3476150     0.0696660
  C       -3.7696470     0.5602740    -1.0788290
  C        1.2785260     1.0190760     0.1766520
  C        2.0223850    -1.2394820    -0.1958260
  C        2.5868840     1.4777510     0.0263980
  C        3.3346800    -0.7855870    -0.3490730
  C        3.6209360     0.5756970    -0.2390260
  H       -0.4241810    -1.9311060     0.1924250
  H       -3.1414670    -1.2511910    -0.1070860
  H       -1.0573430     0.6588960    -1.2471640
  H       -1.3450850    -0.9967850    -1.7909970
  H       -0.4862050     0.2392810     2.1528250
  H       -1.4122900    -1.2543580     2.1330320
  H       -3.2323950     0.2935880     1.8197160
  H       -2.2008590     1.4410770     0.9595580
  H       -3.4037750     1.5784440    -1.2516650
  H       -3.9506210     0.0965540    -2.0538340
  H       -4.7289130     0.6299820    -0.5557020
  H        0.4812350     1.7322070     0.3831320
  H        1.8065840    -2.3037040    -0.2799060
  H        2.8010350     2.5405970     0.1152150
  H        4.1326410    -1.4960120    -0.5534930
  H        4.6413930     0.9324010    -0.3562540
units angstrom
no_reorient  #important for SAPT in psi4, default
symmetry c1  #important for SAPT in psi4, default
}

set PROPERTIES_ORIGIN ["COM"]
properties('MP2/aug-cc-pvtz', properties = ['dipole'])
--------------------------------------------------------------------------

    Molecular point group: c1
  Charge       = 0
  Multiplicity = 1
  Basis Set: AUG-CC-PVTZ
    Blend: AUG-CC-PVTZ
  Basis Set: (AUG-CC-PVTZ AUX)
    Blend: AUG-CC-PVTZ-JKFIT

    Orbital Energies [Eh]
    ---------------------

    Doubly Occupied:

       1A    -11.234799     2A    -11.234171     3A    -11.232364
       4A    -11.229090     5A    -11.228065     6A    -11.227857
       7A    -11.226442     8A    -11.221580     9A    -11.220786
      10A    -11.218642    11A    -11.216511    12A    -11.212225
      13A     -1.157067    14A     -1.117199    15A     -1.047113
      16A     -1.008683    17A     -0.988909    18A     -0.940603
      19A     -0.897353    20A     -0.832183    21A     -0.818710
      22A     -0.763419    23A     -0.758652    24A     -0.691141
      25A     -0.658061    26A     -0.638108    27A     -0.621227
      28A     -0.604956    29A     -0.587188    30A     -0.579503
      31A     -0.574811    32A     -0.557531    33A     -0.530273
      34A     -0.516906    35A     -0.506975    36A     -0.492998
      37A     -0.476145    38A     -0.468595    39A     -0.463307
      40A     -0.456481    41A     -0.447896    42A     -0.424821
      43A     -0.332445    44A     -0.309934

  @DF-RHF Final Energy:  -463.87308012336030

   => Energetics <=

    Nuclear Repulsion Energy =            675.0680206771623943
    One-Electron Energy =               -1965.9387496824833761
    Two-Electron Energy =                 826.9976488819606857
    Total Energy =                       -463.8730801233602961
  Basis Set: (AUG-CC-PVTZ AUX)
    Blend: AUG-CC-PVTZ-RI
    Molecular point group: c1

    Geometry (in Angstrom), charge = 0, multiplicity = 1:

       Center              X                  Y                   Z               Mass
    ------------   -----------------  -----------------  -----------------  -----------------
         C           -0.407330740253    -0.889725900235     0.302163661811    12.000000000000
         C           -2.835052540253    -0.222899500235    -0.278459638189    12.000000000000
         C           -1.452756540253    -0.328705500235    -0.924231638189    12.000000000000
         C           -1.225713540253    -0.366030500235     1.524212361811    12.000000000000
         C           -2.493946540253     0.382191499765     1.085356361811    12.000000000000
         C            0.896235459747    -0.336991500235     0.059834361811    12.000000000000
         C           -3.849669540253     0.570897499765    -1.088660638189    12.000000000000
         C            1.198503459747     1.029699499765     0.166820361811    12.000000000000
         C            1.942362459747    -1.228858500235    -0.205657638189    12.000000000000
         C            2.506861459747     1.488374499765     0.016566361811    12.000000000000
         C            3.254657459747    -0.774963500235    -0.358904638189    12.000000000000
         C            3.540913459747     0.586320499765    -0.248857638189    12.000000000000
         H           -0.504203540253    -1.920482500235     0.182593361811     1.007825032230
         H           -3.221489540253    -1.240567500235    -0.116917638189     1.007825032230
         H           -1.137365540253     0.669519499765    -1.256995638189     1.007825032230
         H           -1.425107540253    -0.986161500235    -1.800828638189     1.007825032230
         H           -0.566227540253     0.249904499765     2.142993361811     1.007825032230
         H           -1.492312540253    -1.243734500235     2.123200361811     1.007825032230
         H           -3.312417540253     0.304211499765     1.809884361811     1.007825032230
         H           -2.280881540253     1.451700499765     0.949726361811     1.007825032230
         H           -3.483797540253     1.589067499765    -1.261496638189     1.007825032230
         H           -4.030643540253     0.107177499765    -2.063665638189     1.007825032230
         H           -4.808935540253     0.640605499765    -0.565533638189     1.007825032230
         H            0.401212459747     1.742830499765     0.373300361811     1.007825032230
         H            1.726561459747    -2.293080500235    -0.289737638189     1.007825032230
         H            2.721012459747     2.551220499765     0.105383361811     1.007825032230
         H            4.052618459747    -1.485388500235    -0.563324638189     1.007825032230
         H            4.561370459747     0.943024499765    -0.366085638189     1.007825032230

  Basis Set: AUG-CC-PVTZ
    Blend: AUG-CC-PVTZ
  Basis Set: (AUG-CC-PVTZ AUX)
    Blend: AUG-CC-PVTZ-JKFIT
	 Reference Energy          =    -463.8730801233602961 [Eh]
	 Singles Energy            =      -0.0000000000000000 [Eh]
	 Same-Spin Energy          =      -0.5205623567286684 [Eh]
	 Opposite-Spin Energy      =      -1.7285240570909202 [Eh]
	 Correlation Energy        =      -2.2490864138195885 [Eh]
	 Total Energy              =    -466.1221665371799077 [Eh]

	 ================> DF-SCS-MP2 Energies <==================
	-----------------------------------------------------------
	 SCS Same-Spin Scale       =       0.3333333333333333 [-]
	 SCS Opposite-Spin Scale   =       1.2000000000000000 [-]
	 SCS Same-Spin Energy      =      -0.1735207855762228 [Eh]
	 SCS Opposite-Spin Energy  =      -2.0742288685091039 [Eh]
	 SCS Correlation Energy    =      -2.2477496540853266 [Eh]
	 SCS Total Energy          =    -466.1208297774456355 [Eh]
	-----------------------------------------------------------

  Dipole Moment: [D]
     X:    -0.6699      Y:    -0.2408      Z:     0.0548     Total:     0.7140

*** Psi4 exiting successfully. Buy a developer a beer!
