                               Psi4 1.4a3.dev225

  ==> Input File <==

--------------------------------------------------------------------------
#psi4
#
memory 32 gb

molecule  {
0 1
  C       -0.4426020    -0.8338200     0.2172010
  C       -2.7550300    -0.2335230    -0.2686280
  C       -1.3727340    -0.3393290    -0.9144000
  C       -1.1456910    -0.3766540     1.5340440
  C       -2.4139240     0.3715680     1.0951880
  C        0.9762580    -0.3476150     0.0696660
  C       -3.7696470     0.5602740    -1.0788290
  C        1.2785260     1.0190760     0.1766520
  C        2.0223850    -1.2394820    -0.1958260
  C        2.5868840     1.4777510     0.0263980
  C        3.3346800    -0.7855870    -0.3490730
  C        3.6209360     0.5756970    -0.2390260
  H       -0.4241810    -1.9311060     0.1924250
  H       -3.1414670    -1.2511910    -0.1070860
  H       -1.0573430     0.6588960    -1.2471640
  H       -1.3450850    -0.9967850    -1.7909970
  H       -0.4862050     0.2392810     2.1528250
  H       -1.4122900    -1.2543580     2.1330320
  H       -3.2323950     0.2935880     1.8197160
  H       -2.2008590     1.4410770     0.9595580
  H       -3.4037750     1.5784440    -1.2516650
  H       -3.9506210     0.0965540    -2.0538340
  H       -4.7289130     0.6299820    -0.5557020
  H        0.4812350     1.7322070     0.3831320
  H        1.8065840    -2.3037040    -0.2799060
  H        2.7616631     2.3451917     0.0988859
  H        4.1326410    -1.4960120    -0.5534930
  H        4.6413930     0.9324010    -0.3562540
units angstrom
no_reorient  #important for SAPT in psi4, default
symmetry c1  #important for SAPT in psi4, default
}

set PROPERTIES_ORIGIN ["COM"]
properties('MP2/aug-cc-pvtz', properties = ['dipole'])
--------------------------------------------------------------------------

    Molecular point group: c1
  Charge       = 0
  Multiplicity = 1
  Basis Set: AUG-CC-PVTZ
    Blend: AUG-CC-PVTZ
  Basis Set: (AUG-CC-PVTZ AUX)
    Blend: AUG-CC-PVTZ-JKFIT

    Orbital Energies [Eh]
    ---------------------

    Doubly Occupied:

       1A    -11.235439     2A    -11.231767     3A    -11.227835
       4A    -11.227790     5A    -11.227617     6A    -11.227283
       7A    -11.220953     8A    -11.216400     9A    -11.214684
      10A    -11.214439    11A    -11.211443    12A    -11.209189
      13A     -1.156325    14A     -1.125350    15A     -1.041250
      16A     -1.015786    17A     -0.988182    18A     -0.953613
      19A     -0.892333    20A     -0.839421    21A     -0.821332
      22A     -0.764157    23A     -0.760344    24A     -0.697083
      25A     -0.660838    26A     -0.649941    27A     -0.621343
      28A     -0.611759    29A     -0.588266    30A     -0.582663
      31A     -0.574478    32A     -0.555792    33A     -0.528313
      34A     -0.510391    35A     -0.509461    36A     -0.495772
      37A     -0.475179    38A     -0.463013    39A     -0.460766
      40A     -0.453879    41A     -0.450297    42A     -0.443566
      43A     -0.331785    44A     -0.317958

  @DF-RHF Final Energy:  -463.85983605464196

   => Energetics <=

    Nuclear Repulsion Energy =            677.1221935809469414
    One-Electron Energy =               -1969.9531071649089427
    Two-Electron Energy =                 828.9710775293200413
    Total Energy =                       -463.8598360546419599
  Basis Set: (AUG-CC-PVTZ AUX)
    Blend: AUG-CC-PVTZ-RI
    Molecular point group: c1

    Geometry (in Angstrom), charge = 0, multiplicity = 1:

       Center              X                  Y                   Z               Mass
    ------------   -----------------  -----------------  -----------------  -----------------
         C           -0.513736460289    -0.826952426505     0.214576150449    12.000000000000
         C           -2.826164460289    -0.226655426505    -0.271252849551    12.000000000000
         C           -1.443868460289    -0.332461426505    -0.917024849551    12.000000000000
         C           -1.216825460289    -0.369786426505     1.531419150449    12.000000000000
         C           -2.485058460289     0.378435573495     1.092563150449    12.000000000000
         C            0.905123539711    -0.340747426505     0.067041150449    12.000000000000
         C           -3.840781460289     0.567141573495    -1.081453849551    12.000000000000
         C            1.207391539711     1.025943573495     0.174027150449    12.000000000000
         C            1.951250539711    -1.232614426505    -0.198450849551    12.000000000000
         C            2.515749539711     1.484618573495     0.023773150449    12.000000000000
         C            3.263545539711    -0.778719426505    -0.351697849551    12.000000000000
         C            3.549801539711     0.582564573495    -0.241650849551    12.000000000000
         H           -0.495315460289    -1.924238426505     0.189800150449     1.007825032230
         H           -3.212601460289    -1.244323426505    -0.109710849551     1.007825032230
         H           -1.128477460289     0.665763573495    -1.249788849551     1.007825032230
         H           -1.416219460289    -0.989917426505    -1.793621849551     1.007825032230
         H           -0.557339460289     0.246148573495     2.150200150449     1.007825032230
         H           -1.483424460289    -1.247490426505     2.130407150449     1.007825032230
         H           -3.303529460289     0.300455573495     1.817091150449     1.007825032230
         H           -2.271993460289     1.447944573495     0.956933150449     1.007825032230
         H           -3.474909460289     1.585311573495    -1.254289849551     1.007825032230
         H           -4.021755460289     0.103421573495    -2.056458849551     1.007825032230
         H           -4.800047460289     0.636849573495    -0.558326849551     1.007825032230
         H            0.410100539711     1.739074573495     0.380507150449     1.007825032230
         H            1.735449539711    -2.296836426505    -0.282530849551     1.007825032230
         H            2.690528639711     2.352059273495     0.096261050449     1.007825032230
         H            4.061506539711    -1.489144426505    -0.556117849551     1.007825032230
         H            4.570258539711     0.939268573495    -0.358878849551     1.007825032230

  Basis Set: AUG-CC-PVTZ
    Blend: AUG-CC-PVTZ
  Basis Set: (AUG-CC-PVTZ AUX)
    Blend: AUG-CC-PVTZ-JKFIT
	 Reference Energy          =    -463.8598360546419599 [Eh]
	 Singles Energy            =      -0.0000000000000000 [Eh]
	 Same-Spin Energy          =      -0.5193502112934066 [Eh]
	 Opposite-Spin Energy      =      -1.7258783541995846 [Eh]
	 Correlation Energy        =      -2.2452285654929911 [Eh]
	 Total Energy              =    -466.1050646201349537 [Eh]

	 ================> DF-SCS-MP2 Energies <==================
	-----------------------------------------------------------
	 SCS Same-Spin Scale       =       0.3333333333333333 [-]
	 SCS Opposite-Spin Scale   =       1.2000000000000000 [-]
	 SCS Same-Spin Energy      =      -0.1731167370978022 [Eh]
	 SCS Opposite-Spin Energy  =      -2.0710540250395013 [Eh]
	 SCS Correlation Energy    =      -2.2441707621373035 [Eh]
	 SCS Total Energy          =    -466.1040068167792469 [Eh]
	-----------------------------------------------------------

  Dipole Moment: [D]
     X:    -0.5468      Y:    -0.1524      Z:     0.0407     Total:     0.5691

*** Psi4 exiting successfully. Buy a developer a beer!
