                               Psi4 1.4a3.dev225

  ==> Input File <==

--------------------------------------------------------------------------
#psi4
#
memory 32 gb

molecule  {
0 1
  C       -0.4426020    -0.8338200     0.2172010
  C       -2.7478919    -0.1854068    -0.2907150
  C       -1.3727340    -0.3393290    -0.9144000
  C       -1.1456910    -0.3766540     1.5340440
  C       -2.4139240     0.3715680     1.0951880
  C        0.9762580    -0.3476150     0.0696660
  C       -3.7696470     0.5602740    -1.0788290
  C        1.2785260     1.0190760     0.1766520
  C        2.0223850    -1.2394820    -0.1958260
  C        2.5868840     1.4777510     0.0263980
  C        3.3346800    -0.7855870    -0.3490730
  C        3.6209360     0.5756970    -0.2390260
  H       -0.4241810    -1.9311060     0.1924250
  H       -3.1414670    -1.2511910    -0.1070860
  H       -1.0573430     0.6588960    -1.2471640
  H       -1.3450850    -0.9967850    -1.7909970
  H       -0.4862050     0.2392810     2.1528250
  H       -1.4122900    -1.2543580     2.1330320
  H       -3.2323950     0.2935880     1.8197160
  H       -2.2008590     1.4410770     0.9595580
  H       -3.4037750     1.5784440    -1.2516650
  H       -3.9506210     0.0965540    -2.0538340
  H       -4.7289130     0.6299820    -0.5557020
  H        0.4812350     1.7322070     0.3831320
  H        1.8065840    -2.3037040    -0.2799060
  H        2.8010350     2.5405970     0.1152150
  H        4.1326410    -1.4960120    -0.5534930
  H        4.6413930     0.9324010    -0.3562540
units angstrom
no_reorient  #important for SAPT in psi4, default
symmetry c1  #important for SAPT in psi4, default
}

set PROPERTIES_ORIGIN ["COM"]
properties('MP2/aug-cc-pvtz', properties = ['dipole'])
--------------------------------------------------------------------------

    Molecular point group: c1
  Charge       = 0
  Multiplicity = 1
  Basis Set: AUG-CC-PVTZ
    Blend: AUG-CC-PVTZ
  Basis Set: (AUG-CC-PVTZ AUX)
    Blend: AUG-CC-PVTZ-JKFIT

    Orbital Energies [Eh]
    ---------------------

    Doubly Occupied:

       1A    -11.236824     2A    -11.233738     3A    -11.233023
       4A    -11.229200     5A    -11.229171     6A    -11.228648
       7A    -11.228412     8A    -11.223640     9A    -11.217354
      10A    -11.215348    11A    -11.214839    12A    -11.211400
      13A     -1.156480    14A     -1.126080    15A     -1.041746
      16A     -1.008669    17A     -0.991786    18A     -0.954847
      19A     -0.895018    20A     -0.826643    21A     -0.816674
      22A     -0.758504    23A     -0.755864    24A     -0.690439
      25A     -0.661157    26A     -0.635352    27A     -0.623550
      28A     -0.607512    29A     -0.586797    30A     -0.580319
      31A     -0.573969    32A     -0.558395    33A     -0.528461
      34A     -0.511828    35A     -0.510780    36A     -0.490238
      37A     -0.478554    38A     -0.467714    39A     -0.462129
      40A     -0.451126    41A     -0.446673    42A     -0.438212
      43A     -0.332507    44A     -0.319235

  @DF-RHF Final Energy:  -463.89082886630285

   => Energetics <=

    Nuclear Repulsion Energy =            676.2114383591934939
    One-Electron Energy =               -1968.2268226827277431
    Two-Electron Energy =                 828.1245554572315086
    Total Energy =                       -463.8908288663028543
  Basis Set: (AUG-CC-PVTZ AUX)
    Blend: AUG-CC-PVTZ-RI
    Molecular point group: c1

    Geometry (in Angstrom), charge = 0, multiplicity = 1:

       Center              X                  Y                   Z               Mass
    ------------   -----------------  -----------------  -----------------  -----------------
         C           -0.514519205204    -0.831788197204     0.216128605175    12.000000000000
         C           -2.819809105204    -0.183374997204    -0.291787394825    12.000000000000
         C           -1.444651205204    -0.337297197204    -0.915472394825    12.000000000000
         C           -1.217608205204    -0.374622197204     1.532971605175    12.000000000000
         C           -2.485841205204     0.373599802796     1.094115605175    12.000000000000
         C            0.904340794796    -0.345583197204     0.068593605175    12.000000000000
         C           -3.841564205204     0.562305802796    -1.079901394825    12.000000000000
         C            1.206608794796     1.021107802796     0.175579605175    12.000000000000
         C            1.950467794796    -1.237450197204    -0.196898394825    12.000000000000
         C            2.514966794796     1.479782802796     0.025325605175    12.000000000000
         C            3.262762794796    -0.783555197204    -0.350145394825    12.000000000000
         C            3.549018794796     0.577728802796    -0.240098394825    12.000000000000
         H           -0.496098205204    -1.929074197204     0.191352605175     1.007825032230
         H           -3.213384205204    -1.249159197204    -0.108158394825     1.007825032230
         H           -1.129260205204     0.660927802796    -1.248236394825     1.007825032230
         H           -1.417002205204    -0.994753197204    -1.792069394825     1.007825032230
         H           -0.558122205204     0.241312802796     2.151752605175     1.007825032230
         H           -1.484207205204    -1.252326197204     2.131959605175     1.007825032230
         H           -3.304312205204     0.295619802796     1.818643605175     1.007825032230
         H           -2.272776205204     1.443108802796     0.958485605175     1.007825032230
         H           -3.475692205204     1.580475802796    -1.252737394825     1.007825032230
         H           -4.022538205204     0.098585802796    -2.054906394825     1.007825032230
         H           -4.800830205204     0.632013802796    -0.556774394825     1.007825032230
         H            0.409317794796     1.734238802796     0.382059605175     1.007825032230
         H            1.734666794796    -2.301672197204    -0.280978394825     1.007825032230
         H            2.729117794796     2.542628802796     0.114142605175     1.007825032230
         H            4.060723794796    -1.493980197204    -0.554565394825     1.007825032230
         H            4.569475794796     0.934432802796    -0.357326394825     1.007825032230

  Basis Set: AUG-CC-PVTZ
    Blend: AUG-CC-PVTZ
  Basis Set: (AUG-CC-PVTZ AUX)
    Blend: AUG-CC-PVTZ-JKFIT
	 Reference Energy          =    -463.8908288663028543 [Eh]
	 Singles Energy            =      -0.0000000000000000 [Eh]
	 Same-Spin Energy          =      -0.5198230036990554 [Eh]
	 Opposite-Spin Energy      =      -1.7268751824917503 [Eh]
	 Correlation Energy        =      -2.2466981861908057 [Eh]
	 Total Energy              =    -466.1375270524936809 [Eh]

	 ================> DF-SCS-MP2 Energies <==================
	-----------------------------------------------------------
	 SCS Same-Spin Scale       =       0.3333333333333333 [-]
	 SCS Opposite-Spin Scale   =       1.2000000000000000 [-]
	 SCS Same-Spin Energy      =      -0.1732743345663518 [Eh]
	 SCS Opposite-Spin Energy  =      -2.0722502189901002 [Eh]
	 SCS Correlation Energy    =      -2.2455245535564519 [Eh]
	 SCS Total Energy          =    -466.1363534198592902 [Eh]
	-----------------------------------------------------------

  Dipole Moment: [D]
     X:    -0.5511      Y:    -0.1669      Z:     0.0240     Total:     0.5763

*** Psi4 exiting successfully. Buy a developer a beer!
