                               Psi4 1.4a3.dev225

  ==> Input File <==

--------------------------------------------------------------------------
#psi4
#
memory 32 gb

molecule  {
0 1
  C       -0.4426020    -0.8338200     0.2172010
  C       -2.7550300    -0.2335230    -0.2686280
  C       -1.3727340    -0.3393290    -0.9144000
  C       -1.1456910    -0.3766540     1.5340440
  C       -2.4139240     0.3715680     1.0951880
  C        0.9762580    -0.3476150     0.0696660
  C       -3.7696470     0.5602740    -1.0788290
  C        1.2785260     1.0190760     0.1766520
  C        2.0223850    -1.2394820    -0.1958260
  C        2.5868840     1.4777510     0.0263980
  C        3.3188993    -0.7400582    -0.3415996
  C        3.6209360     0.5756970    -0.2390260
  H       -0.4241810    -1.9311060     0.1924250
  H       -3.1414670    -1.2511910    -0.1070860
  H       -1.0573430     0.6588960    -1.2471640
  H       -1.3450850    -0.9967850    -1.7909970
  H       -0.4862050     0.2392810     2.1528250
  H       -1.4122900    -1.2543580     2.1330320
  H       -3.2323950     0.2935880     1.8197160
  H       -2.2008590     1.4410770     0.9595580
  H       -3.4037750     1.5784440    -1.2516650
  H       -3.9506210     0.0965540    -2.0538340
  H       -4.7289130     0.6299820    -0.5557020
  H        0.4812350     1.7322070     0.3831320
  H        1.8065840    -2.3037040    -0.2799060
  H        2.8010350     2.5405970     0.1152150
  H        4.1326410    -1.4960120    -0.5534930
  H        4.6413930     0.9324010    -0.3562540
units angstrom
no_reorient  #important for SAPT in psi4, default
symmetry c1  #important for SAPT in psi4, default
}

set PROPERTIES_ORIGIN ["COM"]
properties('MP2/aug-cc-pvtz', properties = ['dipole'])
--------------------------------------------------------------------------

    Molecular point group: c1
  Charge       = 0
  Multiplicity = 1
  Basis Set: AUG-CC-PVTZ
    Blend: AUG-CC-PVTZ
  Basis Set: (AUG-CC-PVTZ AUX)
    Blend: AUG-CC-PVTZ-JKFIT

    Orbital Energies [Eh]
    ---------------------

    Doubly Occupied:

       1A    -11.236450     2A    -11.233786     3A    -11.231597
       4A    -11.228245     5A    -11.227750     6A    -11.227504
       7A    -11.224052     8A    -11.221228     9A    -11.216765
      10A    -11.214933    11A    -11.214822    12A    -11.211623
      13A     -1.158587    14A     -1.126691    15A     -1.042260
      16A     -1.007146    17A     -0.989735    18A     -0.954797
      19A     -0.893119    20A     -0.824651    21A     -0.818294
      22A     -0.763688    23A     -0.754560    24A     -0.691825
      25A     -0.660897    26A     -0.633112    27A     -0.623586
      28A     -0.603895    29A     -0.586228    30A     -0.577904
      31A     -0.573125    32A     -0.557019    33A     -0.529627
      34A     -0.512158    35A     -0.509526    36A     -0.490595
      37A     -0.475115    38A     -0.464573    39A     -0.460154
      40A     -0.453655    41A     -0.450120    42A     -0.443056
      43A     -0.331943    44A     -0.322147

  @DF-RHF Final Energy:  -463.89171532714590

   => Energetics <=

    Nuclear Repulsion Energy =            676.7271892222647693
    One-Electron Energy =               -1969.2927204184231869
    Two-Electron Energy =                 828.6738158690125147
    Total Energy =                       -463.8917153271459028
  Basis Set: (AUG-CC-PVTZ AUX)
    Blend: AUG-CC-PVTZ-RI
    Molecular point group: c1

    Geometry (in Angstrom), charge = 0, multiplicity = 1:

       Center              X                  Y                   Z               Mass
    ------------   -----------------  -----------------  -----------------  -----------------
         C           -0.512801639205    -0.831594293934     0.213913308651    12.000000000000
         C           -2.825229639205    -0.231297293934    -0.271915691349    12.000000000000
         C           -1.442933639205    -0.337103293934    -0.917687691349    12.000000000000
         C           -1.215890639205    -0.374428293934     1.530756308651    12.000000000000
         C           -2.484123639205     0.373793706066     1.091900308651    12.000000000000
         C            0.906058360795    -0.345389293934     0.066378308651    12.000000000000
         C           -3.839846639205     0.562499706066    -1.082116691349    12.000000000000
         C            1.208326360795     1.021301706066     0.173364308651    12.000000000000
         C            1.952185360795    -1.237256293934    -0.199113691349    12.000000000000
         C            2.516684360795     1.479976706066     0.023110308651    12.000000000000
         C            3.248699660795    -0.737832493934    -0.344887291349    12.000000000000
         C            3.550736360795     0.577922706066    -0.242313691349    12.000000000000
         H           -0.494380639205    -1.928880293934     0.189137308651     1.007825032230
         H           -3.211666639205    -1.248965293934    -0.110373691349     1.007825032230
         H           -1.127542639205     0.661121706066    -1.250451691349     1.007825032230
         H           -1.415284639205    -0.994559293934    -1.794284691349     1.007825032230
         H           -0.556404639205     0.241506706066     2.149537308651     1.007825032230
         H           -1.482489639205    -1.252132293934     2.129744308651     1.007825032230
         H           -3.302594639205     0.295813706066     1.816428308651     1.007825032230
         H           -2.271058639205     1.443302706066     0.956270308651     1.007825032230
         H           -3.473974639205     1.580669706066    -1.254952691349     1.007825032230
         H           -4.020820639205     0.098779706066    -2.057121691349     1.007825032230
         H           -4.799112639205     0.632207706066    -0.558989691349     1.007825032230
         H            0.411035360795     1.734432706066     0.379844308651     1.007825032230
         H            1.736384360795    -2.301478293934    -0.283193691349     1.007825032230
         H            2.730835360795     2.542822706066     0.111927308651     1.007825032230
         H            4.062441360795    -1.493786293934    -0.556780691349     1.007825032230
         H            4.571193360795     0.934626706066    -0.359541691349     1.007825032230

  Basis Set: AUG-CC-PVTZ
    Blend: AUG-CC-PVTZ
  Basis Set: (AUG-CC-PVTZ AUX)
    Blend: AUG-CC-PVTZ-JKFIT
	 Reference Energy          =    -463.8917153271459028 [Eh]
	 Singles Energy            =      -0.0000000000000000 [Eh]
	 Same-Spin Energy          =      -0.5195013406606039 [Eh]
	 Opposite-Spin Energy      =      -1.7262634873953673 [Eh]
	 Correlation Energy        =      -2.2457648280559712 [Eh]
	 Total Energy              =    -466.1374801552018994 [Eh]

	 ================> DF-SCS-MP2 Energies <==================
	-----------------------------------------------------------
	 SCS Same-Spin Scale       =       0.3333333333333333 [-]
	 SCS Opposite-Spin Scale   =       1.2000000000000000 [-]
	 SCS Same-Spin Energy      =      -0.1731671135535346 [Eh]
	 SCS Opposite-Spin Energy  =      -2.0715161848744406 [Eh]
	 SCS Correlation Energy    =      -2.2446832984279750 [Eh]
	 SCS Total Energy          =    -466.1363986255738610 [Eh]
	-----------------------------------------------------------

  Dipole Moment: [D]
     X:    -0.5868      Y:    -0.1891      Z:     0.0418     Total:     0.6180

*** Psi4 exiting successfully. Buy a developer a beer!
