                               Psi4 1.4a3.dev225

  ==> Input File <==

--------------------------------------------------------------------------
#psi4
#
memory 32 gb

molecule  {
0 1
  C       -0.4426020    -0.8338200     0.2172010
  C       -2.6259740    -0.3266317    -0.2501872
  C       -1.3727340    -0.3393290    -0.9144000
  C       -1.1456910    -0.3766540     1.5340440
  C       -2.4139240     0.3715680     1.0951880
  C        0.9762580    -0.3476150     0.0696660
  C       -3.7696470     0.5602740    -1.0788290
  C        1.2785260     1.0190760     0.1766520
  C        2.0223850    -1.2394820    -0.1958260
  C        2.5868840     1.4777510     0.0263980
  C        3.3346800    -0.7855870    -0.3490730
  C        3.6209360     0.5756970    -0.2390260
  H       -0.4241810    -1.9311060     0.1924250
  H       -3.1414670    -1.2511910    -0.1070860
  H       -1.0573430     0.6588960    -1.2471640
  H       -1.3450850    -0.9967850    -1.7909970
  H       -0.4862050     0.2392810     2.1528250
  H       -1.4122900    -1.2543580     2.1330320
  H       -3.2323950     0.2935880     1.8197160
  H       -2.2008590     1.4410770     0.9595580
  H       -3.4037750     1.5784440    -1.2516650
  H       -3.9506210     0.0965540    -2.0538340
  H       -4.7289130     0.6299820    -0.5557020
  H        0.4812350     1.7322070     0.3831320
  H        1.8065840    -2.3037040    -0.2799060
  H        2.8010350     2.5405970     0.1152150
  H        4.1326410    -1.4960120    -0.5534930
  H        4.6413930     0.9324010    -0.3562540
units angstrom
no_reorient  #important for SAPT in psi4, default
symmetry c1  #important for SAPT in psi4, default
}

set PROPERTIES_ORIGIN ["COM"]
properties('MP2/aug-cc-pvtz', properties = ['dipole'])
--------------------------------------------------------------------------

    Molecular point group: c1
  Charge       = 0
  Multiplicity = 1
  Basis Set: AUG-CC-PVTZ
    Blend: AUG-CC-PVTZ
  Basis Set: (AUG-CC-PVTZ AUX)
    Blend: AUG-CC-PVTZ-JKFIT

    Orbital Energies [Eh]
    ---------------------

    Doubly Occupied:

       1A    -11.236376     2A    -11.233806     3A    -11.233019
       4A    -11.228970     5A    -11.228541     6A    -11.228411
       7A    -11.228124     8A    -11.221681     9A    -11.215537
      10A    -11.214939    11A    -11.212341    12A    -11.211351
      13A     -1.161101    14A     -1.133025    15A     -1.034853
      16A     -1.008551    17A     -0.982084    18A     -0.956581
      19A     -0.890578    20A     -0.826290    21A     -0.816169
      22A     -0.771382    23A     -0.758750    24A     -0.690070
      25A     -0.668277    26A     -0.636775    27A     -0.621023
      28A     -0.606127    29A     -0.582822    30A     -0.582432
      31A     -0.573833    32A     -0.548232    33A     -0.526467
      34A     -0.512349    35A     -0.509611    36A     -0.500568
      37A     -0.489238    38A     -0.467774    39A     -0.463330
      40A     -0.454923    41A     -0.445057    42A     -0.415314
      43A     -0.332538    44A     -0.318509

  @DF-RHF Final Energy:  -463.86950991830963

   => Energetics <=

    Nuclear Repulsion Energy =            677.3381847582184037
    One-Electron Energy =               -1970.4599300943202707
    Two-Electron Energy =                 829.2522354177922352
    Total Energy =                       -463.8695099183096318
  Basis Set: (AUG-CC-PVTZ AUX)
    Blend: AUG-CC-PVTZ-RI
    Molecular point group: c1

    Geometry (in Angstrom), charge = 0, multiplicity = 1:

       Center              X                  Y                   Z               Mass
    ------------   -----------------  -----------------  -----------------  -----------------
         C           -0.523655898212    -0.821204611394     0.213091396800    12.000000000000
         C           -2.707027898212    -0.314016311394    -0.254296803200    12.000000000000
         C           -1.453787898212    -0.326713611394    -0.918509603200    12.000000000000
         C           -1.226744898212    -0.364038611394     1.529934396800    12.000000000000
         C           -2.494977898212     0.384183388606     1.091078396800    12.000000000000
         C            0.895204101788    -0.334999611394     0.065556396800    12.000000000000
         C           -3.850700898212     0.572889388606    -1.082938603200    12.000000000000
         C            1.197472101788     1.031691388606     0.172542396800    12.000000000000
         C            1.941331101788    -1.226866611394    -0.199935603200    12.000000000000
         C            2.505830101788     1.490366388606     0.022288396800    12.000000000000
         C            3.253626101788    -0.772971611394    -0.353182603200    12.000000000000
         C            3.539882101788     0.588312388606    -0.243135603200    12.000000000000
         H           -0.505234898212    -1.918490611394     0.188315396800     1.007825032230
         H           -3.222520898212    -1.238575611394    -0.111195603200     1.007825032230
         H           -1.138396898212     0.671511388606    -1.251273603200     1.007825032230
         H           -1.426138898212    -0.984169611394    -1.795106603200     1.007825032230
         H           -0.567258898212     0.251896388606     2.148715396800     1.007825032230
         H           -1.493343898212    -1.241742611394     2.128922396800     1.007825032230
         H           -3.313448898212     0.306203388606     1.815606396800     1.007825032230
         H           -2.281912898212     1.453692388606     0.955448396800     1.007825032230
         H           -3.484828898212     1.591059388606    -1.255774603200     1.007825032230
         H           -4.031674898212     0.109169388606    -2.057943603200     1.007825032230
         H           -4.809966898212     0.642597388606    -0.559811603200     1.007825032230
         H            0.400181101788     1.744822388606     0.379022396800     1.007825032230
         H            1.725530101788    -2.291088611394    -0.284015603200     1.007825032230
         H            2.719981101788     2.553212388606     0.111105396800     1.007825032230
         H            4.051587101788    -1.483396611394    -0.557602603200     1.007825032230
         H            4.560339101788     0.945016388606    -0.360363603200     1.007825032230

  Basis Set: AUG-CC-PVTZ
    Blend: AUG-CC-PVTZ
  Basis Set: (AUG-CC-PVTZ AUX)
    Blend: AUG-CC-PVTZ-JKFIT
	 Reference Energy          =    -463.8695099183096318 [Eh]
	 Singles Energy            =      -0.0000000000000000 [Eh]
	 Same-Spin Energy          =      -0.5206339976350640 [Eh]
	 Opposite-Spin Energy      =      -1.7281937930243272 [Eh]
	 Correlation Energy        =      -2.2488277906593912 [Eh]
	 Total Energy              =    -466.1183377089690225 [Eh]

	 ================> DF-SCS-MP2 Energies <==================
	-----------------------------------------------------------
	 SCS Same-Spin Scale       =       0.3333333333333333 [-]
	 SCS Opposite-Spin Scale   =       1.2000000000000000 [-]
	 SCS Same-Spin Energy      =      -0.1735446658783547 [Eh]
	 SCS Opposite-Spin Energy  =      -2.0738325516291924 [Eh]
	 SCS Correlation Energy    =      -2.2473772175075473 [Eh]
	 SCS Total Energy          =    -466.1168871358171941 [Eh]
	-----------------------------------------------------------

  Dipole Moment: [D]
     X:    -0.4894      Y:    -0.2715      Z:     0.0985     Total:     0.5682

*** Psi4 exiting successfully. Buy a developer a beer!
