                               Psi4 1.4a3.dev225

  ==> Input File <==

--------------------------------------------------------------------------
#psi4
#
memory 32 gb

molecule  {
0 1
  C       -0.4426020    -0.8338200     0.2172010
  C       -2.7550300    -0.2335230    -0.2686280
  C       -1.3727340    -0.3393290    -0.9144000
  C       -1.1456910    -0.3766540     1.5340440
  C       -2.4139240     0.3715680     1.0951880
  C        0.9762580    -0.3476150     0.0696660
  C       -3.7696470     0.5602740    -1.0788290
  C        1.2785260     1.0190760     0.1766520
  C        2.0223850    -1.2394820    -0.1958260
  C        2.5868840     1.4777510     0.0263980
  C        3.3346800    -0.7855870    -0.3490730
  C        3.6209360     0.5756970    -0.2390260
  H       -0.4241810    -1.9311060     0.1924250
  H       -3.1414670    -1.2511910    -0.1070860
  H       -1.0573430     0.6588960    -1.2471640
  H       -1.3450850    -0.9967850    -1.7909970
  H       -0.4862050     0.2392810     2.1528250
  H       -1.4122900    -1.2543580     2.1330320
  H       -3.2323950     0.2935880     1.8197160
  H       -2.2008590     1.4410770     0.9595580
  H       -3.4037750     1.5784440    -1.2516650
  H       -3.9506210     0.0965540    -2.0538340
  H       -4.7289130     0.6299820    -0.5557020
  H        0.4812350     1.7322070     0.3831320
  H        1.8065840    -2.3037040    -0.2799060
  H        2.8010350     2.5405970     0.1152150
  H        3.9859253    -1.3653910    -0.5159077
  H        4.6413930     0.9324010    -0.3562540
units angstrom
no_reorient  #important for SAPT in psi4, default
symmetry c1  #important for SAPT in psi4, default
}

set PROPERTIES_ORIGIN ["COM"]
properties('MP2/aug-cc-pvtz', properties = ['dipole'])
--------------------------------------------------------------------------

    Molecular point group: c1
  Charge       = 0
  Multiplicity = 1
  Basis Set: AUG-CC-PVTZ
    Blend: AUG-CC-PVTZ
  Basis Set: (AUG-CC-PVTZ AUX)
    Blend: AUG-CC-PVTZ-JKFIT

    Orbital Energies [Eh]
    ---------------------

    Doubly Occupied:

       1A    -11.235436     2A    -11.232511     3A    -11.228055
       4A    -11.227797     5A    -11.227752     6A    -11.226972
       7A    -11.220896     8A    -11.216331     9A    -11.214606
      10A    -11.214387    11A    -11.211377    12A    -11.208466
      13A     -1.156275    14A     -1.125368    15A     -1.041218
      16A     -1.015289    17A     -0.988739    18A     -0.953539
      19A     -0.892279    20A     -0.841890    21A     -0.815566
      22A     -0.766959    23A     -0.763279    24A     -0.693767
      25A     -0.660667    26A     -0.648755    27A     -0.621628
      28A     -0.613371    29A     -0.589251    30A     -0.582871
      31A     -0.573072    32A     -0.555813    33A     -0.528251
      34A     -0.513111    35A     -0.509269    36A     -0.493024
      37A     -0.474988    38A     -0.463046    39A     -0.461587
      40A     -0.453414    41A     -0.450069    42A     -0.443773
      43A     -0.331737    44A     -0.318022

  @DF-RHF Final Energy:  -463.85982188325892

   => Energetics <=

    Nuclear Repulsion Energy =            677.1289332841681698
    One-Electron Energy =               -1969.9685683001951020
    Two-Electron Energy =                 828.9798131327679585
    Total Energy =                       -463.8598218832589737
  Basis Set: (AUG-CC-PVTZ AUX)
    Blend: AUG-CC-PVTZ-RI
    Molecular point group: c1

    Geometry (in Angstrom), charge = 0, multiplicity = 1:

       Center              X                  Y                   Z               Mass
    ------------   -----------------  -----------------  -----------------  -----------------
         C           -0.513060840409    -0.829004429971     0.214236814218    12.000000000000
         C           -2.825488840409    -0.228707429971    -0.271592185782    12.000000000000
         C           -1.443192840409    -0.334513429971    -0.917364185782    12.000000000000
         C           -1.216149840409    -0.371838429971     1.531079814218    12.000000000000
         C           -2.484382840409     0.376383570029     1.092223814218    12.000000000000
         C            0.905799159591    -0.342799429971     0.066701814218    12.000000000000
         C           -3.840105840409     0.565089570029    -1.081793185782    12.000000000000
         C            1.208067159591     1.023891570029     0.173687814218    12.000000000000
         C            1.951926159591    -1.234666429971    -0.198790185782    12.000000000000
         C            2.516425159591     1.482566570029     0.023433814218    12.000000000000
         C            3.264221159591    -0.780771429971    -0.352037185782    12.000000000000
         C            3.550477159591     0.580512570029    -0.241990185782    12.000000000000
         H           -0.494639840409    -1.926290429971     0.189460814218     1.007825032230
         H           -3.211925840409    -1.246375429971    -0.110050185782     1.007825032230
         H           -1.127801840409     0.663711570029    -1.250128185782     1.007825032230
         H           -1.415543840409    -0.991969429971    -1.793961185782     1.007825032230
         H           -0.556663840409     0.244096570029     2.149860814218     1.007825032230
         H           -1.482748840409    -1.249542429971     2.130067814218     1.007825032230
         H           -3.302853840409     0.298403570029     1.816751814218     1.007825032230
         H           -2.271317840409     1.445892570029     0.956593814218     1.007825032230
         H           -3.474233840409     1.583259570029    -1.254629185782     1.007825032230
         H           -4.021079840409     0.101369570029    -2.056798185782     1.007825032230
         H           -4.799371840409     0.634797570029    -0.558666185782     1.007825032230
         H            0.410776159591     1.737022570029     0.380167814218     1.007825032230
         H            1.736125159591    -2.298888429971    -0.282870185782     1.007825032230
         H            2.730576159591     2.545412570029     0.112250814218     1.007825032230
         H            3.915466459591    -1.360575429971    -0.518871885782     1.007825032230
         H            4.570934159591     0.937216570029    -0.359218185782     1.007825032230

  Basis Set: AUG-CC-PVTZ
    Blend: AUG-CC-PVTZ
  Basis Set: (AUG-CC-PVTZ AUX)
    Blend: AUG-CC-PVTZ-JKFIT
	 Reference Energy          =    -463.8598218832589168 [Eh]
	 Singles Energy            =      -0.0000000000000000 [Eh]
	 Same-Spin Energy          =      -0.5193488732401246 [Eh]
	 Opposite-Spin Energy      =      -1.7258598442892836 [Eh]
	 Correlation Energy        =      -2.2452087175294082 [Eh]
	 Total Energy              =    -466.1050306007883250 [Eh]

	 ================> DF-SCS-MP2 Energies <==================
	-----------------------------------------------------------
	 SCS Same-Spin Scale       =       0.3333333333333333 [-]
	 SCS Opposite-Spin Scale   =       1.2000000000000000 [-]
	 SCS Same-Spin Energy      =      -0.1731162910800415 [Eh]
	 SCS Opposite-Spin Energy  =      -2.0710318131471404 [Eh]
	 SCS Correlation Energy    =      -2.2441481042271820 [Eh]
	 SCS Total Energy          =    -466.1039699874860958 [Eh]
	-----------------------------------------------------------

  Dipole Moment: [D]
     X:    -0.5179      Y:    -0.2344      Z:     0.0270     Total:     0.5691

*** Psi4 exiting successfully. Buy a developer a beer!
