                               Psi4 1.4a3.dev225

  ==> Input File <==

--------------------------------------------------------------------------
#psi4
#
memory 32 gb

molecule  {
0 1
  C       -0.4426020    -0.8338200     0.2172010
  C       -2.6693213    -0.2963967    -0.2579853
  C       -1.3727340    -0.3393290    -0.9144000
  C       -1.1456910    -0.3766540     1.5340440
  C       -2.4139240     0.3715680     1.0951880
  C        0.9762580    -0.3476150     0.0696660
  C       -3.7696470     0.5602740    -1.0788290
  C        1.2785260     1.0190760     0.1766520
  C        2.0223850    -1.2394820    -0.1958260
  C        2.5868840     1.4777510     0.0263980
  C        3.3346800    -0.7855870    -0.3490730
  C        3.6209360     0.5756970    -0.2390260
  H       -0.4241810    -1.9311060     0.1924250
  H       -3.1414670    -1.2511910    -0.1070860
  H       -1.0573430     0.6588960    -1.2471640
  H       -1.3450850    -0.9967850    -1.7909970
  H       -0.4862050     0.2392810     2.1528250
  H       -1.4122900    -1.2543580     2.1330320
  H       -3.2323950     0.2935880     1.8197160
  H       -2.2008590     1.4410770     0.9595580
  H       -3.4037750     1.5784440    -1.2516650
  H       -3.9506210     0.0965540    -2.0538340
  H       -4.7289130     0.6299820    -0.5557020
  H        0.4812350     1.7322070     0.3831320
  H        1.8065840    -2.3037040    -0.2799060
  H        2.8010350     2.5405970     0.1152150
  H        4.1326410    -1.4960120    -0.5534930
  H        4.6413930     0.9324010    -0.3562540
units angstrom
no_reorient  #important for SAPT in psi4, default
symmetry c1  #important for SAPT in psi4, default
}

set PROPERTIES_ORIGIN ["COM"]
properties('MP2/aug-cc-pvtz', properties = ['dipole'])
--------------------------------------------------------------------------

    Molecular point group: c1
  Charge       = 0
  Multiplicity = 1
  Basis Set: AUG-CC-PVTZ
    Blend: AUG-CC-PVTZ
  Basis Set: (AUG-CC-PVTZ AUX)
    Blend: AUG-CC-PVTZ-JKFIT

    Orbital Energies [Eh]
    ---------------------

    Doubly Occupied:

       1A    -11.236347     2A    -11.233690     3A    -11.232917
       4A    -11.228916     5A    -11.228452     6A    -11.228223
       7A    -11.228066     8A    -11.220719     9A    -11.215619
      10A    -11.214720    11A    -11.212541    12A    -11.212405
      13A     -1.158720    14A     -1.130016    15A     -1.035818
      16A     -1.008460    17A     -0.982646    18A     -0.956480
      19A     -0.891457    20A     -0.826250    21A     -0.816095
      22A     -0.769097    23A     -0.758150    24A     -0.689942
      25A     -0.665095    26A     -0.636132    27A     -0.621038
      28A     -0.606020    29A     -0.583471    30A     -0.580724
      31A     -0.573856    32A     -0.550943    33A     -0.526970
      34A     -0.511600    35A     -0.509301    36A     -0.491673
      37A     -0.488496    38A     -0.465581    39A     -0.462406
      40A     -0.453925    41A     -0.446182    42A     -0.431582
      43A     -0.332431    44A     -0.318675

  @DF-RHF Final Energy:  -463.88323448617246

   => Energetics <=

    Nuclear Repulsion Energy =            676.8406467580907702
    One-Electron Energy =               -1969.5040669316633739
    Two-Electron Energy =                 828.7801856874001487
    Total Energy =                       -463.8832344861724550
  Basis Set: (AUG-CC-PVTZ AUX)
    Blend: AUG-CC-PVTZ-RI
    Molecular point group: c1

    Geometry (in Angstrom), charge = 0, multiplicity = 1:

       Center              X                  Y                   Z               Mass
    ------------   -----------------  -----------------  -----------------  -----------------
         C           -0.520407392678    -0.823470463358     0.213675797005    12.000000000000
         C           -2.747126692678    -0.286047163358    -0.261510502995    12.000000000000
         C           -1.450539392678    -0.328979463358    -0.917925202995    12.000000000000
         C           -1.223496392678    -0.366304463358     1.530518797005    12.000000000000
         C           -2.491729392678     0.381917536642     1.091662797005    12.000000000000
         C            0.898452607322    -0.337265463358     0.066140797005    12.000000000000
         C           -3.847452392678     0.570623536642    -1.082354202995    12.000000000000
         C            1.200720607322     1.029425536642     0.173126797005    12.000000000000
         C            1.944579607322    -1.229132463358    -0.199351202995    12.000000000000
         C            2.509078607322     1.488100536642     0.022872797005    12.000000000000
         C            3.256874607322    -0.775237463358    -0.352598202995    12.000000000000
         C            3.543130607322     0.586046536642    -0.242551202995    12.000000000000
         H           -0.501986392678    -1.920756463358     0.188899797005     1.007825032230
         H           -3.219272392678    -1.240841463358    -0.110611202995     1.007825032230
         H           -1.135148392678     0.669245536642    -1.250689202995     1.007825032230
         H           -1.422890392678    -0.986435463358    -1.794522202995     1.007825032230
         H           -0.564010392678     0.249630536642     2.149299797005     1.007825032230
         H           -1.490095392678    -1.244008463358     2.129506797005     1.007825032230
         H           -3.310200392678     0.303937536642     1.816190797005     1.007825032230
         H           -2.278664392678     1.451426536642     0.956032797005     1.007825032230
         H           -3.481580392678     1.588793536642    -1.255190202995     1.007825032230
         H           -4.028426392678     0.106903536642    -2.057359202995     1.007825032230
         H           -4.806718392678     0.640331536642    -0.559227202995     1.007825032230
         H            0.403429607322     1.742556536642     0.379606797005     1.007825032230
         H            1.728778607322    -2.293354463358    -0.283431202995     1.007825032230
         H            2.723229607322     2.550946536642     0.111689797005     1.007825032230
         H            4.054835607322    -1.485662463358    -0.557018202995     1.007825032230
         H            4.563587607322     0.942750536642    -0.359779202995     1.007825032230

  Basis Set: AUG-CC-PVTZ
    Blend: AUG-CC-PVTZ
  Basis Set: (AUG-CC-PVTZ AUX)
    Blend: AUG-CC-PVTZ-JKFIT
	 Reference Energy          =    -463.8832344861724550 [Eh]
	 Singles Energy            =      -0.0000000000000000 [Eh]
	 Same-Spin Energy          =      -0.5199759052782502 [Eh]
	 Opposite-Spin Energy      =      -1.7271321280073715 [Eh]
	 Correlation Energy        =      -2.2471080332856217 [Eh]
	 Total Energy              =    -466.1303425194580541 [Eh]

	 ================> DF-SCS-MP2 Energies <==================
	-----------------------------------------------------------
	 SCS Same-Spin Scale       =       0.3333333333333333 [-]
	 SCS Opposite-Spin Scale   =       1.2000000000000000 [-]
	 SCS Same-Spin Energy      =      -0.1733253017594167 [Eh]
	 SCS Opposite-Spin Energy  =      -2.0725585536088458 [Eh]
	 SCS Correlation Energy    =      -2.2458838553682625 [Eh]
	 SCS Total Energy          =    -466.1291183415407318 [Eh]
	-----------------------------------------------------------

  Dipole Moment: [D]
     X:    -0.5250      Y:    -0.2465      Z:     0.0751     Total:     0.5848

*** Psi4 exiting successfully. Buy a developer a beer!
