                               Psi4 1.4a3.dev225

  ==> Input File <==

--------------------------------------------------------------------------
#psi4
#
memory 32 gb

molecule  {
0 1
  C       -0.4426020    -0.8338200     0.2172010
  C       -2.7550300    -0.2335230    -0.2686280
  C       -1.3727340    -0.3393290    -0.9144000
  C       -1.1456910    -0.3766540     1.5340440
  C       -2.4139240     0.3715680     1.0951880
  C        0.9762580    -0.3476150     0.0696660
  C       -3.7696470     0.5602740    -1.0788290
  C        1.2785260     1.0190760     0.1766520
  C        2.0223850    -1.2394820    -0.1958260
  C        2.5868840     1.4777510     0.0263980
  C        3.3346800    -0.7855870    -0.3490730
  C        3.6209360     0.5756970    -0.2390260
  H       -0.4241810    -1.9311060     0.1924250
  H       -3.1414670    -1.2511910    -0.1070860
  H       -1.0573430     0.6588960    -1.2471640
  H       -1.3450850    -0.9967850    -1.7909970
  H       -0.4862050     0.2392810     2.1528250
  H       -1.4122900    -1.2543580     2.1330320
  H       -3.2323950     0.2935880     1.8197160
  H       -2.2008590     1.4410770     0.9595580
  H       -3.4037750     1.5784440    -1.2516650
  H       -3.9506210     0.0965540    -2.0538340
  H       -4.7289130     0.6299820    -0.5557020
  H        0.4812350     1.7322070     0.3831320
  H        1.8026212    -2.3232466    -0.2814500
  H        2.8010350     2.5405970     0.1152150
  H        4.1326410    -1.4960120    -0.5534930
  H        4.6413930     0.9324010    -0.3562540
units angstrom
no_reorient  #important for SAPT in psi4, default
symmetry c1  #important for SAPT in psi4, default
}

set PROPERTIES_ORIGIN ["COM"]
properties('MP2/aug-cc-pvtz', properties = ['dipole'])
--------------------------------------------------------------------------

    Molecular point group: c1
  Charge       = 0
  Multiplicity = 1
  Basis Set: AUG-CC-PVTZ
    Blend: AUG-CC-PVTZ
  Basis Set: (AUG-CC-PVTZ AUX)
    Blend: AUG-CC-PVTZ-JKFIT

    Orbital Energies [Eh]
    ---------------------

    Doubly Occupied:

       1A    -11.236730     2A    -11.233688     3A    -11.233117
       4A    -11.230437     5A    -11.229074     6A    -11.228584
       7A    -11.228342     8A    -11.221164     9A    -11.216686
      10A    -11.214884    11A    -11.214726    12A    -11.211584
      13A     -1.155998    14A     -1.124832    15A     -1.039509
      16A     -1.008003    17A     -0.988452    18A     -0.953730
      19A     -0.892622    20A     -0.826163    21A     -0.815390
      22A     -0.763559    23A     -0.757225    24A     -0.688818
      25A     -0.660430    26A     -0.634298    27A     -0.621903
      28A     -0.606353    29A     -0.586077    30A     -0.579627
      31A     -0.572648    32A     -0.556061    33A     -0.528484
      34A     -0.510976    35A     -0.510105    36A     -0.489034
      37A     -0.475242    38A     -0.463403    39A     -0.461334
      40A     -0.453733    41A     -0.450303    42A     -0.443866
      43A     -0.332472    44A     -0.318932

  @DF-RHF Final Energy:  -463.89375321933710

   => Energetics <=

    Nuclear Repulsion Energy =            675.8386243688458990
    One-Electron Energy =               -1967.5275548338938734
    Two-Electron Energy =                 827.7951772457109882
    Total Energy =                       -463.8937532193370998
  Basis Set: (AUG-CC-PVTZ AUX)
    Blend: AUG-CC-PVTZ-RI
    Molecular point group: c1

    Geometry (in Angstrom), charge = 0, multiplicity = 1:

       Center              X                  Y                   Z               Mass
    ------------   -----------------  -----------------  -----------------  -----------------
         C           -0.513959324506    -0.828059303067     0.214483093304    12.000000000000
         C           -2.826387324506    -0.227762303067    -0.271345906696    12.000000000000
         C           -1.444091324506    -0.333568303067    -0.917117906696    12.000000000000
         C           -1.217048324506    -0.370893303067     1.531326093304    12.000000000000
         C           -2.485281324506     0.377328696933     1.092470093304    12.000000000000
         C            0.904900675494    -0.341854303067     0.066948093304    12.000000000000
         C           -3.841004324506     0.566034696933    -1.081546906696    12.000000000000
         C            1.207168675494     1.024836696933     0.173934093304    12.000000000000
         C            1.951027675494    -1.233721303067    -0.198543906696    12.000000000000
         C            2.515526675494     1.483511696933     0.023680093304    12.000000000000
         C            3.263322675494    -0.779826303067    -0.351790906696    12.000000000000
         C            3.549578675494     0.581457696933    -0.241743906696    12.000000000000
         H           -0.495538324506    -1.925345303067     0.189707093304     1.007825032230
         H           -3.212824324506    -1.245430303067    -0.109803906696     1.007825032230
         H           -1.128700324506     0.664656696933    -1.249881906696     1.007825032230
         H           -1.416442324506    -0.991024303067    -1.793714906696     1.007825032230
         H           -0.557562324506     0.245041696933     2.150107093304     1.007825032230
         H           -1.483647324506    -1.248597303067     2.130314093304     1.007825032230
         H           -3.303752324506     0.299348696933     1.816998093304     1.007825032230
         H           -2.272216324506     1.446837696933     0.956840093304     1.007825032230
         H           -3.475132324506     1.584204696933    -1.254382906696     1.007825032230
         H           -4.021978324506     0.102314696933    -2.056551906696     1.007825032230
         H           -4.800270324506     0.635742696933    -0.558419906696     1.007825032230
         H            0.409877675494     1.737967696933     0.380414093304     1.007825032230
         H            1.731263875494    -2.317485903067    -0.284167906696     1.007825032230
         H            2.729677675494     2.546357696933     0.112497093304     1.007825032230
         H            4.061283675494    -1.490251303067    -0.556210906696     1.007825032230
         H            4.570035675494     0.938161696933    -0.358971906696     1.007825032230

  Basis Set: AUG-CC-PVTZ
    Blend: AUG-CC-PVTZ
  Basis Set: (AUG-CC-PVTZ AUX)
    Blend: AUG-CC-PVTZ-JKFIT
	 Reference Energy          =    -463.8937532193370998 [Eh]
	 Singles Energy            =      -0.0000000000000000 [Eh]
	 Same-Spin Energy          =      -0.5195580606255306 [Eh]
	 Opposite-Spin Energy      =      -1.7266029962814773 [Eh]
	 Correlation Energy        =      -2.2461610569070078 [Eh]
	 Total Energy              =    -466.1399142762440988 [Eh]

	 ================> DF-SCS-MP2 Energies <==================
	-----------------------------------------------------------
	 SCS Same-Spin Scale       =       0.3333333333333333 [-]
	 SCS Opposite-Spin Scale   =       1.2000000000000000 [-]
	 SCS Same-Spin Energy      =      -0.1731860202085102 [Eh]
	 SCS Opposite-Spin Energy  =      -2.0719235955377728 [Eh]
	 SCS Correlation Energy    =      -2.2451096157462831 [Eh]
	 SCS Total Energy          =    -466.1388628350833869 [Eh]
	-----------------------------------------------------------

  Dipole Moment: [D]
     X:    -0.5669      Y:    -0.1939      Z:     0.0379     Total:     0.6003

*** Psi4 exiting successfully. Buy a developer a beer!
