                               Psi4 1.4a3.dev225

  ==> Input File <==

--------------------------------------------------------------------------
#psi4
#
memory 32 gb

molecule  {
0 1
  C       -0.4426020    -0.8338200     0.2172010
  C       -2.7550300    -0.2335230    -0.2686280
  C       -1.3727340    -0.3393290    -0.9144000
  C       -1.1456910    -0.3766540     1.5340440
  C       -2.4139240     0.3715680     1.0951880
  C        0.9762580    -0.3476150     0.0696660
  C       -3.7696470     0.5602740    -1.0788290
  C        1.2785260     1.0190760     0.1766520
  C        2.0223850    -1.2394820    -0.1958260
  C        2.5868840     1.4777510     0.0263980
  C        3.3346800    -0.7855870    -0.3490730
  C        3.6209360     0.5756970    -0.2390260
  H       -0.4241810    -1.9311060     0.1924250
  H       -3.1414670    -1.2511910    -0.1070860
  H       -1.0573430     0.6588960    -1.2471640
  H       -1.3450850    -0.9967850    -1.7909970
  H       -0.4862050     0.2392810     2.1528250
  H       -1.4122900    -1.2543580     2.1330320
  H       -3.2323950     0.2935880     1.8197160
  H       -2.2008590     1.4410770     0.9595580
  H       -3.4037750     1.5784440    -1.2516650
  H       -3.9506210     0.0965540    -2.0538340
  H       -4.7289130     0.6299820    -0.5557020
  H        0.4812350     1.7322070     0.3831320
  H        1.7966770    -2.3525604    -0.2837660
  H        2.8010350     2.5405970     0.1152150
  H        4.1326410    -1.4960120    -0.5534930
  H        4.6413930     0.9324010    -0.3562540
units angstrom
no_reorient  #important for SAPT in psi4, default
symmetry c1  #important for SAPT in psi4, default
}

set PROPERTIES_ORIGIN ["COM"]
properties('MP2/aug-cc-pvtz', properties = ['dipole'])
--------------------------------------------------------------------------

    Molecular point group: c1
  Charge       = 0
  Multiplicity = 1
  Basis Set: AUG-CC-PVTZ
    Blend: AUG-CC-PVTZ
  Basis Set: (AUG-CC-PVTZ AUX)
    Blend: AUG-CC-PVTZ-JKFIT

    Orbital Energies [Eh]
    ---------------------

    Doubly Occupied:

       1A    -11.237150     2A    -11.234342     3A    -11.233856
       4A    -11.232987     5A    -11.229340     6A    -11.228863
       7A    -11.228318     8A    -11.221163     9A    -11.216682
      10A    -11.214886    11A    -11.214718    12A    -11.211585
      13A     -1.156033    14A     -1.124876    15A     -1.039571
      16A     -1.007449    17A     -0.988458    18A     -0.953676
      19A     -0.892586    20A     -0.825982    21A     -0.814244
      22A     -0.763520    23A     -0.757264    24A     -0.687387
      25A     -0.660449    26A     -0.633077    27A     -0.621961
      28A     -0.606164    29A     -0.586015    30A     -0.579241
      31A     -0.571160    32A     -0.555946    33A     -0.528382
      34A     -0.511082    35A     -0.510225    36A     -0.487440
      37A     -0.475189    38A     -0.463442    39A     -0.461434
      40A     -0.453729    41A     -0.450329    42A     -0.443882
      43A     -0.332686    44A     -0.319153

  @DF-RHF Final Energy:  -463.89192485029594

   => Energetics <=

    Nuclear Repulsion Energy =            675.6912255595215129
    One-Electron Energy =               -1967.2344568438770693
    Two-Electron Energy =                 827.6513064340595065
    Total Energy =                       -463.8919248502959363
  Basis Set: (AUG-CC-PVTZ AUX)
    Blend: AUG-CC-PVTZ-RI
    Molecular point group: c1

    Geometry (in Angstrom), charge = 0, multiplicity = 1:

       Center              X                  Y                   Z               Mass
    ------------   -----------------  -----------------  -----------------  -----------------
         C           -0.513921911821    -0.827874802555     0.214497670165    12.000000000000
         C           -2.826349911821    -0.227577802555    -0.271331329835    12.000000000000
         C           -1.444053911821    -0.333383802555    -0.917103329835    12.000000000000
         C           -1.217010911821    -0.370708802555     1.531340670165    12.000000000000
         C           -2.485243911821     0.377513197445     1.092484670165    12.000000000000
         C            0.904938088179    -0.341669802555     0.066962670165    12.000000000000
         C           -3.840966911821     0.566219197445    -1.081532329835    12.000000000000
         C            1.207206088179     1.025021197445     0.173948670165    12.000000000000
         C            1.951065088179    -1.233536802555    -0.198529329835    12.000000000000
         C            2.515564088179     1.483696197445     0.023694670165    12.000000000000
         C            3.263360088179    -0.779641802555    -0.351776329835    12.000000000000
         C            3.549616088179     0.581642197445    -0.241729329835    12.000000000000
         H           -0.495500911821    -1.925160802555     0.189721670165     1.007825032230
         H           -3.212786911821    -1.245245802555    -0.109789329835     1.007825032230
         H           -1.128662911821     0.664841197445    -1.249867329835     1.007825032230
         H           -1.416404911821    -0.990839802555    -1.793700329835     1.007825032230
         H           -0.557524911821     0.245226197445     2.150121670165     1.007825032230
         H           -1.483609911821    -1.248412802555     2.130328670165     1.007825032230
         H           -3.303714911821     0.299533197445     1.817012670165     1.007825032230
         H           -2.272178911821     1.447022197445     0.956854670165     1.007825032230
         H           -3.475094911821     1.584389197445    -1.254368329835     1.007825032230
         H           -4.021940911821     0.102499197445    -2.056537329835     1.007825032230
         H           -4.800232911821     0.635927197445    -0.558405329835     1.007825032230
         H            0.409915088179     1.738152197445     0.380428670165     1.007825032230
         H            1.725357088179    -2.346615202555    -0.286469329835     1.007825032230
         H            2.729715088179     2.546542197445     0.112511670165     1.007825032230
         H            4.061321088179    -1.490066802555    -0.556196329835     1.007825032230
         H            4.570073088179     0.938346197445    -0.358957329835     1.007825032230

  Basis Set: AUG-CC-PVTZ
    Blend: AUG-CC-PVTZ
  Basis Set: (AUG-CC-PVTZ AUX)
    Blend: AUG-CC-PVTZ-JKFIT
	 Reference Energy          =    -463.8919248502959363 [Eh]
	 Singles Energy            =      -0.0000000000000000 [Eh]
	 Same-Spin Energy          =      -0.5196375534022384 [Eh]
	 Opposite-Spin Energy      =      -1.7268826157085799 [Eh]
	 Correlation Energy        =      -2.2465201691108181 [Eh]
	 Total Energy              =    -466.1384450194067313 [Eh]

	 ================> DF-SCS-MP2 Energies <==================
	-----------------------------------------------------------
	 SCS Same-Spin Scale       =       0.3333333333333333 [-]
	 SCS Opposite-Spin Scale   =       1.2000000000000000 [-]
	 SCS Same-Spin Energy      =      -0.1732125178007461 [Eh]
	 SCS Opposite-Spin Energy  =      -2.0722591388502960 [Eh]
	 SCS Correlation Energy    =      -2.2454716566510422 [Eh]
	 SCS Total Energy          =    -466.1373965069469705 [Eh]
	-----------------------------------------------------------

  Dipole Moment: [D]
     X:    -0.5632      Y:    -0.1797      Z:     0.0388     Total:     0.5925

*** Psi4 exiting successfully. Buy a developer a beer!
