                               Psi4 1.4a3.dev225

  ==> Input File <==

--------------------------------------------------------------------------
#psi4
#
memory 32 gb

molecule  {
0 1
  C       -0.4426020    -0.8338200     0.2172010
  C       -2.7550300    -0.2335230    -0.2686280
  C       -1.3727340    -0.3393290    -0.9144000
  C       -1.1456910    -0.3766540     1.5340440
  C       -2.4139240     0.3715680     1.0951880
  C        0.9762580    -0.3476150     0.0696660
  C       -3.7696470     0.5602740    -1.0788290
  C        1.2785260     1.0190760     0.1766520
  C        2.0223850    -1.2394820    -0.1958260
  C        2.5868840     1.4777510     0.0263980
  C        3.3346800    -0.7855870    -0.3490730
  C        3.6209360     0.5756970    -0.2390260
  H       -0.4245166    -1.9111139     0.1928764
  H       -3.1414670    -1.2511910    -0.1070860
  H       -1.0573430     0.6588960    -1.2471640
  H       -1.3450850    -0.9967850    -1.7909970
  H       -0.4862050     0.2392810     2.1528250
  H       -1.4122900    -1.2543580     2.1330320
  H       -3.2323950     0.2935880     1.8197160
  H       -2.2008590     1.4410770     0.9595580
  H       -3.4037750     1.5784440    -1.2516650
  H       -3.9506210     0.0965540    -2.0538340
  H       -4.7289130     0.6299820    -0.5557020
  H        0.4812350     1.7322070     0.3831320
  H        1.8065840    -2.3037040    -0.2799060
  H        2.8010350     2.5405970     0.1152150
  H        4.1326410    -1.4960120    -0.5534930
  H        4.6413930     0.9324010    -0.3562540
units angstrom
no_reorient  #important for SAPT in psi4, default
symmetry c1  #important for SAPT in psi4, default
}

set PROPERTIES_ORIGIN ["COM"]
properties('MP2/aug-cc-pvtz', properties = ['dipole'])
--------------------------------------------------------------------------

    Molecular point group: c1
  Charge       = 0
  Multiplicity = 1
  Basis Set: AUG-CC-PVTZ
    Blend: AUG-CC-PVTZ
  Basis Set: (AUG-CC-PVTZ AUX)
    Blend: AUG-CC-PVTZ-JKFIT

    Orbital Energies [Eh]
    ---------------------

    Doubly Occupied:

       1A    -11.236323     2A    -11.233520     3A    -11.232837
       4A    -11.228874     5A    -11.228289     6A    -11.228108
       7A    -11.225854     8A    -11.221122     9A    -11.216541
      10A    -11.214802    11A    -11.214569    12A    -11.211541
      13A     -1.156093    14A     -1.124855    15A     -1.039736
      16A     -1.008399    17A     -0.988411    18A     -0.954023
      19A     -0.892989    20A     -0.826527    21A     -0.816116
      22A     -0.763621    23A     -0.758428    24A     -0.690272
      25A     -0.660755    26A     -0.635224    27A     -0.621967
      28A     -0.606554    29A     -0.586283    30A     -0.579942
      31A     -0.574174    32A     -0.556097    33A     -0.528578
      34A     -0.510975    35A     -0.509965    36A     -0.490053
      37A     -0.475171    38A     -0.463292    39A     -0.461199
      40A     -0.454155    41A     -0.451237    42A     -0.443800
      43A     -0.332310    44A     -0.318717

  @DF-RHF Final Energy:  -463.89455800390016

   => Energetics <=

    Nuclear Repulsion Energy =            676.0526654296518245
    One-Electron Energy =               -1967.9498459479391386
    Two-Electron Energy =                 828.0026225143872125
    Total Energy =                       -463.8945580039001015
  Basis Set: (AUG-CC-PVTZ AUX)
    Blend: AUG-CC-PVTZ-RI
    Molecular point group: c1

    Geometry (in Angstrom), charge = 0, multiplicity = 1:

       Center              X                  Y                   Z               Mass
    ------------   -----------------  -----------------  -----------------  -----------------
         C           -0.513982154035    -0.828308133733     0.214470534294    12.000000000000
         C           -2.826410154035    -0.228011133733    -0.271358465706    12.000000000000
         C           -1.444114154035    -0.333817133733    -0.917130465706    12.000000000000
         C           -1.217071154035    -0.371142133733     1.531313534294    12.000000000000
         C           -2.485304154035     0.377079866267     1.092457534294    12.000000000000
         C            0.904877845965    -0.342103133733     0.066935534294    12.000000000000
         C           -3.841027154035     0.565785866267    -1.081559465706    12.000000000000
         C            1.207145845965     1.024587866267     0.173921534294    12.000000000000
         C            1.951004845965    -1.233970133733    -0.198556465706    12.000000000000
         C            2.515503845965     1.483262866267     0.023667534294    12.000000000000
         C            3.263299845965    -0.780075133733    -0.351803465706    12.000000000000
         C            3.549555845965     0.581208866267    -0.241756465706    12.000000000000
         H           -0.495896754035    -1.905602033733     0.190145934294     1.007825032230
         H           -3.212847154035    -1.245679133733    -0.109816465706     1.007825032230
         H           -1.128723154035     0.664407866267    -1.249894465706     1.007825032230
         H           -1.416465154035    -0.991273133733    -1.793727465706     1.007825032230
         H           -0.557585154035     0.244792866267     2.150094534294     1.007825032230
         H           -1.483670154035    -1.248846133733     2.130301534294     1.007825032230
         H           -3.303775154035     0.299099866267     1.816985534294     1.007825032230
         H           -2.272239154035     1.446588866267     0.956827534294     1.007825032230
         H           -3.475155154035     1.583955866267    -1.254395465706     1.007825032230
         H           -4.022001154035     0.102065866267    -2.056564465706     1.007825032230
         H           -4.800293154035     0.635493866267    -0.558432465706     1.007825032230
         H            0.409854845965     1.737718866267     0.380401534294     1.007825032230
         H            1.735203845965    -2.298192133733    -0.282636465706     1.007825032230
         H            2.729654845965     2.546108866267     0.112484534294     1.007825032230
         H            4.061260845965    -1.490500133733    -0.556223465706     1.007825032230
         H            4.570012845965     0.937912866267    -0.358984465706     1.007825032230

  Basis Set: AUG-CC-PVTZ
    Blend: AUG-CC-PVTZ
  Basis Set: (AUG-CC-PVTZ AUX)
    Blend: AUG-CC-PVTZ-JKFIT
	 Reference Energy          =    -463.8945580039001584 [Eh]
	 Singles Energy            =      -0.0000000000000000 [Eh]
	 Same-Spin Energy          =      -0.5194756581419014 [Eh]
	 Opposite-Spin Energy      =      -1.7262638355131130 [Eh]
	 Correlation Energy        =      -2.2457394936550146 [Eh]
	 Total Energy              =    -466.1402974975551956 [Eh]

	 ================> DF-SCS-MP2 Energies <==================
	-----------------------------------------------------------
	 SCS Same-Spin Scale       =       0.3333333333333333 [-]
	 SCS Opposite-Spin Scale   =       1.2000000000000000 [-]
	 SCS Same-Spin Energy      =      -0.1731585527139671 [Eh]
	 SCS Opposite-Spin Energy  =      -2.0715166026157354 [Eh]
	 SCS Correlation Energy    =      -2.2446751553297024 [Eh]
	 SCS Total Energy          =    -466.1392331592298888 [Eh]
	-----------------------------------------------------------

  Dipole Moment: [D]
     X:    -0.5697      Y:    -0.2148      Z:     0.0371     Total:     0.6100

*** Psi4 exiting successfully. Buy a developer a beer!
