                               Psi4 1.4a3.dev225

  ==> Input File <==

--------------------------------------------------------------------------
#psi4
#
memory 32 gb

molecule  {
0 1
  C       -0.4426020    -0.8338200     0.2172010
  C       -2.7550300    -0.2335230    -0.2686280
  C       -1.3727340    -0.3393290    -0.9144000
  C       -1.1456910    -0.3766540     1.5340440
  C       -2.4139240     0.3715680     1.0951880
  C        0.9762580    -0.3476150     0.0696660
  C       -3.7696470     0.5602740    -1.0788290
  C        1.2785260     1.0190760     0.1766520
  C        2.0223850    -1.2394820    -0.1958260
  C        2.5868840     1.4777510     0.0263980
  C        3.3346800    -0.7855870    -0.3490730
  C        3.6209360     0.5756970    -0.2390260
  H       -0.4241810    -1.9311060     0.1924250
  H       -3.1414670    -1.2511910    -0.1070860
  H       -1.0573430     0.6588960    -1.2471640
  H       -1.3450850    -0.9967850    -1.7909970
  H       -0.4862050     0.2392810     2.1528250
  H       -1.4122900    -1.2543580     2.1330320
  H       -3.2323950     0.2935880     1.8197160
  H       -2.2008590     1.4410770     0.9595580
  H       -3.4096751     1.5649535    -1.3267080
  H       -3.9506210     0.0965540    -2.0538340
  H       -4.7289130     0.6299820    -0.5557020
  H        0.4812350     1.7322070     0.3831320
  H        1.8065840    -2.3037040    -0.2799060
  H        2.8010350     2.5405970     0.1152150
  H        4.1326410    -1.4960120    -0.5534930
  H        4.6413930     0.9324010    -0.3562540
units angstrom
no_reorient  #important for SAPT in psi4, default
symmetry c1  #important for SAPT in psi4, default
}

set PROPERTIES_ORIGIN ["COM"]
properties('MP2/aug-cc-pvtz', properties = ['dipole'])
--------------------------------------------------------------------------

    Molecular point group: c1
  Charge       = 0
  Multiplicity = 1
  Basis Set: AUG-CC-PVTZ
    Blend: AUG-CC-PVTZ
  Basis Set: (AUG-CC-PVTZ AUX)
    Blend: AUG-CC-PVTZ-JKFIT

    Orbital Energies [Eh]
    ---------------------

    Doubly Occupied:

       1A    -11.236499     2A    -11.233584     3A    -11.232848
       4A    -11.228929     5A    -11.228425     6A    -11.228369
       7A    -11.228116     8A    -11.221646     9A    -11.216642
      10A    -11.214820    11A    -11.214757    12A    -11.211452
      13A     -1.155989    14A     -1.124753    15A     -1.039352
      16A     -1.008437    17A     -0.988390    18A     -0.953710
      19A     -0.893067    20A     -0.826422    21A     -0.816233
      22A     -0.763996    23A     -0.757190    24A     -0.689921
      25A     -0.660186    26A     -0.635375    27A     -0.621537
      28A     -0.606968    29A     -0.584799    30A     -0.579694
      31A     -0.574168    32A     -0.557049    33A     -0.526752
      34A     -0.511179    35A     -0.509957    36A     -0.490137
      37A     -0.475276    38A     -0.464375    39A     -0.461409
      40A     -0.453395    41A     -0.449871    42A     -0.443746
      43A     -0.332346    44A     -0.318801

  @DF-RHF Final Energy:  -463.89394126770651

   => Energetics <=

    Nuclear Repulsion Energy =            675.8645341659303085
    One-Electron Energy =               -1967.5758287409685181
    Two-Electron Energy =                 827.8173533073317003
    Total Energy =                       -463.8939412677065093
  Basis Set: (AUG-CC-PVTZ AUX)
    Blend: AUG-CC-PVTZ-RI
    Molecular point group: c1

    Geometry (in Angstrom), charge = 0, multiplicity = 1:

       Center              X                  Y                   Z               Mass
    ------------   -----------------  -----------------  -----------------  -----------------
         C           -0.513947131175    -0.828097394871     0.214945694643    12.000000000000
         C           -2.826375131175    -0.227800394871    -0.270883305357    12.000000000000
         C           -1.444079131175    -0.333606394871    -0.916655305357    12.000000000000
         C           -1.217036131175    -0.370931394871     1.531788694643    12.000000000000
         C           -2.485269131175     0.377290605129     1.092932694643    12.000000000000
         C            0.904912868825    -0.341892394871     0.067410694643    12.000000000000
         C           -3.840992131175     0.565996605129    -1.081084305357    12.000000000000
         C            1.207180868825     1.024798605129     0.174396694643    12.000000000000
         C            1.951039868825    -1.233759394871    -0.198081305357    12.000000000000
         C            2.515538868825     1.483473605129     0.024142694643    12.000000000000
         C            3.263334868825    -0.779864394871    -0.351328305357    12.000000000000
         C            3.549590868825     0.581419605129    -0.241281305357    12.000000000000
         H           -0.495526131175    -1.925383394871     0.190169694643     1.007825032230
         H           -3.212812131175    -1.245468394871    -0.109341305357     1.007825032230
         H           -1.128688131175     0.664618605129    -1.249419305357     1.007825032230
         H           -1.416430131175    -0.991062394871    -1.793252305357     1.007825032230
         H           -0.557550131175     0.245003605129     2.150569694643     1.007825032230
         H           -1.483635131175    -1.248635394871     2.130776694643     1.007825032230
         H           -3.303740131175     0.299310605129     1.817460694643     1.007825032230
         H           -2.272204131175     1.446799605129     0.957302694643     1.007825032230
         H           -3.481020231175     1.570676105129    -1.328963305357     1.007825032230
         H           -4.021966131175     0.102276605129    -2.056089305357     1.007825032230
         H           -4.800258131175     0.635704605129    -0.557957305357     1.007825032230
         H            0.409889868825     1.737929605129     0.380876694643     1.007825032230
         H            1.735238868825    -2.297981394871    -0.282161305357     1.007825032230
         H            2.729689868825     2.546319605129     0.112959694643     1.007825032230
         H            4.061295868825    -1.490289394871    -0.555748305357     1.007825032230
         H            4.570047868825     0.938123605129    -0.358509305357     1.007825032230

  Basis Set: AUG-CC-PVTZ
    Blend: AUG-CC-PVTZ
  Basis Set: (AUG-CC-PVTZ AUX)
    Blend: AUG-CC-PVTZ-JKFIT
	 Reference Energy          =    -463.8939412677065093 [Eh]
	 Singles Energy            =      -0.0000000000000000 [Eh]
	 Same-Spin Energy          =      -0.5194869940485287 [Eh]
	 Opposite-Spin Energy      =      -1.7263912430901449 [Eh]
	 Correlation Energy        =      -2.2458782371386734 [Eh]
	 Total Energy              =    -466.1398195048452067 [Eh]

	 ================> DF-SCS-MP2 Energies <==================
	-----------------------------------------------------------
	 SCS Same-Spin Scale       =       0.3333333333333333 [-]
	 SCS Opposite-Spin Scale   =       1.2000000000000000 [-]
	 SCS Same-Spin Energy      =      -0.1731623313495096 [Eh]
	 SCS Opposite-Spin Energy  =      -2.0716694917081737 [Eh]
	 SCS Correlation Energy    =      -2.2448318230576834 [Eh]
	 SCS Total Energy          =    -466.1387730907641753 [Eh]
	-----------------------------------------------------------

  Dipole Moment: [D]
     X:    -0.5634      Y:    -0.1984      Z:     0.0180     Total:     0.5976

*** Psi4 exiting successfully. Buy a developer a beer!
