                               Psi4 1.4a3.dev225

  ==> Input File <==

--------------------------------------------------------------------------
#psi4
#
memory 32 gb

molecule  {
0 1
  C       -0.4577645    -0.7841619     0.2256528
  C       -2.7550300    -0.2335230    -0.2686280
  C       -1.3727340    -0.3393290    -0.9144000
  C       -1.1456910    -0.3766540     1.5340440
  C       -2.4139240     0.3715680     1.0951880
  C        0.9762580    -0.3476150     0.0696660
  C       -3.7696470     0.5602740    -1.0788290
  C        1.2785260     1.0190760     0.1766520
  C        2.0223850    -1.2394820    -0.1958260
  C        2.5868840     1.4777510     0.0263980
  C        3.3346800    -0.7855870    -0.3490730
  C        3.6209360     0.5756970    -0.2390260
  H       -0.4241810    -1.9311060     0.1924250
  H       -3.1414670    -1.2511910    -0.1070860
  H       -1.0573430     0.6588960    -1.2471640
  H       -1.3450850    -0.9967850    -1.7909970
  H       -0.4862050     0.2392810     2.1528250
  H       -1.4122900    -1.2543580     2.1330320
  H       -3.2323950     0.2935880     1.8197160
  H       -2.2008590     1.4410770     0.9595580
  H       -3.4037750     1.5784440    -1.2516650
  H       -3.9506210     0.0965540    -2.0538340
  H       -4.7289130     0.6299820    -0.5557020
  H        0.4812350     1.7322070     0.3831320
  H        1.8065840    -2.3037040    -0.2799060
  H        2.8010350     2.5405970     0.1152150
  H        4.1326410    -1.4960120    -0.5534930
  H        4.6413930     0.9324010    -0.3562540
units angstrom
no_reorient  #important for SAPT in psi4, default
symmetry c1  #important for SAPT in psi4, default
}

set PROPERTIES_ORIGIN ["COM"]
properties('MP2/aug-cc-pvtz', properties = ['dipole'])
--------------------------------------------------------------------------

    Molecular point group: c1
  Charge       = 0
  Multiplicity = 1
  Basis Set: AUG-CC-PVTZ
    Blend: AUG-CC-PVTZ
  Basis Set: (AUG-CC-PVTZ AUX)
    Blend: AUG-CC-PVTZ-JKFIT

    Orbital Energies [Eh]
    ---------------------

    Doubly Occupied:

       1A    -11.236529     2A    -11.233449     3A    -11.233235
       4A    -11.230399     5A    -11.229378     6A    -11.229113
       7A    -11.228071     8A    -11.221253     9A    -11.216035
      10A    -11.214989    11A    -11.214089    12A    -11.211622
      13A     -1.157628    14A     -1.127360    15A     -1.039625
      16A     -1.008613    17A     -0.990367    18A     -0.955007
      19A     -0.893217    20A     -0.825401    21A     -0.817444
      22A     -0.764554    23A     -0.753853    24A     -0.689466
      25A     -0.662147    26A     -0.636494    27A     -0.621458
      28A     -0.607355    29A     -0.586140    30A     -0.580233
      31A     -0.571288    32A     -0.555976    33A     -0.528677
      34A     -0.511944    35A     -0.510778    36A     -0.489774
      37A     -0.478924    38A     -0.466977    39A     -0.464086
      40A     -0.453767    41A     -0.444061    42A     -0.437952
      43A     -0.332490    44A     -0.320145

  @DF-RHF Final Energy:  -463.89075927127084

   => Energetics <=

    Nuclear Repulsion Energy =            676.5138051315830126
    One-Electron Energy =               -1968.8463974584221887
    Two-Electron Energy =                 828.4418330555683951
    Total Energy =                       -463.8907592712707810
  Basis Set: (AUG-CC-PVTZ AUX)
    Blend: AUG-CC-PVTZ-RI
    Molecular point group: c1

    Geometry (in Angstrom), charge = 0, multiplicity = 1:

       Center              X                  Y                   Z               Mass
    ------------   -----------------  -----------------  -----------------  -----------------
         C           -0.528010467952    -0.782245649284     0.222291786026    12.000000000000
         C           -2.825275967952    -0.231606749284    -0.271989013974    12.000000000000
         C           -1.442979967952    -0.337412749284    -0.917761013974    12.000000000000
         C           -1.215936967952    -0.374737749284     1.530682986026    12.000000000000
         C           -2.484169967952     0.373484250716     1.091826986026    12.000000000000
         C            0.906012032048    -0.345698749284     0.066304986026    12.000000000000
         C           -3.839892967952     0.562190250716    -1.082190013974    12.000000000000
         C            1.208280032048     1.020992250716     0.173290986026    12.000000000000
         C            1.952139032048    -1.237565749284    -0.199187013974    12.000000000000
         C            2.516638032048     1.479667250716     0.023036986026    12.000000000000
         C            3.264434032048    -0.783670749284    -0.352434013974    12.000000000000
         C            3.550690032048     0.577613250716    -0.242387013974    12.000000000000
         H           -0.494426967952    -1.929189749284     0.189063986026     1.007825032230
         H           -3.211712967952    -1.249274749284    -0.110447013974     1.007825032230
         H           -1.127588967952     0.660812250716    -1.250525013974     1.007825032230
         H           -1.415330967952    -0.994868749284    -1.794358013974     1.007825032230
         H           -0.556450967952     0.241197250716     2.149463986026     1.007825032230
         H           -1.482535967952    -1.252441749284     2.129670986026     1.007825032230
         H           -3.302640967952     0.295504250716     1.816354986026     1.007825032230
         H           -2.271104967952     1.442993250716     0.956196986026     1.007825032230
         H           -3.474020967952     1.580360250716    -1.255026013974     1.007825032230
         H           -4.020866967952     0.098470250716    -2.057195013974     1.007825032230
         H           -4.799158967952     0.631898250716    -0.559063013974     1.007825032230
         H            0.410989032048     1.734123250716     0.379770986026     1.007825032230
         H            1.736338032048    -2.301787749284    -0.283267013974     1.007825032230
         H            2.730789032048     2.542513250716     0.111853986026     1.007825032230
         H            4.062395032048    -1.494095749284    -0.556854013974     1.007825032230
         H            4.571147032048     0.934317250716    -0.359615013974     1.007825032230

  Basis Set: AUG-CC-PVTZ
    Blend: AUG-CC-PVTZ
  Basis Set: (AUG-CC-PVTZ AUX)
    Blend: AUG-CC-PVTZ-JKFIT
	 Reference Energy          =    -463.8907592712708379 [Eh]
	 Singles Energy            =      -0.0000000000000000 [Eh]
	 Same-Spin Energy          =      -0.5198853885562649 [Eh]
	 Opposite-Spin Energy      =      -1.7270220632278110 [Eh]
	 Correlation Energy        =      -2.2469074517840761 [Eh]
	 Total Energy              =    -466.1376667230549060 [Eh]

	 ================> DF-SCS-MP2 Energies <==================
	-----------------------------------------------------------
	 SCS Same-Spin Scale       =       0.3333333333333333 [-]
	 SCS Opposite-Spin Scale   =       1.2000000000000000 [-]
	 SCS Same-Spin Energy      =      -0.1732951295187549 [Eh]
	 SCS Opposite-Spin Energy  =      -2.0724264758733733 [Eh]
	 SCS Correlation Energy    =      -2.2457216053921281 [Eh]
	 SCS Total Energy          =    -466.1364808766629722 [Eh]
	-----------------------------------------------------------

  Dipole Moment: [D]
     X:    -0.5500      Y:    -0.1628      Z:     0.0420     Total:     0.5752

*** Psi4 exiting successfully. Buy a developer a beer!
