                               Psi4 1.4a3.dev225

  ==> Input File <==

--------------------------------------------------------------------------
#psi4
#
memory 32 gb

molecule  {
0 1
  C       -0.4426020    -0.8338200     0.2172010
  C       -2.7550300    -0.2335230    -0.2686280
  C       -1.3727340    -0.3393290    -0.9144000
  C       -1.1456910    -0.3766540     1.5340440
  C       -2.4139240     0.3715680     1.0951880
  C        1.1645491    -0.2830927     0.0500872
  C       -3.7696470     0.5602740    -1.0788290
  C        1.2785260     1.0190760     0.1766520
  C        2.0223850    -1.2394820    -0.1958260
  C        2.5868840     1.4777510     0.0263980
  C        3.3346800    -0.7855870    -0.3490730
  C        3.6209360     0.5756970    -0.2390260
  H       -0.4241810    -1.9311060     0.1924250
  H       -3.1414670    -1.2511910    -0.1070860
  H       -1.0573430     0.6588960    -1.2471640
  H       -1.3450850    -0.9967850    -1.7909970
  H       -0.4862050     0.2392810     2.1528250
  H       -1.4122900    -1.2543580     2.1330320
  H       -3.2323950     0.2935880     1.8197160
  H       -2.2008590     1.4410770     0.9595580
  H       -3.4037750     1.5784440    -1.2516650
  H       -3.9506210     0.0965540    -2.0538340
  H       -4.7289130     0.6299820    -0.5557020
  H        0.4812350     1.7322070     0.3831320
  H        1.8065840    -2.3037040    -0.2799060
  H        2.8010350     2.5405970     0.1152150
  H        4.1326410    -1.4960120    -0.5534930
  H        4.6413930     0.9324010    -0.3562540
units angstrom
no_reorient  #important for SAPT in psi4, default
symmetry c1  #important for SAPT in psi4, default
}

set PROPERTIES_ORIGIN ["COM"]
properties('MP2/aug-cc-pvtz', properties = ['dipole'])
--------------------------------------------------------------------------

    Molecular point group: c1
  Charge       = 0
  Multiplicity = 1
  Basis Set: AUG-CC-PVTZ
    Blend: AUG-CC-PVTZ
  Basis Set: (AUG-CC-PVTZ AUX)
    Blend: AUG-CC-PVTZ-JKFIT

    Orbital Energies [Eh]
    ---------------------

    Doubly Occupied:

       1A    -11.235311     2A    -11.234517     3A    -11.230114
       4A    -11.227770     5A    -11.225820     6A    -11.220814
       7A    -11.219837     8A    -11.218412     9A    -11.212767
      10A    -11.212050    11A    -11.210514    12A    -11.209551
      13A     -1.171406    14A     -1.122826    15A     -1.028144
      16A     -1.023401    17A     -0.990007    18A     -0.950934
      19A     -0.884726    20A     -0.836017    21A     -0.809381
      22A     -0.760251    23A     -0.754162    24A     -0.696061
      25A     -0.654804    26A     -0.635189    27A     -0.626371
      28A     -0.603825    29A     -0.597117    30A     -0.580073
      31A     -0.569337    32A     -0.551262    33A     -0.527877
      34A     -0.519678    35A     -0.508527    36A     -0.504896
      37A     -0.469190    38A     -0.459990    39A     -0.457897
      40A     -0.448576    41A     -0.444586    42A     -0.400599
      43A     -0.337666    44A     -0.334937

  @DF-RHF Final Energy:  -463.85494305689690

   => Energetics <=

    Nuclear Repulsion Energy =            676.2272728696138984
    One-Electron Energy =               -1968.3300498435423833
    Two-Electron Energy =                 828.2478339170315849
    Total Energy =                       -463.8549430568969001
  Basis Set: (AUG-CC-PVTZ AUX)
    Blend: AUG-CC-PVTZ-RI
    Molecular point group: c1

    Geometry (in Angstrom), charge = 0, multiplicity = 1:

       Center              X                  Y                   Z               Mass
    ------------   -----------------  -----------------  -----------------  -----------------
         C           -0.528095057056    -0.833017692620     0.215940637260    12.000000000000
         C           -2.840523057056    -0.232720692620    -0.269888362740    12.000000000000
         C           -1.458227057056    -0.338526692620    -0.915660362740    12.000000000000
         C           -1.231184057056    -0.375851692620     1.532783637260    12.000000000000
         C           -2.499417057056     0.372370307380     1.093927637260    12.000000000000
         C            1.079056042944    -0.282290392620     0.048826837260    12.000000000000
         C           -3.855140057056     0.561076307380    -1.080089362740    12.000000000000
         C            1.193032942944     1.019878307380     0.175391637260    12.000000000000
         C            1.936891942944    -1.238679692620    -0.197086362740    12.000000000000
         C            2.501390942944     1.478553307380     0.025137637260    12.000000000000
         C            3.249186942944    -0.784784692620    -0.350333362740    12.000000000000
         C            3.535442942944     0.576499307380    -0.240286362740    12.000000000000
         H           -0.509674057056    -1.930303692620     0.191164637260     1.007825032230
         H           -3.226960057056    -1.250388692620    -0.108346362740     1.007825032230
         H           -1.142836057056     0.659698307380    -1.248424362740     1.007825032230
         H           -1.430578057056    -0.995982692620    -1.792257362740     1.007825032230
         H           -0.571698057056     0.240083307380     2.151564637260     1.007825032230
         H           -1.497783057056    -1.253555692620     2.131771637260     1.007825032230
         H           -3.317888057056     0.294390307380     1.818455637260     1.007825032230
         H           -2.286352057056     1.441879307380     0.958297637260     1.007825032230
         H           -3.489268057056     1.579246307380    -1.252925362740     1.007825032230
         H           -4.036114057056     0.097356307380    -2.055094362740     1.007825032230
         H           -4.814406057056     0.630784307380    -0.556962362740     1.007825032230
         H            0.395741942944     1.733009307380     0.381871637260     1.007825032230
         H            1.721090942944    -2.302901692620    -0.281166362740     1.007825032230
         H            2.715541942944     2.541399307380     0.113954637260     1.007825032230
         H            4.047147942944    -1.495209692620    -0.554753362740     1.007825032230
         H            4.555899942944     0.933203307380    -0.357514362740     1.007825032230

  Basis Set: AUG-CC-PVTZ
    Blend: AUG-CC-PVTZ
  Basis Set: (AUG-CC-PVTZ AUX)
    Blend: AUG-CC-PVTZ-JKFIT
	 Reference Energy          =    -463.8549430568969001 [Eh]
	 Singles Energy            =      -0.0000000000000000 [Eh]
	 Same-Spin Energy          =      -0.5196436161554567 [Eh]
	 Opposite-Spin Energy      =      -1.7268138059279949 [Eh]
	 Correlation Energy        =      -2.2464574220834517 [Eh]
	 Total Energy              =    -466.1014004789803380 [Eh]

	 ================> DF-SCS-MP2 Energies <==================
	-----------------------------------------------------------
	 SCS Same-Spin Scale       =       0.3333333333333333 [-]
	 SCS Opposite-Spin Scale   =       1.2000000000000000 [-]
	 SCS Same-Spin Energy      =      -0.1732145387184856 [Eh]
	 SCS Opposite-Spin Energy  =      -2.0721765671135937 [Eh]
	 SCS Correlation Energy    =      -2.2453911058320792 [Eh]
	 SCS Total Energy          =    -466.1003341627289842 [Eh]
	-----------------------------------------------------------

  Dipole Moment: [D]
     X:    -0.2237      Y:    -0.1755      Z:     0.0108     Total:     0.2845

*** Psi4 exiting successfully. Buy a developer a beer!
