                               Psi4 1.4a3.dev225

  ==> Input File <==

--------------------------------------------------------------------------
#psi4
#
memory 32 gb

molecule  {
0 1
  C       -0.4426020    -0.8338200     0.2172010
  C       -2.7550300    -0.2335230    -0.2686280
  C       -1.3727340    -0.3393290    -0.9144000
  C       -1.1456910    -0.3766540     1.5340440
  C       -2.4139240     0.3715680     1.0951880
  C        0.9762580    -0.3476150     0.0696660
  C       -3.7696470     0.5602740    -1.0788290
  C        1.2785260     1.0190760     0.1766520
  C        2.0223850    -1.2394820    -0.1958260
  C        2.5868840     1.4777510     0.0263980
  C        3.3158927    -0.7920851    -0.3468791
  C        3.6209360     0.5756970    -0.2390260
  H       -0.4241810    -1.9311060     0.1924250
  H       -3.1414670    -1.2511910    -0.1070860
  H       -1.0573430     0.6588960    -1.2471640
  H       -1.3450850    -0.9967850    -1.7909970
  H       -0.4862050     0.2392810     2.1528250
  H       -1.4122900    -1.2543580     2.1330320
  H       -3.2323950     0.2935880     1.8197160
  H       -2.2008590     1.4410770     0.9595580
  H       -3.4037750     1.5784440    -1.2516650
  H       -3.9506210     0.0965540    -2.0538340
  H       -4.7289130     0.6299820    -0.5557020
  H        0.4812350     1.7322070     0.3831320
  H        1.8065840    -2.3037040    -0.2799060
  H        2.8010350     2.5405970     0.1152150
  H        4.1326410    -1.4960120    -0.5534930
  H        4.6413930     0.9324010    -0.3562540
units angstrom
no_reorient  #important for SAPT in psi4, default
symmetry c1  #important for SAPT in psi4, default
}

set PROPERTIES_ORIGIN ["COM"]
properties('MP2/aug-cc-pvtz', properties = ['dipole'])
--------------------------------------------------------------------------

    Molecular point group: c1
  Charge       = 0
  Multiplicity = 1
  Basis Set: AUG-CC-PVTZ
    Blend: AUG-CC-PVTZ
  Basis Set: (AUG-CC-PVTZ AUX)
    Blend: AUG-CC-PVTZ-JKFIT

    Orbital Energies [Eh]
    ---------------------

    Doubly Occupied:

       1A    -11.236621     2A    -11.233465     3A    -11.232586
       4A    -11.229641     5A    -11.228400     6A    -11.227966
       7A    -11.226100     8A    -11.221182     9A    -11.216697
      10A    -11.214888    11A    -11.214771    12A    -11.211599
      13A     -1.156708    14A     -1.125078    15A     -1.038760
      16A     -1.010690    17A     -0.988007    18A     -0.953644
      19A     -0.892820    20A     -0.825753    21A     -0.816341
      22A     -0.763600    23A     -0.756972    24A     -0.690098
      25A     -0.660625    26A     -0.634158    27A     -0.622574
      28A     -0.605674    29A     -0.585674    30A     -0.579844
      31A     -0.574481    32A     -0.556068    33A     -0.529013
      34A     -0.511558    35A     -0.510533    36A     -0.487353
      37A     -0.475510    38A     -0.463443    39A     -0.461450
      40A     -0.453915    41A     -0.450217    42A     -0.444026
      43A     -0.334773    44A     -0.317165

  @DF-RHF Final Energy:  -463.89391139886908

   => Energetics <=

    Nuclear Repulsion Energy =            676.1933710691346278
    One-Electron Energy =               -1968.2336851160739570
    Two-Electron Energy =                 828.1464026480701932
    Total Energy =                       -463.8939113988691361
  Basis Set: (AUG-CC-PVTZ AUX)
    Blend: AUG-CC-PVTZ-RI
    Molecular point group: c1

    Geometry (in Angstrom), charge = 0, multiplicity = 1:

       Center              X                  Y                   Z               Mass
    ------------   -----------------  -----------------  -----------------  -----------------
         C           -0.512576320517    -0.827695327388     0.214308961552    12.000000000000
         C           -2.825004320517    -0.227398327388    -0.271520038448    12.000000000000
         C           -1.442708320517    -0.333204327388    -0.917292038448    12.000000000000
         C           -1.215665320517    -0.370529327388     1.531151961552    12.000000000000
         C           -2.483898320517     0.377692672612     1.092295961552    12.000000000000
         C            0.906283679483    -0.341490327388     0.066773961552    12.000000000000
         C           -3.839621320517     0.566398672612    -1.081721038448    12.000000000000
         C            1.208551679483     1.025200672612     0.173759961552    12.000000000000
         C            1.952410679483    -1.233357327388    -0.198718038448    12.000000000000
         C            2.516909679483     1.483875672612     0.023505961552    12.000000000000
         C            3.245918379483    -0.785960427388    -0.349771138448    12.000000000000
         C            3.550961679483     0.581821672612    -0.241918038448    12.000000000000
         H           -0.494155320517    -1.924981327388     0.189532961552     1.007825032230
         H           -3.211441320517    -1.245066327388    -0.109978038448     1.007825032230
         H           -1.127317320517     0.665020672612    -1.250056038448     1.007825032230
         H           -1.415059320517    -0.990660327388    -1.793889038448     1.007825032230
         H           -0.556179320517     0.245405672612     2.149932961552     1.007825032230
         H           -1.482264320517    -1.248233327388     2.130139961552     1.007825032230
         H           -3.302369320517     0.299712672612     1.816823961552     1.007825032230
         H           -2.270833320517     1.447201672612     0.956665961552     1.007825032230
         H           -3.473749320517     1.584568672612    -1.254557038448     1.007825032230
         H           -4.020595320517     0.102678672612    -2.056726038448     1.007825032230
         H           -4.798887320517     0.636106672612    -0.558594038448     1.007825032230
         H            0.411260679483     1.738331672612     0.380239961552     1.007825032230
         H            1.736609679483    -2.297579327388    -0.282798038448     1.007825032230
         H            2.731060679483     2.546721672612     0.112322961552     1.007825032230
         H            4.062666679483    -1.489887327388    -0.556385038448     1.007825032230
         H            4.571418679483     0.938525672612    -0.359146038448     1.007825032230

  Basis Set: AUG-CC-PVTZ
    Blend: AUG-CC-PVTZ
  Basis Set: (AUG-CC-PVTZ AUX)
    Blend: AUG-CC-PVTZ-JKFIT
	 Reference Energy          =    -463.8939113988690792 [Eh]
	 Singles Energy            =      -0.0000000000000000 [Eh]
	 Same-Spin Energy          =      -0.5195530838542072 [Eh]
	 Opposite-Spin Energy      =      -1.7264334222018747 [Eh]
	 Correlation Energy        =      -2.2459865060560817 [Eh]
	 Total Energy              =    -466.1398979049251352 [Eh]

	 ================> DF-SCS-MP2 Energies <==================
	-----------------------------------------------------------
	 SCS Same-Spin Scale       =       0.3333333333333333 [-]
	 SCS Opposite-Spin Scale   =       1.2000000000000000 [-]
	 SCS Same-Spin Energy      =      -0.1731843612847357 [Eh]
	 SCS Opposite-Spin Energy  =      -2.0717201066422497 [Eh]
	 SCS Correlation Energy    =      -2.2449044679269856 [Eh]
	 SCS Total Energy          =    -466.1388158667960511 [Eh]
	-----------------------------------------------------------

  Dipole Moment: [D]
     X:    -0.5705      Y:    -0.1978      Z:     0.0380     Total:     0.6050

*** Psi4 exiting successfully. Buy a developer a beer!
