                               Psi4 1.4a3.dev225

  ==> Input File <==

--------------------------------------------------------------------------
#psi4
#
memory 32 gb

molecule  {
0 1
  C       -0.4426020    -0.8338200     0.2172010
  C       -2.7550300    -0.2335230    -0.2686280
  C       -1.3727340    -0.3393290    -0.9144000
  C       -1.1456910    -0.3766540     1.5340440
  C       -2.4139240     0.3715680     1.0951880
  C        0.9762580    -0.3476150     0.0696660
  C       -3.7696470     0.5602740    -1.0788290
  C        1.2785260     1.0190760     0.1766520
  C        2.0223850    -1.2394820    -0.1958260
  C        2.5868840     1.4777510     0.0263980
  C        3.3346800    -0.7855870    -0.3490730
  C        3.6522569     0.6130947    -0.2396188
  H       -0.4241810    -1.9311060     0.1924250
  H       -3.1414670    -1.2511910    -0.1070860
  H       -1.0573430     0.6588960    -1.2471640
  H       -1.3450850    -0.9967850    -1.7909970
  H       -0.4862050     0.2392810     2.1528250
  H       -1.4122900    -1.2543580     2.1330320
  H       -3.2323950     0.2935880     1.8197160
  H       -2.2008590     1.4410770     0.9595580
  H       -3.4037750     1.5784440    -1.2516650
  H       -3.9506210     0.0965540    -2.0538340
  H       -4.7289130     0.6299820    -0.5557020
  H        0.4812350     1.7322070     0.3831320
  H        1.8065840    -2.3037040    -0.2799060
  H        2.8010350     2.5405970     0.1152150
  H        4.1326410    -1.4960120    -0.5534930
  H        4.6413930     0.9324010    -0.3562540
units angstrom
no_reorient  #important for SAPT in psi4, default
symmetry c1  #important for SAPT in psi4, default
}

set PROPERTIES_ORIGIN ["COM"]
properties('MP2/aug-cc-pvtz', properties = ['dipole'])
--------------------------------------------------------------------------

    Molecular point group: c1
  Charge       = 0
  Multiplicity = 1
  Basis Set: AUG-CC-PVTZ
    Blend: AUG-CC-PVTZ
  Basis Set: (AUG-CC-PVTZ AUX)
    Blend: AUG-CC-PVTZ-JKFIT

    Orbital Energies [Eh]
    ---------------------

    Doubly Occupied:

       1A    -11.237747     2A    -11.237559     3A    -11.234140
       4A    -11.230047     5A    -11.228702     6A    -11.228374
       7A    -11.228129     8A    -11.221338     9A    -11.216921
      10A    -11.215049    11A    -11.214999    12A    -11.211701
      13A     -1.154155    14A     -1.123164    15A     -1.038442
      16A     -1.006696    17A     -0.988115    18A     -0.954214
      19A     -0.893312    20A     -0.826990    21A     -0.815211
      22A     -0.763708    23A     -0.757600    24A     -0.692664
      25A     -0.660884    26A     -0.638537    27A     -0.620412
      28A     -0.605951    29A     -0.584920    30A     -0.577022
      31A     -0.574446    32A     -0.557715    33A     -0.532473
      34A     -0.515192    35A     -0.508431    36A     -0.484338
      37A     -0.475701    38A     -0.463301    39A     -0.460797
      40A     -0.453846    41A     -0.450124    42A     -0.444240
      43A     -0.332586    44A     -0.316093

  @DF-RHF Final Energy:  -463.89083097307127

   => Energetics <=

    Nuclear Repulsion Energy =            675.1216271022927913
    One-Electron Energy =               -1966.0729461941593854
    Two-Electron Energy =                 827.0604881187952060
    Total Energy =                       -463.8908309730712745
  Basis Set: (AUG-CC-PVTZ AUX)
    Blend: AUG-CC-PVTZ-RI
    Molecular point group: c1

    Geometry (in Angstrom), charge = 0, multiplicity = 1:

       Center              X                  Y                   Z               Mass
    ------------   -----------------  -----------------  -----------------  -----------------
         C           -0.516331497079    -0.830984938257     0.214517800634    12.000000000000
         C           -2.828759497079    -0.230687938257    -0.271311199366    12.000000000000
         C           -1.446463497079    -0.336493938257    -0.917083199366    12.000000000000
         C           -1.219420497079    -0.373818938257     1.531360800634    12.000000000000
         C           -2.487653497079     0.374403061743     1.092504800634    12.000000000000
         C            0.902528502921    -0.344779938257     0.066982800634    12.000000000000
         C           -3.843376497079     0.563109061743    -1.081512199366    12.000000000000
         C            1.204796502921     1.021911061743     0.173968800634    12.000000000000
         C            1.948655502921    -1.236646938257    -0.198509199366    12.000000000000
         C            2.513154502921     1.480586061743     0.023714800634    12.000000000000
         C            3.260950502921    -0.782751938257    -0.351756199366    12.000000000000
         C            3.578527402921     0.615929761743    -0.242301999366    12.000000000000
         H           -0.497910497079    -1.928270938257     0.189741800634     1.007825032230
         H           -3.215196497079    -1.248355938257    -0.109769199366     1.007825032230
         H           -1.131072497079     0.661731061743    -1.249847199366     1.007825032230
         H           -1.418814497079    -0.993949938257    -1.793680199366     1.007825032230
         H           -0.559934497079     0.242116061743     2.150141800634     1.007825032230
         H           -1.486019497079    -1.251522938257     2.130348800634     1.007825032230
         H           -3.306124497079     0.296423061743     1.817032800634     1.007825032230
         H           -2.274588497079     1.443912061743     0.956874800634     1.007825032230
         H           -3.477504497079     1.581279061743    -1.254348199366     1.007825032230
         H           -4.024350497079     0.099389061743    -2.056517199366     1.007825032230
         H           -4.802642497079     0.632817061743    -0.558385199366     1.007825032230
         H            0.407505502921     1.735042061743     0.380448800634     1.007825032230
         H            1.732854502921    -2.300868938257    -0.282589199366     1.007825032230
         H            2.727305502921     2.543432061743     0.112531800634     1.007825032230
         H            4.058911502921    -1.493176938257    -0.556176199366     1.007825032230
         H            4.567663502921     0.935236061743    -0.358937199366     1.007825032230

  Basis Set: AUG-CC-PVTZ
    Blend: AUG-CC-PVTZ
  Basis Set: (AUG-CC-PVTZ AUX)
    Blend: AUG-CC-PVTZ-JKFIT
	 Reference Energy          =    -463.8908309730712745 [Eh]
	 Singles Energy            =      -0.0000000000000000 [Eh]
	 Same-Spin Energy          =      -0.5195241934782040 [Eh]
	 Opposite-Spin Energy      =      -1.7268150152263169 [Eh]
	 Correlation Energy        =      -2.2463392087045211 [Eh]
	 Total Energy              =    -466.1371701817757867 [Eh]

	 ================> DF-SCS-MP2 Energies <==================
	-----------------------------------------------------------
	 SCS Same-Spin Scale       =       0.3333333333333333 [-]
	 SCS Opposite-Spin Scale   =       1.2000000000000000 [-]
	 SCS Same-Spin Energy      =      -0.1731747311594013 [Eh]
	 SCS Opposite-Spin Energy  =      -2.0721780182715803 [Eh]
	 SCS Correlation Energy    =      -2.2453527494309817 [Eh]
	 SCS Total Energy          =    -466.1361837225022668 [Eh]
	-----------------------------------------------------------

  Dipole Moment: [D]
     X:    -0.5714      Y:    -0.2071      Z:     0.0359     Total:     0.6088

*** Psi4 exiting successfully. Buy a developer a beer!
