                               Psi4 1.4a3.dev225

  ==> Input File <==

--------------------------------------------------------------------------
#psi4
#
memory 32 gb

molecule  {
0 1
  C       -0.4426020    -0.8338200     0.2172010
  C       -2.7550300    -0.2335230    -0.2686280
  C       -1.3727340    -0.3393290    -0.9144000
  C       -1.1456910    -0.3766540     1.5340440
  C       -2.4139240     0.3715680     1.0951880
  C        0.9762580    -0.3476150     0.0696660
  C       -3.7696470     0.5602740    -1.0788290
  C        1.2785260     1.0190760     0.1766520
  C        2.0223850    -1.2394820    -0.1958260
  C        2.5868840     1.4777510     0.0263980
  C        3.3346800    -0.7855870    -0.3490730
  C        3.6209360     0.5756970    -0.2390260
  H       -0.4241810    -1.9311060     0.1924250
  H       -3.1414670    -1.2511910    -0.1070860
  H       -1.0573430     0.6588960    -1.2471640
  H       -1.3450850    -0.9967850    -1.7909970
  H       -0.4862050     0.2392810     2.1528250
  H       -1.4122900    -1.2543580     2.1330320
  H       -3.2323950     0.2935880     1.8197160
  H       -2.2008590     1.4410770     0.9595580
  H       -3.4037750     1.5784440    -1.2516650
  H       -3.9506210     0.0965540    -2.0538340
  H       -4.7289130     0.6299820    -0.5557020
  H        0.4812350     1.7322070     0.3831320
  H        1.8065840    -2.3037040    -0.2799060
  H        2.8010350     2.5405970     0.1152150
  H        4.1326410    -1.4960120    -0.5534930
  H        4.6601628     0.9389620    -0.3584102
units angstrom
no_reorient  #important for SAPT in psi4, default
symmetry c1  #important for SAPT in psi4, default
}

set PROPERTIES_ORIGIN ["COM"]
properties('MP2/aug-cc-pvtz', properties = ['dipole'])
--------------------------------------------------------------------------

    Molecular point group: c1
  Charge       = 0
  Multiplicity = 1
  Basis Set: AUG-CC-PVTZ
    Blend: AUG-CC-PVTZ
  Basis Set: (AUG-CC-PVTZ AUX)
    Blend: AUG-CC-PVTZ-JKFIT

    Orbital Energies [Eh]
    ---------------------

    Doubly Occupied:

       1A    -11.236575     2A    -11.233869     3A    -11.233118
       4A    -11.231104     5A    -11.228573     6A    -11.228429
       7A    -11.228262     8A    -11.221204     9A    -11.216737
      10A    -11.214924    11A    -11.214780    12A    -11.211615
      13A     -1.156050    14A     -1.124817    15A     -1.039258
      16A     -1.008586    17A     -0.988306    18A     -0.953605
      19A     -0.892521    20A     -0.826304    21A     -0.815607
      22A     -0.763629    23A     -0.757152    24A     -0.688306
      25A     -0.660360    26A     -0.634399    27A     -0.621901
      28A     -0.606348    29A     -0.586181    30A     -0.580068
      31A     -0.573357    32A     -0.555779    33A     -0.527959
      34A     -0.510282    35A     -0.510000    36A     -0.490104
      37A     -0.475240    38A     -0.463433    39A     -0.461268
      40A     -0.453746    41A     -0.450342    42A     -0.443866
      43A     -0.332477    44A     -0.318895

  @DF-RHF Final Energy:  -463.89377092152495

   => Energetics <=

    Nuclear Repulsion Energy =            675.8366311091912166
    One-Electron Energy =               -1967.5221230249558175
    Two-Electron Energy =                 827.7917209942395402
    Total Energy =                       -463.8937709215249470
  Basis Set: (AUG-CC-PVTZ AUX)
    Blend: AUG-CC-PVTZ-RI
    Molecular point group: c1

    Geometry (in Angstrom), charge = 0, multiplicity = 1:

       Center              X                  Y                   Z               Mass
    ------------   -----------------  -----------------  -----------------  -----------------
         C           -0.514102403067    -0.828223598639     0.214486946480    12.000000000000
         C           -2.826530403067    -0.227926598639    -0.271342053520    12.000000000000
         C           -1.444234403067    -0.333732598639    -0.917114053520    12.000000000000
         C           -1.217191403067    -0.371057598639     1.531329946480    12.000000000000
         C           -2.485424403067     0.377164401361     1.092473946480    12.000000000000
         C            0.904757596933    -0.342018598639     0.066951946480    12.000000000000
         C           -3.841147403067     0.565870401361    -1.081543053520    12.000000000000
         C            1.207025596933     1.024672401361     0.173937946480    12.000000000000
         C            1.950884596933    -1.233885598639    -0.198540053520    12.000000000000
         C            2.515383596933     1.483347401361     0.023683946480    12.000000000000
         C            3.263179596933    -0.779990598639    -0.351787053520    12.000000000000
         C            3.549435596933     0.581293401361    -0.241740053520    12.000000000000
         H           -0.495681403067    -1.925509598639     0.189710946480     1.007825032230
         H           -3.212967403067    -1.245594598639    -0.109800053520     1.007825032230
         H           -1.128843403067     0.664492401361    -1.249878053520     1.007825032230
         H           -1.416585403067    -0.991188598639    -1.793711053520     1.007825032230
         H           -0.557705403067     0.244877401361     2.150110946480     1.007825032230
         H           -1.483790403067    -1.248761598639     2.130317946480     1.007825032230
         H           -3.303895403067     0.299184401361     1.817001946480     1.007825032230
         H           -2.272359403067     1.446673401361     0.956843946480     1.007825032230
         H           -3.475275403067     1.584040401361    -1.254379053520     1.007825032230
         H           -4.022121403067     0.102150401361    -2.056548053520     1.007825032230
         H           -4.800413403067     0.635578401361    -0.558416053520     1.007825032230
         H            0.409734596933     1.737803401361     0.380417946480     1.007825032230
         H            1.735083596933    -2.298107598639    -0.282620053520     1.007825032230
         H            2.729534596933     2.546193401361     0.112500946480     1.007825032230
         H            4.061140596933    -1.490415598639    -0.556207053520     1.007825032230
         H            4.588662396933     0.944558401361    -0.361124253520     1.007825032230

  Basis Set: AUG-CC-PVTZ
    Blend: AUG-CC-PVTZ
  Basis Set: (AUG-CC-PVTZ AUX)
    Blend: AUG-CC-PVTZ-JKFIT
	 Reference Energy          =    -463.8937709215249470 [Eh]
	 Singles Energy            =      -0.0000000000000000 [Eh]
	 Same-Spin Energy          =      -0.5195430134889339 [Eh]
	 Opposite-Spin Energy      =      -1.7265929314614150 [Eh]
	 Correlation Energy        =      -2.2461359449503489 [Eh]
	 Total Energy              =    -466.1399068664753145 [Eh]

	 ================> DF-SCS-MP2 Energies <==================
	-----------------------------------------------------------
	 SCS Same-Spin Scale       =       0.3333333333333333 [-]
	 SCS Opposite-Spin Scale   =       1.2000000000000000 [-]
	 SCS Same-Spin Energy      =      -0.1731810044963113 [Eh]
	 SCS Opposite-Spin Energy  =      -2.0719115177536978 [Eh]
	 SCS Correlation Energy    =      -2.2450925222500091 [Eh]
	 SCS Total Energy          =    -466.1388634437749374 [Eh]
	-----------------------------------------------------------

  Dipole Moment: [D]
     X:    -0.5786      Y:    -0.2056      Z:     0.0383     Total:     0.6152

*** Psi4 exiting successfully. Buy a developer a beer!
