                               Psi4 1.4a3.dev225

  ==> Input File <==

--------------------------------------------------------------------------
#psi4
#
memory 32 gb

molecule  {
0 1
  C       -0.4426020    -0.8338200     0.2172010
  C       -2.7550300    -0.2335230    -0.2686280
  C       -1.3847666    -0.3329321    -0.9290389
  C       -1.1456910    -0.3766540     1.5340440
  C       -2.4139240     0.3715680     1.0951880
  C        0.9762580    -0.3476150     0.0696660
  C       -3.7696470     0.5602740    -1.0788290
  C        1.2785260     1.0190760     0.1766520
  C        2.0223850    -1.2394820    -0.1958260
  C        2.5868840     1.4777510     0.0263980
  C        3.3346800    -0.7855870    -0.3490730
  C        3.6209360     0.5756970    -0.2390260
  H       -0.4241810    -1.9311060     0.1924250
  H       -3.1414670    -1.2511910    -0.1070860
  H       -1.0573430     0.6588960    -1.2471640
  H       -1.3450850    -0.9967850    -1.7909970
  H       -0.4862050     0.2392810     2.1528250
  H       -1.4122900    -1.2543580     2.1330320
  H       -3.2323950     0.2935880     1.8197160
  H       -2.2008590     1.4410770     0.9595580
  H       -3.4037750     1.5784440    -1.2516650
  H       -3.9506210     0.0965540    -2.0538340
  H       -4.7289130     0.6299820    -0.5557020
  H        0.4812350     1.7322070     0.3831320
  H        1.8065840    -2.3037040    -0.2799060
  H        2.8010350     2.5405970     0.1152150
  H        4.1326410    -1.4960120    -0.5534930
  H        4.6413930     0.9324010    -0.3562540
units angstrom
no_reorient  #important for SAPT in psi4, default
symmetry c1  #important for SAPT in psi4, default
}

set PROPERTIES_ORIGIN ["COM"]
properties('MP2/aug-cc-pvtz', properties = ['dipole'])
--------------------------------------------------------------------------

    Molecular point group: c1
  Charge       = 0
  Multiplicity = 1
  Basis Set: AUG-CC-PVTZ
    Blend: AUG-CC-PVTZ
  Basis Set: (AUG-CC-PVTZ AUX)
    Blend: AUG-CC-PVTZ-JKFIT

    Orbital Energies [Eh]
    ---------------------

    Doubly Occupied:

       1A    -11.236398     2A    -11.233537     3A    -11.232797
       4A    -11.228998     5A    -11.228833     6A    -11.228312
       7A    -11.228000     8A    -11.221068     9A    -11.216653
      10A    -11.215055    11A    -11.214342    12A    -11.211277
      13A     -1.155329    14A     -1.124220    15A     -1.039191
      16A     -1.008364    17A     -0.988654    18A     -0.952647
      19A     -0.892815    20A     -0.826378    21A     -0.816176
      22A     -0.764156    23A     -0.757169    24A     -0.689444
      25A     -0.660674    26A     -0.634753    27A     -0.621611
      28A     -0.606177    29A     -0.586251    30A     -0.580305
      31A     -0.573450    32A     -0.556347    33A     -0.529285
      34A     -0.510634    35A     -0.509134    36A     -0.490169
      37A     -0.476009    38A     -0.462063    39A     -0.461193
      40A     -0.455221    41A     -0.449602    42A     -0.443945
      43A     -0.332298    44A     -0.318348

  @DF-RHF Final Energy:  -463.89422934244357

   => Energetics <=

    Nuclear Repulsion Energy =            675.6906314181070456
    One-Electron Energy =               -1967.2351572685781775
    Two-Electron Energy =                 827.6502965080273952
    Total Energy =                       -463.8942293424436230
  Basis Set: (AUG-CC-PVTZ AUX)
    Blend: AUG-CC-PVTZ-RI
    Molecular point group: c1

    Geometry (in Angstrom), charge = 0, multiplicity = 1:

       Center              X                  Y                   Z               Mass
    ------------   -----------------  -----------------  -----------------  -----------------
         C           -0.513082526909    -0.828661696201     0.215570434445    12.000000000000
         C           -2.825510526909    -0.228364696201    -0.270258565555    12.000000000000
         C           -1.455247126909    -0.327773796201    -0.930669465555    12.000000000000
         C           -1.216171526909    -0.371495696201     1.532413434445    12.000000000000
         C           -2.484404526909     0.376726303799     1.093557434445    12.000000000000
         C            0.905777473091    -0.342456696201     0.068035434445    12.000000000000
         C           -3.840127526909     0.565432303799    -1.080459565555    12.000000000000
         C            1.208045473091     1.024234303799     0.175021434445    12.000000000000
         C            1.951904473091    -1.234323696201    -0.197456565555    12.000000000000
         C            2.516403473091     1.482909303799     0.024767434445    12.000000000000
         C            3.264199473091    -0.780428696201    -0.350703565555    12.000000000000
         C            3.550455473091     0.580855303799    -0.240656565555    12.000000000000
         H           -0.494661526909    -1.925947696201     0.190794434445     1.007825032230
         H           -3.211947526909    -1.246032696201    -0.108716565555     1.007825032230
         H           -1.127823526909     0.664054303799    -1.248794565555     1.007825032230
         H           -1.415565526909    -0.991626696201    -1.792627565555     1.007825032230
         H           -0.556685526909     0.244439303799     2.151194434445     1.007825032230
         H           -1.482770526909    -1.249199696201     2.131401434445     1.007825032230
         H           -3.302875526909     0.298746303799     1.818085434445     1.007825032230
         H           -2.271339526909     1.446235303799     0.957927434445     1.007825032230
         H           -3.474255526909     1.583602303799    -1.253295565555     1.007825032230
         H           -4.021101526909     0.101712303799    -2.055464565555     1.007825032230
         H           -4.799393526909     0.635140303799    -0.557332565555     1.007825032230
         H            0.410754473091     1.737365303799     0.381501434445     1.007825032230
         H            1.736103473091    -2.298545696201    -0.281536565555     1.007825032230
         H            2.730554473091     2.545755303799     0.113584434445     1.007825032230
         H            4.062160473091    -1.490853696201    -0.555123565555     1.007825032230
         H            4.570912473091     0.937559303799    -0.357884565555     1.007825032230

  Basis Set: AUG-CC-PVTZ
    Blend: AUG-CC-PVTZ
  Basis Set: (AUG-CC-PVTZ AUX)
    Blend: AUG-CC-PVTZ-JKFIT
	 Reference Energy          =    -463.8942293424435661 [Eh]
	 Singles Energy            =      -0.0000000000000000 [Eh]
	 Same-Spin Energy          =      -0.5194319883747330 [Eh]
	 Opposite-Spin Energy      =      -1.7263954623362907 [Eh]
	 Correlation Energy        =      -2.2458274507110239 [Eh]
	 Total Energy              =    -466.1400567931545993 [Eh]

	 ================> DF-SCS-MP2 Energies <==================
	-----------------------------------------------------------
	 SCS Same-Spin Scale       =       0.3333333333333333 [-]
	 SCS Opposite-Spin Scale   =       1.2000000000000000 [-]
	 SCS Same-Spin Energy      =      -0.1731439961249110 [Eh]
	 SCS Opposite-Spin Energy  =      -2.0716745548035487 [Eh]
	 SCS Correlation Energy    =      -2.2448185509284597 [Eh]
	 SCS Total Energy          =    -466.1390478933720374 [Eh]
	-----------------------------------------------------------

  Dipole Moment: [D]
     X:    -0.5710      Y:    -0.2063      Z:     0.0360     Total:     0.6082

*** Psi4 exiting successfully. Buy a developer a beer!
