                               Psi4 1.4a3.dev225

  ==> Input File <==

--------------------------------------------------------------------------
#psi4
#
memory 32 gb

molecule  {
0 1
  C       -0.4426020    -0.8338200     0.2172010
  C       -2.7550300    -0.2335230    -0.2686280
  C       -1.3819231    -0.3907302    -0.9280217
  C       -1.1456910    -0.3766540     1.5340440
  C       -2.4139240     0.3715680     1.0951880
  C        0.9762580    -0.3476150     0.0696660
  C       -3.7696470     0.5602740    -1.0788290
  C        1.2785260     1.0190760     0.1766520
  C        2.0223850    -1.2394820    -0.1958260
  C        2.5868840     1.4777510     0.0263980
  C        3.3346800    -0.7855870    -0.3490730
  C        3.6209360     0.5756970    -0.2390260
  H       -0.4241810    -1.9311060     0.1924250
  H       -3.1414670    -1.2511910    -0.1070860
  H       -1.0573430     0.6588960    -1.2471640
  H       -1.3450850    -0.9967850    -1.7909970
  H       -0.4862050     0.2392810     2.1528250
  H       -1.4122900    -1.2543580     2.1330320
  H       -3.2323950     0.2935880     1.8197160
  H       -2.2008590     1.4410770     0.9595580
  H       -3.4037750     1.5784440    -1.2516650
  H       -3.9506210     0.0965540    -2.0538340
  H       -4.7289130     0.6299820    -0.5557020
  H        0.4812350     1.7322070     0.3831320
  H        1.8065840    -2.3037040    -0.2799060
  H        2.8010350     2.5405970     0.1152150
  H        4.1326410    -1.4960120    -0.5534930
  H        4.6413930     0.9324010    -0.3562540
units angstrom
no_reorient  #important for SAPT in psi4, default
symmetry c1  #important for SAPT in psi4, default
}

set PROPERTIES_ORIGIN ["COM"]
properties('MP2/aug-cc-pvtz', properties = ['dipole'])
--------------------------------------------------------------------------

    Molecular point group: c1
  Charge       = 0
  Multiplicity = 1
  Basis Set: AUG-CC-PVTZ
    Blend: AUG-CC-PVTZ
  Basis Set: (AUG-CC-PVTZ AUX)
    Blend: AUG-CC-PVTZ-JKFIT

    Orbital Energies [Eh]
    ---------------------

    Doubly Occupied:

       1A    -11.236527     2A    -11.233411     3A    -11.232741
       4A    -11.228946     5A    -11.228557     6A    -11.228350
       7A    -11.228163     8A    -11.221622     9A    -11.217242
      10A    -11.215494    11A    -11.215368    12A    -11.211636
      13A     -1.155589    14A     -1.124156    15A     -1.039233
      16A     -1.008344    17A     -0.988487    18A     -0.955159
      19A     -0.892455    20A     -0.826102    21A     -0.816510
      22A     -0.762664    23A     -0.757372    24A     -0.689816
      25A     -0.664221    26A     -0.635372    27A     -0.620813
      28A     -0.606687    29A     -0.585186    30A     -0.578806
      31A     -0.571275    32A     -0.557376    33A     -0.527101
      34A     -0.510733    35A     -0.510475    36A     -0.490031
      37A     -0.482969    38A     -0.464064    39A     -0.460914
      40A     -0.449929    41A     -0.445265    42A     -0.443818
      43A     -0.332165    44A     -0.319026

  @DF-RHF Final Energy:  -463.89116062927667

   => Energetics <=

    Nuclear Repulsion Energy =            675.5942277896688211
    One-Electron Energy =               -1967.0304320316597568
    Two-Electron Energy =                 827.5450436127142666
    Total Energy =                       -463.8911606292766692
  Basis Set: (AUG-CC-PVTZ AUX)
    Blend: AUG-CC-PVTZ-RI
    Molecular point group: c1

    Geometry (in Angstrom), charge = 0, multiplicity = 1:

       Center              X                  Y                   Z               Mass
    ------------   -----------------  -----------------  -----------------  -----------------
         C           -0.513295622661    -0.824330228089     0.215494204095    12.000000000000
         C           -2.825723622661    -0.224033228089    -0.270334795905    12.000000000000
         C           -1.452616722661    -0.381240428089    -0.929728495905    12.000000000000
         C           -1.216384622661    -0.367164228089     1.532337204095    12.000000000000
         C           -2.484617622661     0.381057771911     1.093481204095    12.000000000000
         C            0.905564377339    -0.338125228089     0.067959204095    12.000000000000
         C           -3.840340622661     0.569763771911    -1.080535795905    12.000000000000
         C            1.207832377339     1.028565771911     0.174945204095    12.000000000000
         C            1.951691377339    -1.229992228089    -0.197532795905    12.000000000000
         C            2.516190377339     1.487240771911     0.024691204095    12.000000000000
         C            3.263986377339    -0.776097228089    -0.350779795905    12.000000000000
         C            3.550242377339     0.585186771911    -0.240732795905    12.000000000000
         H           -0.494874622661    -1.921616228089     0.190718204095     1.007825032230
         H           -3.212160622661    -1.241701228089    -0.108792795905     1.007825032230
         H           -1.128036622661     0.668385771911    -1.248870795905     1.007825032230
         H           -1.415778622661    -0.987295228089    -1.792703795905     1.007825032230
         H           -0.556898622661     0.248770771911     2.151118204095     1.007825032230
         H           -1.482983622661    -1.244868228089     2.131325204095     1.007825032230
         H           -3.303088622661     0.303077771911     1.818009204095     1.007825032230
         H           -2.271552622661     1.450566771911     0.957851204095     1.007825032230
         H           -3.474468622661     1.587933771911    -1.253371795905     1.007825032230
         H           -4.021314622661     0.106043771911    -2.055540795905     1.007825032230
         H           -4.799606622661     0.639471771911    -0.557408795905     1.007825032230
         H            0.410541377339     1.741696771911     0.381425204095     1.007825032230
         H            1.735890377339    -2.294214228089    -0.281612795905     1.007825032230
         H            2.730341377339     2.550086771911     0.113508204095     1.007825032230
         H            4.061947377339    -1.486522228089    -0.555199795905     1.007825032230
         H            4.570699377339     0.941890771911    -0.357960795905     1.007825032230

  Basis Set: AUG-CC-PVTZ
    Blend: AUG-CC-PVTZ
  Basis Set: (AUG-CC-PVTZ AUX)
    Blend: AUG-CC-PVTZ-JKFIT
	 Reference Energy          =    -463.8911606292766692 [Eh]
	 Singles Energy            =      -0.0000000000000000 [Eh]
	 Same-Spin Energy          =      -0.5195317656851951 [Eh]
	 Opposite-Spin Energy      =      -1.7265846887654877 [Eh]
	 Correlation Energy        =      -2.2461164544506826 [Eh]
	 Total Energy              =    -466.1372770837273265 [Eh]

	 ================> DF-SCS-MP2 Energies <==================
	-----------------------------------------------------------
	 SCS Same-Spin Scale       =       0.3333333333333333 [-]
	 SCS Opposite-Spin Scale   =       1.2000000000000000 [-]
	 SCS Same-Spin Energy      =      -0.1731772552283984 [Eh]
	 SCS Opposite-Spin Energy  =      -2.0719016265185850 [Eh]
	 SCS Correlation Energy    =      -2.2450788817469833 [Eh]
	 SCS Total Energy          =    -466.1362395110236321 [Eh]
	-----------------------------------------------------------

  Dipole Moment: [D]
     X:    -0.5725      Y:    -0.2318      Z:     0.0386     Total:     0.6189

*** Psi4 exiting successfully. Buy a developer a beer!
