                               Psi4 1.4a3.dev225

  ==> Input File <==

--------------------------------------------------------------------------
#psi4
#
memory 32 gb

molecule  {
0 1
  C       -0.4426020    -0.8338200     0.2172010
  C       -2.7550300    -0.2335230    -0.2686280
  C       -1.3727340    -0.3393290    -0.9144000
  C       -1.1456910    -0.3766540     1.5340440
  C       -2.3726539     0.3472198     1.1094690
  C        0.9762580    -0.3476150     0.0696660
  C       -3.7696470     0.5602740    -1.0788290
  C        1.2785260     1.0190760     0.1766520
  C        2.0223850    -1.2394820    -0.1958260
  C        2.5868840     1.4777510     0.0263980
  C        3.3346800    -0.7855870    -0.3490730
  C        3.6209360     0.5756970    -0.2390260
  H       -0.4241810    -1.9311060     0.1924250
  H       -3.1414670    -1.2511910    -0.1070860
  H       -1.0573430     0.6588960    -1.2471640
  H       -1.3450850    -0.9967850    -1.7909970
  H       -0.4862050     0.2392810     2.1528250
  H       -1.4122900    -1.2543580     2.1330320
  H       -3.2323950     0.2935880     1.8197160
  H       -2.2008590     1.4410770     0.9595580
  H       -3.4037750     1.5784440    -1.2516650
  H       -3.9506210     0.0965540    -2.0538340
  H       -4.7289130     0.6299820    -0.5557020
  H        0.4812350     1.7322070     0.3831320
  H        1.8065840    -2.3037040    -0.2799060
  H        2.8010350     2.5405970     0.1152150
  H        4.1326410    -1.4960120    -0.5534930
  H        4.6413930     0.9324010    -0.3562540
units angstrom
no_reorient  #important for SAPT in psi4, default
symmetry c1  #important for SAPT in psi4, default
}

set PROPERTIES_ORIGIN ["COM"]
properties('MP2/aug-cc-pvtz', properties = ['dipole'])
--------------------------------------------------------------------------

    Molecular point group: c1
  Charge       = 0
  Multiplicity = 1
  Basis Set: AUG-CC-PVTZ
    Blend: AUG-CC-PVTZ
  Basis Set: (AUG-CC-PVTZ AUX)
    Blend: AUG-CC-PVTZ-JKFIT

    Orbital Energies [Eh]
    ---------------------

    Doubly Occupied:

       1A    -11.236566     2A    -11.233637     3A    -11.232904
       4A    -11.229008     5A    -11.228601     6A    -11.228471
       7A    -11.228204     8A    -11.221664     9A    -11.216723
      10A    -11.214683    11A    -11.214388    12A    -11.212494
      13A     -1.157000    14A     -1.126806    15A     -1.038692
      16A     -1.008531    17A     -0.993448    18A     -0.954492
      19A     -0.892379    20A     -0.826022    21A     -0.815485
      22A     -0.762544    23A     -0.756691    24A     -0.690051
      25A     -0.660173    26A     -0.636049    27A     -0.621456
      28A     -0.608807    29A     -0.587897    30A     -0.579859
      31A     -0.572765    32A     -0.556294    33A     -0.528968
      34A     -0.510763    35A     -0.508112    36A     -0.489806
      37A     -0.482604    38A     -0.466561    39A     -0.457310
      40A     -0.454271    41A     -0.447531    42A     -0.440177
      43A     -0.332396    44A     -0.318917

  @DF-RHF Final Energy:  -463.89150311011321

   => Energetics <=

    Nuclear Repulsion Energy =            676.4655745471044384
    One-Electron Energy =               -1968.7537609970654557
    Two-Electron Energy =                 828.3966833398477547
    Total Energy =                       -463.8915031101131490
  Basis Set: (AUG-CC-PVTZ AUX)
    Blend: AUG-CC-PVTZ-RI
    Molecular point group: c1

    Geometry (in Angstrom), charge = 0, multiplicity = 1:

       Center              X                  Y                   Z               Mass
    ------------   -----------------  -----------------  -----------------  -----------------
         C           -0.517077103640    -0.826357616651     0.213403137861    12.000000000000
         C           -2.829505103640    -0.226060616651    -0.272425862139    12.000000000000
         C           -1.447209103640    -0.331866616651    -0.918197862139    12.000000000000
         C           -1.220166103640    -0.369191616651     1.530246137861    12.000000000000
         C           -2.447129003640     0.354682183349     1.105671137861    12.000000000000
         C            0.901782896360    -0.340152616651     0.065868137861    12.000000000000
         C           -3.844122103640     0.567736383349    -1.082626862139    12.000000000000
         C            1.204050896360     1.026538383349     0.172854137861    12.000000000000
         C            1.947909896360    -1.232019616651    -0.199623862139    12.000000000000
         C            2.512408896360     1.485213383349     0.022600137861    12.000000000000
         C            3.260204896360    -0.778124616651    -0.352870862139    12.000000000000
         C            3.546460896360     0.583159383349    -0.242823862139    12.000000000000
         H           -0.498656103640    -1.923643616651     0.188627137861     1.007825032230
         H           -3.215942103640    -1.243728616651    -0.110883862139     1.007825032230
         H           -1.131818103640     0.666358383349    -1.250961862139     1.007825032230
         H           -1.419560103640    -0.989322616651    -1.794794862139     1.007825032230
         H           -0.560680103640     0.246743383349     2.149027137861     1.007825032230
         H           -1.486765103640    -1.246895616651     2.129234137861     1.007825032230
         H           -3.306870103640     0.301050383349     1.815918137861     1.007825032230
         H           -2.275334103640     1.448539383349     0.955760137861     1.007825032230
         H           -3.478250103640     1.585906383349    -1.255462862139     1.007825032230
         H           -4.025096103640     0.104016383349    -2.057631862139     1.007825032230
         H           -4.803388103640     0.637444383349    -0.559499862139     1.007825032230
         H            0.406759896360     1.739669383349     0.379334137861     1.007825032230
         H            1.732108896360    -2.296241616651    -0.283703862139     1.007825032230
         H            2.726559896360     2.548059383349     0.111417137861     1.007825032230
         H            4.058165896360    -1.488549616651    -0.557290862139     1.007825032230
         H            4.566917896360     0.939863383349    -0.360051862139     1.007825032230

  Basis Set: AUG-CC-PVTZ
    Blend: AUG-CC-PVTZ
  Basis Set: (AUG-CC-PVTZ AUX)
    Blend: AUG-CC-PVTZ-JKFIT
	 Reference Energy          =    -463.8915031101132058 [Eh]
	 Singles Energy            =      -0.0000000000000000 [Eh]
	 Same-Spin Energy          =      -0.5198506007469730 [Eh]
	 Opposite-Spin Energy      =      -1.7267524604555968 [Eh]
	 Correlation Energy        =      -2.2466030612025696 [Eh]
	 Total Energy              =    -466.1381061713157692 [Eh]

	 ================> DF-SCS-MP2 Energies <==================
	-----------------------------------------------------------
	 SCS Same-Spin Scale       =       0.3333333333333333 [-]
	 SCS Opposite-Spin Scale   =       1.2000000000000000 [-]
	 SCS Same-Spin Energy      =      -0.1732835335823243 [Eh]
	 SCS Opposite-Spin Energy  =      -2.0721029525467163 [Eh]
	 SCS Correlation Energy    =      -2.2453864861290405 [Eh]
	 SCS Total Energy          =    -466.1368895962422698 [Eh]
	-----------------------------------------------------------

  Dipole Moment: [D]
     X:    -0.5622      Y:    -0.2099      Z:     0.0233     Total:     0.6006

*** Psi4 exiting successfully. Buy a developer a beer!
