                               Psi4 1.4a3.dev225

  ==> Input File <==

--------------------------------------------------------------------------
#psi4
#
memory 32 gb

molecule  {
0 1
  C       -0.4426020    -0.8338200     0.2172010
  C       -2.7711697    -0.2545995    -0.2695014
  C       -1.3727340    -0.3393290    -0.9144000
  C       -1.1456910    -0.3766540     1.5340440
  C       -2.4139240     0.3715680     1.0951880
  C        0.9762580    -0.3476150     0.0696660
  C       -3.7696470     0.5602740    -1.0788290
  C        1.2785260     1.0190760     0.1766520
  C        2.0223850    -1.2394820    -0.1958260
  C        2.5868840     1.4777510     0.0263980
  C        3.3346800    -0.7855870    -0.3490730
  C        3.6209360     0.5756970    -0.2390260
  H       -0.4241810    -1.9311060     0.1924250
  H       -3.1414670    -1.2511910    -0.1070860
  H       -1.0573430     0.6588960    -1.2471640
  H       -1.3450850    -0.9967850    -1.7909970
  H       -0.4862050     0.2392810     2.1528250
  H       -1.4122900    -1.2543580     2.1330320
  H       -3.2323950     0.2935880     1.8197160
  H       -2.2008590     1.4410770     0.9595580
  H       -3.4037750     1.5784440    -1.2516650
  H       -3.9506210     0.0965540    -2.0538340
  H       -4.7289130     0.6299820    -0.5557020
  H        0.4812350     1.7322070     0.3831320
  H        1.8065840    -2.3037040    -0.2799060
  H        2.8010350     2.5405970     0.1152150
  H        4.1326410    -1.4960120    -0.5534930
  H        4.6413930     0.9324010    -0.3562540
units angstrom
no_reorient  #important for SAPT in psi4, default
symmetry c1  #important for SAPT in psi4, default
}

set PROPERTIES_ORIGIN ["COM"]
properties('MP2/aug-cc-pvtz', properties = ['dipole'])
--------------------------------------------------------------------------

    Molecular point group: c1
  Charge       = 0
  Multiplicity = 1
  Basis Set: AUG-CC-PVTZ
    Blend: AUG-CC-PVTZ
  Basis Set: (AUG-CC-PVTZ AUX)
    Blend: AUG-CC-PVTZ-JKFIT

    Orbital Energies [Eh]
    ---------------------

    Doubly Occupied:

       1A    -11.236404     2A    -11.233532     3A    -11.232786
       4A    -11.228860     5A    -11.228359     6A    -11.228127
       7A    -11.228022     8A    -11.220306     9A    -11.216456
      10A    -11.215164    11A    -11.215068    12A    -11.211458
      13A     -1.155446    14A     -1.123102    15A     -1.039082
      16A     -1.008374    17A     -0.988260    18A     -0.952559
      19A     -0.891469    20A     -0.826130    21A     -0.815760
      22A     -0.767697    23A     -0.756431    24A     -0.689733
      25A     -0.659151    26A     -0.635122    27A     -0.621278
      28A     -0.606008    29A     -0.586257    30A     -0.579869
      31A     -0.573538    32A     -0.555645    33A     -0.529376
      34A     -0.510746    35A     -0.509807    36A     -0.490177
      37A     -0.473736    38A     -0.467494    39A     -0.461390
      40A     -0.454335    41A     -0.450053    42A     -0.439416
      43A     -0.332287    44A     -0.318685

  @DF-RHF Final Energy:  -463.89387563673870

   => Energetics <=

    Nuclear Repulsion Energy =            675.6031792560580698
    One-Electron Energy =               -1967.0681947803861931
    Two-Electron Energy =                 827.5711398875893110
    Total Energy =                       -463.8938756367386986
  Basis Set: (AUG-CC-PVTZ AUX)
    Blend: AUG-CC-PVTZ-RI
    Molecular point group: c1

    Geometry (in Angstrom), charge = 0, multiplicity = 1:

       Center              X                  Y                   Z               Mass
    ------------   -----------------  -----------------  -----------------  -----------------
         C           -0.512774735257    -0.826602802292     0.214538829179    12.000000000000
         C           -2.841342435257    -0.247382302292    -0.272163570821    12.000000000000
         C           -1.442906735257    -0.332111802292    -0.917062170821    12.000000000000
         C           -1.215863735257    -0.369436802292     1.531381829179    12.000000000000
         C           -2.484096735257     0.378785197708     1.092525829179    12.000000000000
         C            0.906085264743    -0.340397802292     0.067003829179    12.000000000000
         C           -3.839819735257     0.567491197708    -1.081491170821    12.000000000000
         C            1.208353264743     1.026293197708     0.173989829179    12.000000000000
         C            1.952212264743    -1.232264802292    -0.198488170821    12.000000000000
         C            2.516711264743     1.484968197708     0.023735829179    12.000000000000
         C            3.264507264743    -0.778369802292    -0.351735170821    12.000000000000
         C            3.550763264743     0.582914197708    -0.241688170821    12.000000000000
         H           -0.494353735257    -1.923888802292     0.189762829179     1.007825032230
         H           -3.211639735257    -1.243973802292    -0.109748170821     1.007825032230
         H           -1.127515735257     0.666113197708    -1.249826170821     1.007825032230
         H           -1.415257735257    -0.989567802292    -1.793659170821     1.007825032230
         H           -0.556377735257     0.246498197708     2.150162829179     1.007825032230
         H           -1.482462735257    -1.247140802292     2.130369829179     1.007825032230
         H           -3.302567735257     0.300805197708     1.817053829179     1.007825032230
         H           -2.271031735257     1.448294197708     0.956895829179     1.007825032230
         H           -3.473947735257     1.585661197708    -1.254327170821     1.007825032230
         H           -4.020793735257     0.103771197708    -2.056496170821     1.007825032230
         H           -4.799085735257     0.637199197708    -0.558364170821     1.007825032230
         H            0.411062264743     1.739424197708     0.380469829179     1.007825032230
         H            1.736411264743    -2.296486802292    -0.282568170821     1.007825032230
         H            2.730862264743     2.547814197708     0.112552829179     1.007825032230
         H            4.062468264743    -1.488794802292    -0.556155170821     1.007825032230
         H            4.571220264743     0.939618197708    -0.358916170821     1.007825032230

  Basis Set: AUG-CC-PVTZ
    Blend: AUG-CC-PVTZ
  Basis Set: (AUG-CC-PVTZ AUX)
    Blend: AUG-CC-PVTZ-JKFIT
	 Reference Energy          =    -463.8938756367386986 [Eh]
	 Singles Energy            =      -0.0000000000000000 [Eh]
	 Same-Spin Energy          =      -0.5193861225716340 [Eh]
	 Opposite-Spin Energy      =      -1.7263608186369233 [Eh]
	 Correlation Energy        =      -2.2457469412085573 [Eh]
	 Total Energy              =    -466.1396225779472502 [Eh]

	 ================> DF-SCS-MP2 Energies <==================
	-----------------------------------------------------------
	 SCS Same-Spin Scale       =       0.3333333333333333 [-]
	 SCS Opposite-Spin Scale   =       1.2000000000000000 [-]
	 SCS Same-Spin Energy      =      -0.1731287075238780 [Eh]
	 SCS Opposite-Spin Energy  =      -2.0716329823643078 [Eh]
	 SCS Correlation Energy    =      -2.2447616898881857 [Eh]
	 SCS Total Energy          =    -466.1386373266269061 [Eh]
	-----------------------------------------------------------

  Dipole Moment: [D]
     X:    -0.5793      Y:    -0.2122      Z:     0.0359     Total:     0.6180

*** Psi4 exiting successfully. Buy a developer a beer!
