                               Psi4 1.4a3.dev225

  ==> Input File <==

--------------------------------------------------------------------------
#psi4
#
memory 32 gb

molecule  {
0 1
  C       -0.4426020    -0.8338200     0.2172010
  C       -2.7550300    -0.2335230    -0.2686280
  C       -1.3727340    -0.3393290    -0.9144000
  C       -1.1456910    -0.3766540     1.5340440
  C       -2.4139240     0.3715680     1.0951880
  C        0.9762580    -0.3476150     0.0696660
  C       -3.7696470     0.5602740    -1.0788290
  C        1.2785260     1.0190760     0.1766520
  C        2.0223850    -1.2394820    -0.1958260
  C        2.5868840     1.4777510     0.0263980
  C        3.3346800    -0.7855870    -0.3490730
  C        3.6209360     0.5756970    -0.2390260
  H       -0.4250201    -1.8811258     0.1935535
  H       -3.1414670    -1.2511910    -0.1070860
  H       -1.0573430     0.6588960    -1.2471640
  H       -1.3450850    -0.9967850    -1.7909970
  H       -0.4862050     0.2392810     2.1528250
  H       -1.4122900    -1.2543580     2.1330320
  H       -3.2323950     0.2935880     1.8197160
  H       -2.2008590     1.4410770     0.9595580
  H       -3.4037750     1.5784440    -1.2516650
  H       -3.9506210     0.0965540    -2.0538340
  H       -4.7289130     0.6299820    -0.5557020
  H        0.4812350     1.7322070     0.3831320
  H        1.8065840    -2.3037040    -0.2799060
  H        2.8010350     2.5405970     0.1152150
  H        4.1326410    -1.4960120    -0.5534930
  H        4.6413930     0.9324010    -0.3562540
units angstrom
no_reorient  #important for SAPT in psi4, default
symmetry c1  #important for SAPT in psi4, default
}

set PROPERTIES_ORIGIN ["COM"]
properties('MP2/aug-cc-pvtz', properties = ['dipole'])
--------------------------------------------------------------------------

    Molecular point group: c1
  Charge       = 0
  Multiplicity = 1
  Basis Set: AUG-CC-PVTZ
    Blend: AUG-CC-PVTZ
  Basis Set: (AUG-CC-PVTZ AUX)
    Blend: AUG-CC-PVTZ-JKFIT

    Orbital Energies [Eh]
    ---------------------

    Doubly Occupied:

       1A    -11.236090     2A    -11.233434     3A    -11.232831
       4A    -11.228806     5A    -11.228164     6A    -11.228049
       7A    -11.222048     8A    -11.221063     9A    -11.216334
      10A    -11.214690    11A    -11.214339    12A    -11.211483
      13A     -1.156285    14A     -1.124951    15A     -1.040185
      16A     -1.008351    17A     -0.988366    18A     -0.954459
      19A     -0.893557    20A     -0.826806    21A     -0.816010
      22A     -0.763849    23A     -0.760267    24A     -0.690903
      25A     -0.661257    26A     -0.635297    27A     -0.622126
      28A     -0.606659    29A     -0.586550    30A     -0.579912
      31A     -0.575139    32A     -0.556063    33A     -0.528633
      34A     -0.511083    35A     -0.509864    36A     -0.490124
      37A     -0.475046    38A     -0.463178    39A     -0.461163
      40A     -0.455349    41A     -0.451945    42A     -0.443707
      43A     -0.332268    44A     -0.318611

  @DF-RHF Final Energy:  -463.89376621167514

   => Energetics <=

    Nuclear Repulsion Energy =            676.2265229113809255
    One-Electron Energy =               -1968.2899888334532079
    Two-Electron Energy =                 828.1696997103971398
    Total Energy =                       -463.8937662116751426
  Basis Set: (AUG-CC-PVTZ AUX)
    Blend: AUG-CC-PVTZ-RI
    Molecular point group: c1

    Geometry (in Angstrom), charge = 0, multiplicity = 1:

       Center              X                  Y                   Z               Mass
    ------------   -----------------  -----------------  -----------------  -----------------
         C           -0.513978985015    -0.828496878276     0.214466272639    12.000000000000
         C           -2.826406985015    -0.228199878276    -0.271362727361    12.000000000000
         C           -1.444110985015    -0.334005878276    -0.917134727361    12.000000000000
         C           -1.217067985015    -0.371330878276     1.531309272639    12.000000000000
         C           -2.485300985015     0.376891121724     1.092453272639    12.000000000000
         C            0.904881014985    -0.342291878276     0.066931272639    12.000000000000
         C           -3.841023985015     0.565597121724    -1.081563727361    12.000000000000
         C            1.207149014985     1.024399121724     0.173917272639    12.000000000000
         C            1.951008014985    -1.234158878276    -0.198560727361    12.000000000000
         C            2.515507014985     1.483074121724     0.023663272639    12.000000000000
         C            3.263303014985    -0.780263878276    -0.351807727361    12.000000000000
         C            3.549559014985     0.581020121724    -0.241760727361    12.000000000000
         H           -0.496397085015    -1.875802678276     0.190818772639     1.007825032230
         H           -3.212843985015    -1.245867878276    -0.109820727361     1.007825032230
         H           -1.128719985015     0.664219121724    -1.249898727361     1.007825032230
         H           -1.416461985015    -0.991461878276    -1.793731727361     1.007825032230
         H           -0.557581985015     0.244604121724     2.150090272639     1.007825032230
         H           -1.483666985015    -1.249034878276     2.130297272639     1.007825032230
         H           -3.303771985015     0.298911121724     1.816981272639     1.007825032230
         H           -2.272235985015     1.446400121724     0.956823272639     1.007825032230
         H           -3.475151985015     1.583767121724    -1.254399727361     1.007825032230
         H           -4.021997985015     0.101877121724    -2.056568727361     1.007825032230
         H           -4.800289985015     0.635305121724    -0.558436727361     1.007825032230
         H            0.409858014985     1.737530121724     0.380397272639     1.007825032230
         H            1.735207014985    -2.298380878276    -0.282640727361     1.007825032230
         H            2.729658014985     2.545920121724     0.112480272639     1.007825032230
         H            4.061264014985    -1.490688878276    -0.556227727361     1.007825032230
         H            4.570016014985     0.937724121724    -0.358988727361     1.007825032230

  Basis Set: AUG-CC-PVTZ
    Blend: AUG-CC-PVTZ
  Basis Set: (AUG-CC-PVTZ AUX)
    Blend: AUG-CC-PVTZ-JKFIT
	 Reference Energy          =    -463.8937662116751426 [Eh]
	 Singles Energy            =      -0.0000000000000000 [Eh]
	 Same-Spin Energy          =      -0.5194292824392358 [Eh]
	 Opposite-Spin Energy      =      -1.7260241588661549 [Eh]
	 Correlation Energy        =      -2.2454534413053908 [Eh]
	 Total Energy              =    -466.1392196529805574 [Eh]

	 ================> DF-SCS-MP2 Energies <==================
	-----------------------------------------------------------
	 SCS Same-Spin Scale       =       0.3333333333333333 [-]
	 SCS Opposite-Spin Scale   =       1.2000000000000000 [-]
	 SCS Same-Spin Energy      =      -0.1731430941464119 [Eh]
	 SCS Opposite-Spin Energy  =      -2.0712289906393857 [Eh]
	 SCS Correlation Energy    =      -2.2443720847857977 [Eh]
	 SCS Total Energy          =    -466.1381382964609656 [Eh]
	-----------------------------------------------------------

  Dipole Moment: [D]
     X:    -0.5704      Y:    -0.2316      Z:     0.0368     Total:     0.6167

*** Psi4 exiting successfully. Buy a developer a beer!
