                               Psi4 1.4a3.dev225

  ==> Input File <==

--------------------------------------------------------------------------
#psi4
#
memory 32 gb

molecule  {
0 1
  C       -0.4228162    -0.8452765     0.2320243
  C       -2.7550300    -0.2335230    -0.2686280
  C       -1.3727340    -0.3393290    -0.9144000
  C       -1.1456910    -0.3766540     1.5340440
  C       -2.4139240     0.3715680     1.0951880
  C        0.9762580    -0.3476150     0.0696660
  C       -3.7696470     0.5602740    -1.0788290
  C        1.2785260     1.0190760     0.1766520
  C        2.0223850    -1.2394820    -0.1958260
  C        2.5868840     1.4777510     0.0263980
  C        3.3346800    -0.7855870    -0.3490730
  C        3.6209360     0.5756970    -0.2390260
  H       -0.4241810    -1.9311060     0.1924250
  H       -3.1414670    -1.2511910    -0.1070860
  H       -1.0573430     0.6588960    -1.2471640
  H       -1.3450850    -0.9967850    -1.7909970
  H       -0.4862050     0.2392810     2.1528250
  H       -1.4122900    -1.2543580     2.1330320
  H       -3.2323950     0.2935880     1.8197160
  H       -2.2008590     1.4410770     0.9595580
  H       -3.4037750     1.5784440    -1.2516650
  H       -3.9506210     0.0965540    -2.0538340
  H       -4.7289130     0.6299820    -0.5557020
  H        0.4812350     1.7322070     0.3831320
  H        1.8065840    -2.3037040    -0.2799060
  H        2.8010350     2.5405970     0.1152150
  H        4.1326410    -1.4960120    -0.5534930
  H        4.6413930     0.9324010    -0.3562540
units angstrom
no_reorient  #important for SAPT in psi4, default
symmetry c1  #important for SAPT in psi4, default
}

set PROPERTIES_ORIGIN ["COM"]
properties('MP2/aug-cc-pvtz', properties = ['dipole'])
--------------------------------------------------------------------------

    Molecular point group: c1
  Charge       = 0
  Multiplicity = 1
  Basis Set: AUG-CC-PVTZ
    Blend: AUG-CC-PVTZ
  Basis Set: (AUG-CC-PVTZ AUX)
    Blend: AUG-CC-PVTZ-JKFIT

    Orbital Energies [Eh]
    ---------------------

    Doubly Occupied:

       1A    -11.236112     2A    -11.233709     3A    -11.232794
       4A    -11.228863     5A    -11.228572     6A    -11.227919
       7A    -11.227847     8A    -11.221125     9A    -11.216847
      10A    -11.215850    11A    -11.215080    12A    -11.211644
      13A     -1.155960    14A     -1.123275    15A     -1.040751
      16A     -1.008516    17A     -0.988462    18A     -0.951086
      19A     -0.893518    20A     -0.827270    21A     -0.816723
      22A     -0.762992    23A     -0.757975    24A     -0.689960
      25A     -0.659697    26A     -0.635602    27A     -0.621790
      28A     -0.606206    29A     -0.586248    30A     -0.579837
      31A     -0.573632    32A     -0.556274    33A     -0.528868
      34A     -0.511545    35A     -0.509538    36A     -0.490461
      37A     -0.473751    38A     -0.462033    39A     -0.461622
      40A     -0.455847    41A     -0.450594    42A     -0.443278
      43A     -0.332386    44A     -0.317852

  @DF-RHF Final Energy:  -463.89380249068410

   => Energetics <=

    Nuclear Repulsion Energy =            675.7893097070888189
    One-Electron Energy =               -1967.4263989354105888
    Two-Electron Energy =                 827.7432867376376180
    Total Energy =                       -463.8938024906840383
  Basis Set: (AUG-CC-PVTZ AUX)
    Blend: AUG-CC-PVTZ-RI
    Molecular point group: c1

    Geometry (in Angstrom), charge = 0, multiplicity = 1:

       Center              X                  Y                   Z               Mass
    ------------   -----------------  -----------------  -----------------  -----------------
         C           -0.495681241019    -0.838780238158     0.228185797163    12.000000000000
         C           -2.827895041019    -0.227026738158    -0.272466502837    12.000000000000
         C           -1.445599041019    -0.332832738158    -0.918238502837    12.000000000000
         C           -1.218556041019    -0.370157738158     1.530205497163    12.000000000000
         C           -2.486789041019     0.378064261842     1.091349497163    12.000000000000
         C            0.903392958981    -0.341118738158     0.065827497163    12.000000000000
         C           -3.842512041019     0.566770261842    -1.082667502837    12.000000000000
         C            1.205660958981     1.025572261842     0.172813497163    12.000000000000
         C            1.949519958981    -1.232985738158    -0.199664502837    12.000000000000
         C            2.514018958981     1.484247261842     0.022559497163    12.000000000000
         C            3.261814958981    -0.779090738158    -0.352911502837    12.000000000000
         C            3.548070958981     0.582193261842    -0.242864502837    12.000000000000
         H           -0.497046041019    -1.924609738158     0.188586497163     1.007825032230
         H           -3.214332041019    -1.244694738158    -0.110924502837     1.007825032230
         H           -1.130208041019     0.665392261842    -1.251002502837     1.007825032230
         H           -1.417950041019    -0.990288738158    -1.794835502837     1.007825032230
         H           -0.559070041019     0.245777261842     2.148986497163     1.007825032230
         H           -1.485155041019    -1.247861738158     2.129193497163     1.007825032230
         H           -3.305260041019     0.300084261842     1.815877497163     1.007825032230
         H           -2.273724041019     1.447573261842     0.955719497163     1.007825032230
         H           -3.476640041019     1.584940261842    -1.255503502837     1.007825032230
         H           -4.023486041019     0.103050261842    -2.057672502837     1.007825032230
         H           -4.801778041019     0.636478261842    -0.559540502837     1.007825032230
         H            0.408369958981     1.738703261842     0.379293497163     1.007825032230
         H            1.733718958981    -2.297207738158    -0.283744502837     1.007825032230
         H            2.728169958981     2.547093261842     0.111376497163     1.007825032230
         H            4.059775958981    -1.489515738158    -0.557331502837     1.007825032230
         H            4.568527958981     0.938897261842    -0.360092502837     1.007825032230

  Basis Set: AUG-CC-PVTZ
    Blend: AUG-CC-PVTZ
  Basis Set: (AUG-CC-PVTZ AUX)
    Blend: AUG-CC-PVTZ-JKFIT
	 Reference Energy          =    -463.8938024906840951 [Eh]
	 Singles Energy            =      -0.0000000000000000 [Eh]
	 Same-Spin Energy          =      -0.5195190299513954 [Eh]
	 Opposite-Spin Energy      =      -1.7264941565289456 [Eh]
	 Correlation Energy        =      -2.2460131864803410 [Eh]
	 Total Energy              =    -466.1398156771644494 [Eh]

	 ================> DF-SCS-MP2 Energies <==================
	-----------------------------------------------------------
	 SCS Same-Spin Scale       =       0.3333333333333333 [-]
	 SCS Opposite-Spin Scale   =       1.2000000000000000 [-]
	 SCS Same-Spin Energy      =      -0.1731730099837985 [Eh]
	 SCS Opposite-Spin Energy  =      -2.0717929878347348 [Eh]
	 SCS Correlation Energy    =      -2.2449659978185332 [Eh]
	 SCS Total Energy          =    -466.1387684885026488 [Eh]
	-----------------------------------------------------------

  Dipole Moment: [D]
     X:    -0.5781      Y:    -0.2102      Z:     0.0416     Total:     0.6165

*** Psi4 exiting successfully. Buy a developer a beer!
