                               Psi4 1.4a3.dev225

  ==> Input File <==

--------------------------------------------------------------------------
#psi4
#
memory 32 gb

molecule  {
0 1
  C       -0.4426020    -0.8338200     0.2172010
  C       -2.7550300    -0.2335230    -0.2686280
  C       -1.3968581    -0.4950889    -0.9510645
  C       -1.1456910    -0.3766540     1.5340440
  C       -2.4139240     0.3715680     1.0951880
  C        0.9762580    -0.3476150     0.0696660
  C       -3.7696470     0.5602740    -1.0788290
  C        1.2785260     1.0190760     0.1766520
  C        2.0223850    -1.2394820    -0.1958260
  C        2.5868840     1.4777510     0.0263980
  C        3.3346800    -0.7855870    -0.3490730
  C        3.6209360     0.5756970    -0.2390260
  H       -0.4241810    -1.9311060     0.1924250
  H       -3.1414670    -1.2511910    -0.1070860
  H       -1.0573430     0.6588960    -1.2471640
  H       -1.3450850    -0.9967850    -1.7909970
  H       -0.4862050     0.2392810     2.1528250
  H       -1.4122900    -1.2543580     2.1330320
  H       -3.2323950     0.2935880     1.8197160
  H       -2.2008590     1.4410770     0.9595580
  H       -3.4037750     1.5784440    -1.2516650
  H       -3.9506210     0.0965540    -2.0538340
  H       -4.7289130     0.6299820    -0.5557020
  H        0.4812350     1.7322070     0.3831320
  H        1.8065840    -2.3037040    -0.2799060
  H        2.8010350     2.5405970     0.1152150
  H        4.1326410    -1.4960120    -0.5534930
  H        4.6413930     0.9324010    -0.3562540
units angstrom
no_reorient  #important for SAPT in psi4, default
symmetry c1  #important for SAPT in psi4, default
}

set PROPERTIES_ORIGIN ["COM"]
properties('MP2/aug-cc-pvtz', properties = ['dipole'])
--------------------------------------------------------------------------

    Molecular point group: c1
  Charge       = 0
  Multiplicity = 1
  Basis Set: AUG-CC-PVTZ
    Blend: AUG-CC-PVTZ
  Basis Set: (AUG-CC-PVTZ AUX)
    Blend: AUG-CC-PVTZ-JKFIT

    Orbital Energies [Eh]
    ---------------------

    Doubly Occupied:

       1A    -11.236750     2A    -11.233081     3A    -11.232547
       4A    -11.230265     5A    -11.229002     6A    -11.228365
       7A    -11.228219     8A    -11.224140     9A    -11.219403
      10A    -11.218838    11A    -11.216798    12A    -11.211944
      13A     -1.155049    14A     -1.123086    15A     -1.038964
      16A     -1.008197    17A     -0.988855    18A     -0.959219
      19A     -0.892750    20A     -0.826053    21A     -0.817335
      22A     -0.764407    23A     -0.760233    24A     -0.690012
      25A     -0.670076    26A     -0.636444    27A     -0.619003
      28A     -0.607503    29A     -0.584215    30A     -0.577908
      31A     -0.566747    32A     -0.559407    33A     -0.527654
      34A     -0.512962    35A     -0.510278    36A     -0.496454
      37A     -0.487678    38A     -0.466788    39A     -0.461045
      40A     -0.452518    41A     -0.441499    42A     -0.419219
      43A     -0.331776    44A     -0.319404

  @DF-RHF Final Energy:  -463.86566232756434

   => Energetics <=

    Nuclear Repulsion Energy =            674.8812574719083841
    One-Electron Energy =               -1965.5296549210384001
    Two-Electron Energy =                 826.7827351215656790
    Total Energy =                       -463.8656623275643369
  Basis Set: (AUG-CC-PVTZ AUX)
    Blend: AUG-CC-PVTZ-RI
    Molecular point group: c1

    Geometry (in Angstrom), charge = 0, multiplicity = 1:

       Center              X                  Y                   Z               Mass
    ------------   -----------------  -----------------  -----------------  -----------------
         C           -0.512176373477    -0.816509445377     0.217221062823    12.000000000000
         C           -2.824604373477    -0.216212445377    -0.268607937177    12.000000000000
         C           -1.466432473477    -0.477778345377    -0.951044437177    12.000000000000
         C           -1.215265373477    -0.359343445377     1.534064062823    12.000000000000
         C           -2.483498373477     0.388878554623     1.095208062823    12.000000000000
         C            0.906683626523    -0.330304445377     0.069686062823    12.000000000000
         C           -3.839221373477     0.577584554623    -1.078808937177    12.000000000000
         C            1.208951626523     1.036386554623     0.176672062823    12.000000000000
         C            1.952810626523    -1.222171445377    -0.195805937177    12.000000000000
         C            2.517309626523     1.495061554623     0.026418062823    12.000000000000
         C            3.265105626523    -0.768276445377    -0.349052937177    12.000000000000
         C            3.551361626523     0.593007554623    -0.239005937177    12.000000000000
         H           -0.493755373477    -1.913795445377     0.192445062823     1.007825032230
         H           -3.211041373477    -1.233880445377    -0.107065937177     1.007825032230
         H           -1.126917373477     0.676206554623    -1.247143937177     1.007825032230
         H           -1.414659373477    -0.979474445377    -1.790976937177     1.007825032230
         H           -0.555779373477     0.256591554623     2.152845062823     1.007825032230
         H           -1.481864373477    -1.237047445377     2.133052062823     1.007825032230
         H           -3.301969373477     0.310898554623     1.819736062823     1.007825032230
         H           -2.270433373477     1.458387554623     0.959578062823     1.007825032230
         H           -3.473349373477     1.595754554623    -1.251644937177     1.007825032230
         H           -4.020195373477     0.113864554623    -2.053813937177     1.007825032230
         H           -4.798487373477     0.647292554623    -0.555681937177     1.007825032230
         H            0.411660626523     1.749517554623     0.383152062823     1.007825032230
         H            1.737009626523    -2.286393445377    -0.279885937177     1.007825032230
         H            2.731460626523     2.557907554623     0.115235062823     1.007825032230
         H            4.063066626523    -1.478701445377    -0.553472937177     1.007825032230
         H            4.571818626523     0.949711554623    -0.356233937177     1.007825032230

  Basis Set: AUG-CC-PVTZ
    Blend: AUG-CC-PVTZ
  Basis Set: (AUG-CC-PVTZ AUX)
    Blend: AUG-CC-PVTZ-JKFIT
	 Reference Energy          =    -463.8656623275643369 [Eh]
	 Singles Energy            =      -0.0000000000000000 [Eh]
	 Same-Spin Energy          =      -0.5199194873317481 [Eh]
	 Opposite-Spin Energy      =      -1.7278738143328456 [Eh]
	 Correlation Energy        =      -2.2477933016645935 [Eh]
	 Total Energy              =    -466.1134556292289517 [Eh]

	 ================> DF-SCS-MP2 Energies <==================
	-----------------------------------------------------------
	 SCS Same-Spin Scale       =       0.3333333333333333 [-]
	 SCS Opposite-Spin Scale   =       1.2000000000000000 [-]
	 SCS Same-Spin Energy      =      -0.1733064957772494 [Eh]
	 SCS Opposite-Spin Energy  =      -2.0734485771994144 [Eh]
	 SCS Correlation Energy    =      -2.2467550729766637 [Eh]
	 SCS Total Energy          =    -466.1124174005410055 [Eh]
	-----------------------------------------------------------

  Dipole Moment: [D]
     X:    -0.5889      Y:    -0.2987      Z:     0.0763     Total:     0.6647

*** Psi4 exiting successfully. Buy a developer a beer!
