                               Psi4 1.4a3.dev225

  ==> Input File <==

--------------------------------------------------------------------------
#psi4
#
memory 32 gb

molecule  {
0 1
  C       -0.4426020    -0.8338200     0.2172010
  C       -2.7550300    -0.2335230    -0.2686280
  C       -1.3727340    -0.3393290    -0.9144000
  C       -1.1456910    -0.3766540     1.5340440
  C       -2.4139240     0.3715680     1.0951880
  C        0.9762580    -0.3476150     0.0696660
  C       -3.7696470     0.5602740    -1.0788290
  C        1.2785260     1.0190760     0.1766520
  C        2.0223850    -1.2394820    -0.1958260
  C        2.5868840     1.4777510     0.0263980
  C        3.3346800    -0.7855870    -0.3490730
  C        3.6209360     0.5756970    -0.2390260
  H       -0.4241810    -1.9311060     0.1924250
  H       -3.1414670    -1.2511910    -0.1070860
  H       -1.0596002     0.6653909    -1.2292676
  H       -1.3450850    -0.9967850    -1.7909970
  H       -0.4862050     0.2392810     2.1528250
  H       -1.4122900    -1.2543580     2.1330320
  H       -3.2323950     0.2935880     1.8197160
  H       -2.2008590     1.4410770     0.9595580
  H       -3.4037750     1.5784440    -1.2516650
  H       -3.9506210     0.0965540    -2.0538340
  H       -4.7289130     0.6299820    -0.5557020
  H        0.4812350     1.7322070     0.3831320
  H        1.8065840    -2.3037040    -0.2799060
  H        2.8010350     2.5405970     0.1152150
  H        4.1326410    -1.4960120    -0.5534930
  H        4.6413930     0.9324010    -0.3562540
units angstrom
no_reorient  #important for SAPT in psi4, default
symmetry c1  #important for SAPT in psi4, default
}

set PROPERTIES_ORIGIN ["COM"]
properties('MP2/aug-cc-pvtz', properties = ['dipole'])
--------------------------------------------------------------------------

    Molecular point group: c1
  Charge       = 0
  Multiplicity = 1
  Basis Set: AUG-CC-PVTZ
    Blend: AUG-CC-PVTZ
  Basis Set: (AUG-CC-PVTZ AUX)
    Blend: AUG-CC-PVTZ-JKFIT

    Orbital Energies [Eh]
    ---------------------

    Doubly Occupied:

       1A    -11.236485     2A    -11.233600     3A    -11.232853
       4A    -11.228935     5A    -11.228444     6A    -11.228275
       7A    -11.228115     8A    -11.221068     9A    -11.216690
      10A    -11.214897    11A    -11.214812    12A    -11.211581
      13A     -1.156041    14A     -1.124893    15A     -1.039484
      16A     -1.008451    17A     -0.988444    18A     -0.953764
      19A     -0.892667    20A     -0.826381    21A     -0.816190
      22A     -0.763430    23A     -0.757070    24A     -0.689912
      25A     -0.660630    26A     -0.635116    27A     -0.621909
      28A     -0.606482    29A     -0.586114    30A     -0.580067
      31A     -0.573625    32A     -0.556250    33A     -0.528790
      34A     -0.510923    35A     -0.509959    36A     -0.490091
      37A     -0.475363    38A     -0.463156    39A     -0.461303
      40A     -0.453628    41A     -0.450216    42A     -0.443870
      43A     -0.332352    44A     -0.318813

  @DF-RHF Final Energy:  -463.89434539333985

   => Energetics <=

    Nuclear Repulsion Energy =            675.9722885895299669
    One-Electron Energy =               -1967.7909925562757962
    Two-Electron Energy =                 827.9243585734061526
    Total Energy =                       -463.8943453933397905
  Basis Set: (AUG-CC-PVTZ AUX)
    Blend: AUG-CC-PVTZ-RI
    Molecular point group: c1

    Geometry (in Angstrom), charge = 0, multiplicity = 1:

       Center              X                  Y                   Z               Mass
    ------------   -----------------  -----------------  -----------------  -----------------
         C           -0.513970059520    -0.828223182607     0.214360735789    12.000000000000
         C           -2.826398059520    -0.227926182607    -0.271468264211    12.000000000000
         C           -1.444102059520    -0.333732182607    -0.917240264211    12.000000000000
         C           -1.217059059520    -0.371057182607     1.531203735789    12.000000000000
         C           -2.485292059520     0.377164817393     1.092347735789    12.000000000000
         C            0.904889940480    -0.342018182607     0.066825735789    12.000000000000
         C           -3.841015059520     0.565870817393    -1.081669264211    12.000000000000
         C            1.207157940480     1.024672817393     0.173811735789    12.000000000000
         C            1.951016940480    -1.233885182607    -0.198666264211    12.000000000000
         C            2.515515940480     1.483347817393     0.023557735789    12.000000000000
         C            3.263311940480    -0.779990182607    -0.351913264211    12.000000000000
         C            3.549567940480     0.581293817393    -0.241866264211    12.000000000000
         H           -0.495549059520    -1.925509182607     0.189584735789     1.007825032230
         H           -3.212835059520    -1.245594182607    -0.109926264211     1.007825032230
         H           -1.130968259520     0.670987717393    -1.232107864211     1.007825032230
         H           -1.416453059520    -0.991188182607    -1.793837264211     1.007825032230
         H           -0.557573059520     0.244877817393     2.149984735789     1.007825032230
         H           -1.483658059520    -1.248761182607     2.130191735789     1.007825032230
         H           -3.303763059520     0.299184817393     1.816875735789     1.007825032230
         H           -2.272227059520     1.446673817393     0.956717735789     1.007825032230
         H           -3.475143059520     1.584040817393    -1.254505264211     1.007825032230
         H           -4.021989059520     0.102150817393    -2.056674264211     1.007825032230
         H           -4.800281059520     0.635578817393    -0.558542264211     1.007825032230
         H            0.409866940480     1.737803817393     0.380291735789     1.007825032230
         H            1.735215940480    -2.298107182607    -0.282746264211     1.007825032230
         H            2.729666940480     2.546193817393     0.112374735789     1.007825032230
         H            4.061272940480    -1.490415182607    -0.556333264211     1.007825032230
         H            4.570024940480     0.937997817393    -0.359094264211     1.007825032230

  Basis Set: AUG-CC-PVTZ
    Blend: AUG-CC-PVTZ
  Basis Set: (AUG-CC-PVTZ AUX)
    Blend: AUG-CC-PVTZ-JKFIT
	 Reference Energy          =    -463.8943453933398473 [Eh]
	 Singles Energy            =      -0.0000000000000000 [Eh]
	 Same-Spin Energy          =      -0.5195407384650232 [Eh]
	 Opposite-Spin Energy      =      -1.7264813586462462 [Eh]
	 Correlation Energy        =      -2.2460220971112692 [Eh]
	 Total Energy              =    -466.1403674904511263 [Eh]

	 ================> DF-SCS-MP2 Energies <==================
	-----------------------------------------------------------
	 SCS Same-Spin Scale       =       0.3333333333333333 [-]
	 SCS Opposite-Spin Scale   =       1.2000000000000000 [-]
	 SCS Same-Spin Energy      =      -0.1731802461550077 [Eh]
	 SCS Opposite-Spin Energy  =      -2.0717776303754953 [Eh]
	 SCS Correlation Energy    =      -2.2449578765305032 [Eh]
	 SCS Total Energy          =    -466.1393032698703678 [Eh]
	-----------------------------------------------------------

  Dipole Moment: [D]
     X:    -0.5693      Y:    -0.2046      Z:     0.0410     Total:     0.6063

*** Psi4 exiting successfully. Buy a developer a beer!
