                               Psi4 1.4a3.dev225

  ==> Input File <==

--------------------------------------------------------------------------
#psi4
#
memory 32 gb

molecule  {
0 1
  C       -0.4426020    -0.8338200     0.2172010
  C       -2.7550300    -0.2335230    -0.2686280
  C       -1.3727340    -0.3393290    -0.9144000
  C       -1.1456910    -0.3766540     1.5340440
  C       -2.4139240     0.3715680     1.0951880
  C        0.9762580    -0.3476150     0.0696660
  C       -3.7696470     0.5602740    -1.0788290
  C        1.2677599     0.9703978     0.1728414
  C        2.0223850    -1.2394820    -0.1958260
  C        2.5868840     1.4777510     0.0263980
  C        3.3346800    -0.7855870    -0.3490730
  C        3.6209360     0.5756970    -0.2390260
  H       -0.4241810    -1.9311060     0.1924250
  H       -3.1414670    -1.2511910    -0.1070860
  H       -1.0573430     0.6588960    -1.2471640
  H       -1.3450850    -0.9967850    -1.7909970
  H       -0.4862050     0.2392810     2.1528250
  H       -1.4122900    -1.2543580     2.1330320
  H       -3.2323950     0.2935880     1.8197160
  H       -2.2008590     1.4410770     0.9595580
  H       -3.4037750     1.5784440    -1.2516650
  H       -3.9506210     0.0965540    -2.0538340
  H       -4.7289130     0.6299820    -0.5557020
  H        0.4812350     1.7322070     0.3831320
  H        1.8065840    -2.3037040    -0.2799060
  H        2.8010350     2.5405970     0.1152150
  H        4.1326410    -1.4960120    -0.5534930
  H        4.6413930     0.9324010    -0.3562540
units angstrom
no_reorient  #important for SAPT in psi4, default
symmetry c1  #important for SAPT in psi4, default
}

set PROPERTIES_ORIGIN ["COM"]
properties('MP2/aug-cc-pvtz', properties = ['dipole'])
--------------------------------------------------------------------------

    Molecular point group: c1
  Charge       = 0
  Multiplicity = 1
  Basis Set: AUG-CC-PVTZ
    Blend: AUG-CC-PVTZ
  Basis Set: (AUG-CC-PVTZ AUX)
    Blend: AUG-CC-PVTZ-JKFIT

    Orbital Energies [Eh]
    ---------------------

    Doubly Occupied:

       1A    -11.236113     2A    -11.232538     3A    -11.230681
       4A    -11.229373     5A    -11.228857     6A    -11.227849
       7A    -11.227525     8A    -11.220817     9A    -11.216220
      10A    -11.214430    11A    -11.214294    12A    -11.211304
      13A     -1.159167    14A     -1.124664    15A     -1.041866
      16A     -1.004660    17A     -0.989793    18A     -0.954477
      19A     -0.892238    20A     -0.827182    21A     -0.817057
      22A     -0.763374    23A     -0.756984    24A     -0.688902
      25A     -0.659849    26A     -0.634347    27A     -0.622970
      28A     -0.606788    29A     -0.586667    30A     -0.579088
      31A     -0.571120    32A     -0.556124    33A     -0.527714
      34A     -0.512284    35A     -0.507041    36A     -0.493357
      37A     -0.474640    38A     -0.462800    39A     -0.459655
      40A     -0.453634    41A     -0.450471    42A     -0.442873
      43A     -0.329596    44A     -0.323770

  @DF-RHF Final Energy:  -463.89126356337533

   => Energetics <=

    Nuclear Repulsion Energy =            676.6629240484985530
    One-Electron Energy =               -1969.1780732920703940
    Two-Electron Energy =                 828.6238856801965085
    Total Energy =                       -463.8912635633753325
  Basis Set: (AUG-CC-PVTZ AUX)
    Blend: AUG-CC-PVTZ-RI
    Molecular point group: c1

    Geometry (in Angstrom), charge = 0, multiplicity = 1:

       Center              X                  Y                   Z               Mass
    ------------   -----------------  -----------------  -----------------  -----------------
         C           -0.513177440139    -0.824534293407     0.214758946937    12.000000000000
         C           -2.825605440139    -0.224237293407    -0.271070053063    12.000000000000
         C           -1.443309440139    -0.330043293407    -0.916842053063    12.000000000000
         C           -1.216266440139    -0.367368293407     1.531601946937    12.000000000000
         C           -2.484499440139     0.380853706593     1.092745946937    12.000000000000
         C            0.905682559861    -0.338329293407     0.067223946937    12.000000000000
         C           -3.840222440139     0.569559706593    -1.081271053063    12.000000000000
         C            1.197184459861     0.979683506593     0.170399346937    12.000000000000
         C            1.951809559861    -1.230196293407    -0.198268053063    12.000000000000
         C            2.516308559861     1.487036706593     0.023955946937    12.000000000000
         C            3.264104559861    -0.776301293407    -0.351515053063    12.000000000000
         C            3.550360559861     0.584982706593    -0.241468053063    12.000000000000
         H           -0.494756440139    -1.921820293407     0.189982946937     1.007825032230
         H           -3.212042440139    -1.241905293407    -0.109528053063     1.007825032230
         H           -1.127918440139     0.668181706593    -1.249606053063     1.007825032230
         H           -1.415660440139    -0.987499293407    -1.793439053063     1.007825032230
         H           -0.556780440139     0.248566706593     2.150382946937     1.007825032230
         H           -1.482865440139    -1.245072293407     2.130589946937     1.007825032230
         H           -3.302970440139     0.302873706593     1.817273946937     1.007825032230
         H           -2.271434440139     1.450362706593     0.957115946937     1.007825032230
         H           -3.474350440139     1.587729706593    -1.254107053063     1.007825032230
         H           -4.021196440139     0.105839706593    -2.056276053063     1.007825032230
         H           -4.799488440139     0.639267706593    -0.558144053063     1.007825032230
         H            0.410659559861     1.741492706593     0.380689946937     1.007825032230
         H            1.736008559861    -2.294418293407    -0.282348053063     1.007825032230
         H            2.730459559861     2.549882706593     0.112772946937     1.007825032230
         H            4.062065559861    -1.486726293407    -0.555935053063     1.007825032230
         H            4.570817559861     0.941686706593    -0.358696053063     1.007825032230

  Basis Set: AUG-CC-PVTZ
    Blend: AUG-CC-PVTZ
  Basis Set: (AUG-CC-PVTZ AUX)
    Blend: AUG-CC-PVTZ-JKFIT
	 Reference Energy          =    -463.8912635633753325 [Eh]
	 Singles Energy            =      -0.0000000000000000 [Eh]
	 Same-Spin Energy          =      -0.5196208774441990 [Eh]
	 Opposite-Spin Energy      =      -1.7265692903698828 [Eh]
	 Correlation Energy        =      -2.2461901678140821 [Eh]
	 Total Energy              =    -466.1374537311893960 [Eh]

	 ================> DF-SCS-MP2 Energies <==================
	-----------------------------------------------------------
	 SCS Same-Spin Scale       =       0.3333333333333333 [-]
	 SCS Opposite-Spin Scale   =       1.2000000000000000 [-]
	 SCS Same-Spin Energy      =      -0.1732069591480663 [Eh]
	 SCS Opposite-Spin Energy  =      -2.0718831484438591 [Eh]
	 SCS Correlation Energy    =      -2.2450901075919254 [Eh]
	 SCS Total Energy          =    -466.1363536709672530 [Eh]
	-----------------------------------------------------------

  Dipole Moment: [D]
     X:    -0.5279      Y:    -0.1925      Z:     0.0333     Total:     0.5629

*** Psi4 exiting successfully. Buy a developer a beer!
