                               Psi4 1.4a3.dev225

  ==> Input File <==

--------------------------------------------------------------------------
#psi4
#
memory 32 gb

molecule  {
0 1
  C       -0.4426020    -0.8338200     0.2172010
  C       -2.7550300    -0.2335230    -0.2686280
  C       -1.3727340    -0.3393290    -0.9144000
  C       -1.1456910    -0.3766540     1.5340440
  C       -2.4139240     0.3715680     1.0951880
  C        0.9762580    -0.3476150     0.0696660
  C       -3.7696470     0.5602740    -1.0788290
  C        1.2785260     1.0190760     0.1766520
  C        2.0223850    -1.2394820    -0.1958260
  C        2.5868840     1.4777510     0.0263980
  C        3.3346800    -0.7855870    -0.3490730
  C        3.7109681     0.6910035    -0.2398318
  H       -0.4241810    -1.9311060     0.1924250
  H       -3.1414670    -1.2511910    -0.1070860
  H       -1.0573430     0.6588960    -1.2471640
  H       -1.3450850    -0.9967850    -1.7909970
  H       -0.4862050     0.2392810     2.1528250
  H       -1.4122900    -1.2543580     2.1330320
  H       -3.2323950     0.2935880     1.8197160
  H       -2.2008590     1.4410770     0.9595580
  H       -3.4037750     1.5784440    -1.2516650
  H       -3.9506210     0.0965540    -2.0538340
  H       -4.7289130     0.6299820    -0.5557020
  H        0.4812350     1.7322070     0.3831320
  H        1.8065840    -2.3037040    -0.2799060
  H        2.8010350     2.5405970     0.1152150
  H        4.1326410    -1.4960120    -0.5534930
  H        4.6413930     0.9324010    -0.3562540
units angstrom
no_reorient  #important for SAPT in psi4, default
symmetry c1  #important for SAPT in psi4, default
}

set PROPERTIES_ORIGIN ["COM"]
properties('MP2/aug-cc-pvtz', properties = ['dipole'])
--------------------------------------------------------------------------

    Molecular point group: c1
  Charge       = 0
  Multiplicity = 1
  Basis Set: AUG-CC-PVTZ
    Blend: AUG-CC-PVTZ
  Basis Set: (AUG-CC-PVTZ AUX)
    Blend: AUG-CC-PVTZ-JKFIT

    Orbital Energies [Eh]
    ---------------------

    Doubly Occupied:

       1A    -11.246662     2A    -11.240034     3A    -11.236354
       4A    -11.232649     5A    -11.229551     6A    -11.228968
       7A    -11.227880     8A    -11.221794     9A    -11.217525
      10A    -11.215700    11A    -11.215463    12A    -11.212021
      13A     -1.152027    14A     -1.120282    15A     -1.037402
      16A     -1.004669    17A     -0.987084    18A     -0.955390
      19A     -0.895016    20A     -0.831298    21A     -0.812713
      22A     -0.764080    23A     -0.759095    24A     -0.699993
      25A     -0.662826    26A     -0.645373    27A     -0.618591
      28A     -0.604415    29A     -0.584574    30A     -0.577561
      31A     -0.570345    32A     -0.560124    33A     -0.539972
      34A     -0.518713    35A     -0.506253    36A     -0.477365
      37A     -0.470154    38A     -0.463986    39A     -0.459245
      40A     -0.453149    41A     -0.449020    42A     -0.444835
      43A     -0.335228    44A     -0.309995

  @DF-RHF Final Energy:  -463.86513157177114

   => Energetics <=

    Nuclear Repulsion Energy =            673.6054352803341772
    One-Electron Energy =               -1962.9503877995950916
    Two-Electron Energy =                 825.4798209474897703
    Total Energy =                       -463.8651315717711441
  Basis Set: (AUG-CC-PVTZ AUX)
    Blend: AUG-CC-PVTZ-RI
    Molecular point group: c1

    Geometry (in Angstrom), charge = 0, multiplicity = 1:

       Center              X                  Y                   Z               Mass
    ------------   -----------------  -----------------  -----------------  -----------------
         C           -0.520731394146    -0.836823529540     0.214533763144    12.000000000000
         C           -2.833159394146    -0.236526529540    -0.271295236856    12.000000000000
         C           -1.450863394146    -0.342332529540    -0.917067236856    12.000000000000
         C           -1.223820394146    -0.379657529540     1.531376763144    12.000000000000
         C           -2.492053394146     0.368564470460     1.092520763144    12.000000000000
         C            0.898128605854    -0.350618529540     0.066998763144    12.000000000000
         C           -3.847776394146     0.557270470460    -1.081496236856    12.000000000000
         C            1.200396605854     1.016072470460     0.173984763144    12.000000000000
         C            1.944255605854    -1.242485529540    -0.198493236856    12.000000000000
         C            2.508754605854     1.474747470460     0.023730763144    12.000000000000
         C            3.256550605854    -0.788590529540    -0.351740236856    12.000000000000
         C            3.632838705854     0.687999970460    -0.242499036856    12.000000000000
         H           -0.502310394146    -1.934109529540     0.189757763144     1.007825032230
         H           -3.219596394146    -1.254194529540    -0.109753236856     1.007825032230
         H           -1.135472394146     0.655892470460    -1.249831236856     1.007825032230
         H           -1.423214394146    -0.999788529540    -1.793664236856     1.007825032230
         H           -0.564334394146     0.236277470460     2.150157763144     1.007825032230
         H           -1.490419394146    -1.257361529540     2.130364763144     1.007825032230
         H           -3.310524394146     0.290584470460     1.817048763144     1.007825032230
         H           -2.278988394146     1.438073470460     0.956890763144     1.007825032230
         H           -3.481904394146     1.575440470460    -1.254332236856     1.007825032230
         H           -4.028750394146     0.093550470460    -2.056501236856     1.007825032230
         H           -4.807042394146     0.626978470460    -0.558369236856     1.007825032230
         H            0.403105605854     1.729203470460     0.380464763144     1.007825032230
         H            1.728454605854    -2.306707529540    -0.282573236856     1.007825032230
         H            2.722905605854     2.537593470460     0.112547763144     1.007825032230
         H            4.054511605854    -1.499015529540    -0.556160236856     1.007825032230
         H            4.563263605854     0.929397470460    -0.358921236856     1.007825032230

  Basis Set: AUG-CC-PVTZ
    Blend: AUG-CC-PVTZ
  Basis Set: (AUG-CC-PVTZ AUX)
    Blend: AUG-CC-PVTZ-JKFIT
	 Reference Energy          =    -463.8651315717711441 [Eh]
	 Singles Energy            =      -0.0000000000000000 [Eh]
	 Same-Spin Energy          =      -0.5197254079698506 [Eh]
	 Opposite-Spin Energy      =      -1.7285918238866036 [Eh]
	 Correlation Energy        =      -2.2483172318564542 [Eh]
	 Total Energy              =    -466.1134488036275911 [Eh]

	 ================> DF-SCS-MP2 Energies <==================
	-----------------------------------------------------------
	 SCS Same-Spin Scale       =       0.3333333333333333 [-]
	 SCS Opposite-Spin Scale   =       1.2000000000000000 [-]
	 SCS Same-Spin Energy      =      -0.1732418026566168 [Eh]
	 SCS Opposite-Spin Energy  =      -2.0743101886639241 [Eh]
	 SCS Correlation Energy    =      -2.2475519913205408 [Eh]
	 SCS Total Energy          =    -466.1126835630917071 [Eh]
	-----------------------------------------------------------

  Dipole Moment: [D]
     X:    -0.6061      Y:    -0.2221      Z:     0.0369     Total:     0.6465

*** Psi4 exiting successfully. Buy a developer a beer!
