                               Psi4 1.4a3.dev225

  ==> Input File <==

--------------------------------------------------------------------------
#psi4
#
memory 32 gb

molecule  {
0 1
  C       -0.4426020    -0.8338200     0.2172010
  C       -2.7550300    -0.2335230    -0.2686280
  C       -1.3727340    -0.3393290    -0.9144000
  C       -1.1456910    -0.3766540     1.5340440
  C       -2.4139240     0.3715680     1.0951880
  C        0.9762580    -0.3476150     0.0696660
  C       -3.7696470     0.5602740    -1.0788290
  C        1.2785260     1.0190760     0.1766520
  C        2.0223850    -1.2394820    -0.1958260
  C        2.5868840     1.4777510     0.0263980
  C        3.3346800    -0.7855870    -0.3490730
  C        3.6209360     0.5756970    -0.2390260
  H       -0.4241810    -1.9311060     0.1924250
  H       -3.1414670    -1.2511910    -0.1070860
  H       -1.0573430     0.6588960    -1.2471640
  H       -1.3450850    -0.9967850    -1.7909970
  H       -0.4862050     0.2392810     2.1528250
  H       -1.4122900    -1.2543580     2.1330320
  H       -3.2323950     0.2935880     1.8197160
  H       -2.2008590     1.4410770     0.9595580
  H       -3.4037750     1.5784440    -1.2516650
  H       -3.9506210     0.0965540    -2.0538340
  H       -4.7289130     0.6299820    -0.5557020
  H        0.4812350     1.7322070     0.3831320
  H        1.8065840    -2.3037040    -0.2799060
  H        2.8010350     2.5405970     0.1152150
  H        4.1693199    -1.5286673    -0.5628893
  H        4.6413930     0.9324010    -0.3562540
units angstrom
no_reorient  #important for SAPT in psi4, default
symmetry c1  #important for SAPT in psi4, default
}

set PROPERTIES_ORIGIN ["COM"]
properties('MP2/aug-cc-pvtz', properties = ['dipole'])
--------------------------------------------------------------------------

    Molecular point group: c1
  Charge       = 0
  Multiplicity = 1
  Basis Set: AUG-CC-PVTZ
    Blend: AUG-CC-PVTZ
  Basis Set: (AUG-CC-PVTZ AUX)
    Blend: AUG-CC-PVTZ-JKFIT

    Orbital Energies [Eh]
    ---------------------

    Doubly Occupied:

       1A    -11.238569     2A    -11.236859     3A    -11.233951
       4A    -11.229472     5A    -11.228708     6A    -11.228630
       7A    -11.228541     8A    -11.221272     9A    -11.216828
      10A    -11.214994    11A    -11.214867    12A    -11.211668
      13A     -1.156145    14A     -1.124864    15A     -1.039461
      16A     -1.007530    17A     -0.988450    18A     -0.953915
      19A     -0.892797    20A     -0.824253    21A     -0.816446
      22A     -0.763701    23A     -0.755368    24A     -0.689321
      25A     -0.660516    26A     -0.633175    27A     -0.622033
      28A     -0.604617    29A     -0.585647    30A     -0.577622
      31A     -0.573398    32A     -0.556222    33A     -0.528673
      34A     -0.510421    35A     -0.510236    36A     -0.488778
      37A     -0.475360    38A     -0.463538    39A     -0.461093
      40A     -0.453859    41A     -0.450360    42A     -0.443875
      43A     -0.332641    44A     -0.319096

  @DF-RHF Final Energy:  -463.89195809328925

   => Energetics <=

    Nuclear Repulsion Energy =            675.6858046450853408
    One-Electron Energy =               -1967.2199780055045721
    Two-Electron Energy =                 827.6422152671298136
    Total Energy =                       -463.8919580932893041
  Basis Set: (AUG-CC-PVTZ AUX)
    Blend: AUG-CC-PVTZ-RI
    Molecular point group: c1

    Geometry (in Angstrom), charge = 0, multiplicity = 1:

       Center              X                  Y                   Z               Mass
    ------------   -----------------  -----------------  -----------------  -----------------
         C           -0.514215122609    -0.827976771977     0.214532515534    12.000000000000
         C           -2.826643122609    -0.227679771977    -0.271296484466    12.000000000000
         C           -1.444347122609    -0.333485771977    -0.917068484466    12.000000000000
         C           -1.217304122609    -0.370810771977     1.531375515534    12.000000000000
         C           -2.485537122609     0.377411228023     1.092519515534    12.000000000000
         C            0.904644877391    -0.341771771977     0.066997515534    12.000000000000
         C           -3.841260122609     0.566117228023    -1.081497484466    12.000000000000
         C            1.206912877391     1.024919228023     0.173983515534    12.000000000000
         C            1.950771877391    -1.233638771977    -0.198494484466    12.000000000000
         C            2.515270877391     1.483594228023     0.023729515534    12.000000000000
         C            3.263066877391    -0.779743771977    -0.351741484466    12.000000000000
         C            3.549322877391     0.581540228023    -0.241694484466    12.000000000000
         H           -0.495794122609    -1.925262771977     0.189756515534     1.007825032230
         H           -3.213080122609    -1.245347771977    -0.109754484466     1.007825032230
         H           -1.128956122609     0.664739228023    -1.249832484466     1.007825032230
         H           -1.416698122609    -0.990941771977    -1.793665484466     1.007825032230
         H           -0.557818122609     0.245124228023     2.150156515534     1.007825032230
         H           -1.483903122609    -1.248514771977     2.130363515534     1.007825032230
         H           -3.304008122609     0.299431228023     1.817047515534     1.007825032230
         H           -2.272472122609     1.446920228023     0.956889515534     1.007825032230
         H           -3.475388122609     1.584287228023    -1.254333484466     1.007825032230
         H           -4.022234122609     0.102397228023    -2.056502484466     1.007825032230
         H           -4.800526122609     0.635825228023    -0.558370484466     1.007825032230
         H            0.409621877391     1.738050228023     0.380463515534     1.007825032230
         H            1.734970877391    -2.297860771977    -0.282574484466     1.007825032230
         H            2.729421877391     2.546440228023     0.112546515534     1.007825032230
         H            4.097706777391    -1.522824071977    -0.565557784466     1.007825032230
         H            4.569779877391     0.938244228023    -0.358922484466     1.007825032230

  Basis Set: AUG-CC-PVTZ
    Blend: AUG-CC-PVTZ
  Basis Set: (AUG-CC-PVTZ AUX)
    Blend: AUG-CC-PVTZ-JKFIT
	 Reference Energy          =    -463.8919580932892472 [Eh]
	 Singles Energy            =      -0.0000000000000000 [Eh]
	 Same-Spin Energy          =      -0.5196062873083493 [Eh]
	 Opposite-Spin Energy      =      -1.7268765079871800 [Eh]
	 Correlation Energy        =      -2.2464827952955293 [Eh]
	 Total Energy              =    -466.1384408885847961 [Eh]

	 ================> DF-SCS-MP2 Energies <==================
	-----------------------------------------------------------
	 SCS Same-Spin Scale       =       0.3333333333333333 [-]
	 SCS Opposite-Spin Scale   =       1.2000000000000000 [-]
	 SCS Same-Spin Energy      =      -0.1732020957694498 [Eh]
	 SCS Opposite-Spin Energy  =      -2.0722518095846159 [Eh]
	 SCS Correlation Energy    =      -2.2454539053540654 [Eh]
	 SCS Total Energy          =    -466.1374119986433016 [Eh]
	-----------------------------------------------------------

  Dipole Moment: [D]
     X:    -0.5920      Y:    -0.1874      Z:     0.0421     Total:     0.6224

*** Psi4 exiting successfully. Buy a developer a beer!
