                               Psi4 1.4a3.dev225

  ==> Input File <==

--------------------------------------------------------------------------
#psi4
#
memory 32 gb

molecule  {
0 1
  C       -0.4426020    -0.8338200     0.2172010
  C       -2.7550300    -0.2335230    -0.2686280
  C       -1.3727340    -0.3393290    -0.9144000
  C       -1.1456910    -0.3766540     1.5340440
  C       -2.4139240     0.3715680     1.0951880
  C        0.9762580    -0.3476150     0.0696660
  C       -3.7696470     0.5602740    -1.0788290
  C        1.2785260     1.0190760     0.1766520
  C        2.0223850    -1.2394820    -0.1958260
  C        2.5868840     1.4777510     0.0263980
  C        3.3346800    -0.7855870    -0.3490730
  C        3.6209360     0.5756970    -0.2390260
  H       -0.4241810    -1.9311060     0.1924250
  H       -3.1414670    -1.2511910    -0.1070860
  H       -1.0492814     0.6298968    -1.3176818
  H       -1.3450850    -0.9967850    -1.7909970
  H       -0.4862050     0.2392810     2.1528250
  H       -1.4122900    -1.2543580     2.1330320
  H       -3.2323950     0.2935880     1.8197160
  H       -2.2008590     1.4410770     0.9595580
  H       -3.4037750     1.5784440    -1.2516650
  H       -3.9506210     0.0965540    -2.0538340
  H       -4.7289130     0.6299820    -0.5557020
  H        0.4812350     1.7322070     0.3831320
  H        1.8065840    -2.3037040    -0.2799060
  H        2.8010350     2.5405970     0.1152150
  H        4.1326410    -1.4960120    -0.5534930
  H        4.6413930     0.9324010    -0.3562540
units angstrom
no_reorient  #important for SAPT in psi4, default
symmetry c1  #important for SAPT in psi4, default
}

set PROPERTIES_ORIGIN ["COM"]
properties('MP2/aug-cc-pvtz', properties = ['dipole'])
--------------------------------------------------------------------------

    Molecular point group: c1
  Charge       = 0
  Multiplicity = 1
  Basis Set: AUG-CC-PVTZ
    Blend: AUG-CC-PVTZ
  Basis Set: (AUG-CC-PVTZ AUX)
    Blend: AUG-CC-PVTZ-JKFIT

    Orbital Energies [Eh]
    ---------------------

    Doubly Occupied:

       1A    -11.236506     2A    -11.233504     3A    -11.232798
       4A    -11.228875     5A    -11.228777     6A    -11.228307
       7A    -11.228074     8A    -11.221585     9A    -11.216706
      10A    -11.214854    11A    -11.214421    12A    -11.211601
      13A     -1.155817    14A     -1.124520    15A     -1.039460
      16A     -1.008366    17A     -0.988493    18A     -0.953874
      19A     -0.892624    20A     -0.826303    21A     -0.816207
      22A     -0.764347    23A     -0.757681    24A     -0.689772
      25A     -0.659810    26A     -0.635473    27A     -0.621698
      28A     -0.606570    29A     -0.586190    30A     -0.579579
      31A     -0.572927    32A     -0.555575    33A     -0.527540
      34A     -0.510900    35A     -0.510330    36A     -0.489739
      37A     -0.475411    38A     -0.464135    39A     -0.461125
      40A     -0.453503    41A     -0.450463    42A     -0.443673
      43A     -0.332296    44A     -0.318711

  @DF-RHF Final Energy:  -463.89392775355088

   => Energetics <=

    Nuclear Repulsion Energy =            675.8127393211084382
    One-Electron Energy =               -1967.4750884370064341
    Two-Electron Energy =                 827.7684213623471123
    Total Energy =                       -463.8939277535508836
  Basis Set: (AUG-CC-PVTZ AUX)
    Blend: AUG-CC-PVTZ-RI
    Molecular point group: c1

    Geometry (in Angstrom), charge = 0, multiplicity = 1:

       Center              X                  Y                   Z               Mass
    ------------   -----------------  -----------------  -----------------  -----------------
         C           -0.514035005855    -0.827999783402     0.214917213118    12.000000000000
         C           -2.826463005855    -0.227702783402    -0.270911786882    12.000000000000
         C           -1.444167005855    -0.333508783402    -0.916683786882    12.000000000000
         C           -1.217124005855    -0.370833783402     1.531760213118    12.000000000000
         C           -2.485357005855     0.377388216598     1.092904213118    12.000000000000
         C            0.904824994145    -0.341794783402     0.067382213118    12.000000000000
         C           -3.841080005855     0.566094216598    -1.081112786882    12.000000000000
         C            1.207092994145     1.024896216598     0.174368213118    12.000000000000
         C            1.950951994145    -1.233661783402    -0.198109786882    12.000000000000
         C            2.515450994145     1.483571216598     0.024114213118    12.000000000000
         C            3.263246994145    -0.779766783402    -0.351356786882    12.000000000000
         C            3.549502994145     0.581517216598    -0.241309786882    12.000000000000
         H           -0.495614005855    -1.925285783402     0.190141213118     1.007825032230
         H           -3.212900005855    -1.245370783402    -0.109369786882     1.007825032230
         H           -1.120714405855     0.635717016598    -1.319965586882     1.007825032230
         H           -1.416518005855    -0.990964783402    -1.793280786882     1.007825032230
         H           -0.557638005855     0.245101216598     2.150541213118     1.007825032230
         H           -1.483723005855    -1.248537783402     2.130748213118     1.007825032230
         H           -3.303828005855     0.299408216598     1.817432213118     1.007825032230
         H           -2.272292005855     1.446897216598     0.957274213118     1.007825032230
         H           -3.475208005855     1.584264216598    -1.253948786882     1.007825032230
         H           -4.022054005855     0.102374216598    -2.056117786882     1.007825032230
         H           -4.800346005855     0.635802216598    -0.557985786882     1.007825032230
         H            0.409801994145     1.738027216598     0.380848213118     1.007825032230
         H            1.735150994145    -2.297883783402    -0.282189786882     1.007825032230
         H            2.729601994145     2.546417216598     0.112931213118     1.007825032230
         H            4.061207994145    -1.490191783402    -0.555776786882     1.007825032230
         H            4.569959994145     0.938221216598    -0.358537786882     1.007825032230

  Basis Set: AUG-CC-PVTZ
    Blend: AUG-CC-PVTZ
  Basis Set: (AUG-CC-PVTZ AUX)
    Blend: AUG-CC-PVTZ-JKFIT
	 Reference Energy          =    -463.8939277535508836 [Eh]
	 Singles Energy            =      -0.0000000000000000 [Eh]
	 Same-Spin Energy          =      -0.5194196722610588 [Eh]
	 Opposite-Spin Energy      =      -1.7263137198785214 [Eh]
	 Correlation Energy        =      -2.2457333921395803 [Eh]
	 Total Energy              =    -466.1396611456904679 [Eh]

	 ================> DF-SCS-MP2 Energies <==================
	-----------------------------------------------------------
	 SCS Same-Spin Scale       =       0.3333333333333333 [-]
	 SCS Opposite-Spin Scale   =       1.2000000000000000 [-]
	 SCS Same-Spin Energy      =      -0.1731398907536862 [Eh]
	 SCS Opposite-Spin Energy  =      -2.0715764638542256 [Eh]
	 SCS Correlation Energy    =      -2.2447163546079119 [Eh]
	 SCS Total Energy          =    -466.1386441081588146 [Eh]
	-----------------------------------------------------------

  Dipole Moment: [D]
     X:    -0.5694      Y:    -0.1961      Z:     0.0217     Total:     0.6026

*** Psi4 exiting successfully. Buy a developer a beer!
