                               Psi4 1.4a3.dev225

  ==> Input File <==

--------------------------------------------------------------------------
#psi4
#
memory 32 gb

molecule  {
0 1
  C       -0.4483505    -0.8855850     0.2332305
  C       -2.7550300    -0.2335230    -0.2686280
  C       -1.3727340    -0.3393290    -0.9144000
  C       -1.1456910    -0.3766540     1.5340440
  C       -2.4139240     0.3715680     1.0951880
  C        0.9762580    -0.3476150     0.0696660
  C       -3.7696470     0.5602740    -1.0788290
  C        1.2785260     1.0190760     0.1766520
  C        2.0223850    -1.2394820    -0.1958260
  C        2.5868840     1.4777510     0.0263980
  C        3.3346800    -0.7855870    -0.3490730
  C        3.6209360     0.5756970    -0.2390260
  H       -0.4241810    -1.9311060     0.1924250
  H       -3.1414670    -1.2511910    -0.1070860
  H       -1.0573430     0.6588960    -1.2471640
  H       -1.3450850    -0.9967850    -1.7909970
  H       -0.4862050     0.2392810     2.1528250
  H       -1.4122900    -1.2543580     2.1330320
  H       -3.2323950     0.2935880     1.8197160
  H       -2.2008590     1.4410770     0.9595580
  H       -3.4037750     1.5784440    -1.2516650
  H       -3.9506210     0.0965540    -2.0538340
  H       -4.7289130     0.6299820    -0.5557020
  H        0.4812350     1.7322070     0.3831320
  H        1.8065840    -2.3037040    -0.2799060
  H        2.8010350     2.5405970     0.1152150
  H        4.1326410    -1.4960120    -0.5534930
  H        4.6413930     0.9324010    -0.3562540
units angstrom
no_reorient  #important for SAPT in psi4, default
symmetry c1  #important for SAPT in psi4, default
}

set PROPERTIES_ORIGIN ["COM"]
properties('MP2/aug-cc-pvtz', properties = ['dipole'])
--------------------------------------------------------------------------

    Molecular point group: c1
  Charge       = 0
  Multiplicity = 1
  Basis Set: AUG-CC-PVTZ
    Blend: AUG-CC-PVTZ
  Basis Set: (AUG-CC-PVTZ AUX)
    Blend: AUG-CC-PVTZ-JKFIT

    Orbital Energies [Eh]
    ---------------------

    Doubly Occupied:

       1A    -11.237537     2A    -11.233563     3A    -11.232349
       4A    -11.228526     5A    -11.228246     6A    -11.227298
       7A    -11.227071     8A    -11.220871     9A    -11.216623
      10A    -11.215786    11A    -11.214957    12A    -11.211401
      13A     -1.154011    14A     -1.123542    15A     -1.037734
      16A     -1.008011    17A     -0.988276    18A     -0.951902
      19A     -0.893435    20A     -0.826524    21A     -0.814170
      22A     -0.764078    23A     -0.760103    24A     -0.690334
      25A     -0.659904    26A     -0.633226    27A     -0.621539
      28A     -0.606183    29A     -0.587446    30A     -0.579615
      31A     -0.575115    32A     -0.555126    33A     -0.528868
      34A     -0.511600    35A     -0.508066    36A     -0.490328
      37A     -0.473474    38A     -0.465316    39A     -0.461833
      40A     -0.455060    41A     -0.451413    42A     -0.440490
      43A     -0.332030    44A     -0.317780

  @DF-RHF Final Energy:  -463.89170433478216

   => Energetics <=

    Nuclear Repulsion Energy =            675.2943863483018276
    One-Electron Energy =               -1966.4506582868182250
    Two-Electron Energy =                 827.2645676037343492
    Total Energy =                       -463.8917043347821618
  Basis Set: (AUG-CC-PVTZ AUX)
    Blend: AUG-CC-PVTZ-RI
    Molecular point group: c1

    Geometry (in Angstrom), charge = 0, multiplicity = 1:

       Center              X                  Y                   Z               Mass
    ------------   -----------------  -----------------  -----------------  -----------------
         C           -0.519301965898    -0.876067964423     0.229301602897    12.000000000000
         C           -2.825981465898    -0.224005964423    -0.272556897103    12.000000000000
         C           -1.443685465898    -0.329811964423    -0.918328897103    12.000000000000
         C           -1.216642465898    -0.367136964423     1.530115102897    12.000000000000
         C           -2.484875465898     0.381085035577     1.091259102897    12.000000000000
         C            0.905306534102    -0.338097964423     0.065737102897    12.000000000000
         C           -3.840598465898     0.569791035577    -1.082757897103    12.000000000000
         C            1.207574534102     1.028593035577     0.172723102897    12.000000000000
         C            1.951433534102    -1.229964964423    -0.199754897103    12.000000000000
         C            2.515932534102     1.487268035577     0.022469102897    12.000000000000
         C            3.263728534102    -0.776069964423    -0.353001897103    12.000000000000
         C            3.549984534102     0.585214035577    -0.242954897103    12.000000000000
         H           -0.495132465898    -1.921588964423     0.188496102897     1.007825032230
         H           -3.212418465898    -1.241673964423    -0.111014897103     1.007825032230
         H           -1.128294465898     0.668413035577    -1.251092897103     1.007825032230
         H           -1.416036465898    -0.987267964423    -1.794925897103     1.007825032230
         H           -0.557156465898     0.248798035577     2.148896102897     1.007825032230
         H           -1.483241465898    -1.244840964423     2.129103102897     1.007825032230
         H           -3.303346465898     0.303105035577     1.815787102897     1.007825032230
         H           -2.271810465898     1.450594035577     0.955629102897     1.007825032230
         H           -3.474726465898     1.587961035577    -1.255593897103     1.007825032230
         H           -4.021572465898     0.106071035577    -2.057762897103     1.007825032230
         H           -4.799864465898     0.639499035577    -0.559630897103     1.007825032230
         H            0.410283534102     1.741724035577     0.379203102897     1.007825032230
         H            1.735632534102    -2.294186964423    -0.283834897103     1.007825032230
         H            2.730083534102     2.550114035577     0.111286102897     1.007825032230
         H            4.061689534102    -1.486494964423    -0.557421897103     1.007825032230
         H            4.570441534102     0.941918035577    -0.360182897103     1.007825032230

  Basis Set: AUG-CC-PVTZ
    Blend: AUG-CC-PVTZ
  Basis Set: (AUG-CC-PVTZ AUX)
    Blend: AUG-CC-PVTZ-JKFIT
	 Reference Energy          =    -463.8917043347821618 [Eh]
	 Singles Energy            =      -0.0000000000000000 [Eh]
	 Same-Spin Energy          =      -0.5192116834677053 [Eh]
	 Opposite-Spin Energy      =      -1.7261395260442463 [Eh]
	 Correlation Energy        =      -2.2453512095119517 [Eh]
	 Total Energy              =    -466.1370555442941281 [Eh]

	 ================> DF-SCS-MP2 Energies <==================
	-----------------------------------------------------------
	 SCS Same-Spin Scale       =       0.3333333333333333 [-]
	 SCS Opposite-Spin Scale   =       1.2000000000000000 [-]
	 SCS Same-Spin Energy      =      -0.1730705611559017 [Eh]
	 SCS Opposite-Spin Energy  =      -2.0713674312530954 [Eh]
	 SCS Correlation Energy    =      -2.2444379924089972 [Eh]
	 SCS Total Energy          =    -466.1361423271911804 [Eh]
	-----------------------------------------------------------

  Dipole Moment: [D]
     X:    -0.5945      Y:    -0.2401      Z:     0.0427     Total:     0.6425

*** Psi4 exiting successfully. Buy a developer a beer!
