                               Psi4 1.4a3.dev225

  ==> Input File <==

--------------------------------------------------------------------------
#psi4
#
memory 32 gb

molecule  {
0 1
  C       -0.4426020    -0.8338200     0.2172010
  C       -2.7762137    -0.2173317    -0.2702518
  C       -1.3727340    -0.3393290    -0.9144000
  C       -1.1456910    -0.3766540     1.5340440
  C       -2.4139240     0.3715680     1.0951880
  C        0.9762580    -0.3476150     0.0696660
  C       -3.7696470     0.5602740    -1.0788290
  C        1.2785260     1.0190760     0.1766520
  C        2.0223850    -1.2394820    -0.1958260
  C        2.5868840     1.4777510     0.0263980
  C        3.3346800    -0.7855870    -0.3490730
  C        3.6209360     0.5756970    -0.2390260
  H       -0.4241810    -1.9311060     0.1924250
  H       -3.1414670    -1.2511910    -0.1070860
  H       -1.0573430     0.6588960    -1.2471640
  H       -1.3450850    -0.9967850    -1.7909970
  H       -0.4862050     0.2392810     2.1528250
  H       -1.4122900    -1.2543580     2.1330320
  H       -3.2323950     0.2935880     1.8197160
  H       -2.2008590     1.4410770     0.9595580
  H       -3.4037750     1.5784440    -1.2516650
  H       -3.9506210     0.0965540    -2.0538340
  H       -4.7289130     0.6299820    -0.5557020
  H        0.4812350     1.7322070     0.3831320
  H        1.8065840    -2.3037040    -0.2799060
  H        2.8010350     2.5405970     0.1152150
  H        4.1326410    -1.4960120    -0.5534930
  H        4.6413930     0.9324010    -0.3562540
units angstrom
no_reorient  #important for SAPT in psi4, default
symmetry c1  #important for SAPT in psi4, default
}

set PROPERTIES_ORIGIN ["COM"]
properties('MP2/aug-cc-pvtz', properties = ['dipole'])
--------------------------------------------------------------------------

    Molecular point group: c1
  Charge       = 0
  Multiplicity = 1
  Basis Set: AUG-CC-PVTZ
    Blend: AUG-CC-PVTZ
  Basis Set: (AUG-CC-PVTZ AUX)
    Blend: AUG-CC-PVTZ-JKFIT

    Orbital Energies [Eh]
    ---------------------

    Doubly Occupied:

       1A    -11.236552     2A    -11.233572     3A    -11.232841
       4A    -11.228939     5A    -11.228489     6A    -11.228414
       7A    -11.228137     8A    -11.221730     9A    -11.217073
      10A    -11.215311    11A    -11.215109    12A    -11.211143
      13A     -1.155584    14A     -1.123816    15A     -1.040878
      16A     -1.008453    17A     -0.990459    18A     -0.952900
      19A     -0.892846    20A     -0.826425    21A     -0.816254
      22A     -0.762050    23A     -0.757003    24A     -0.689893
      25A     -0.659592    26A     -0.635024    27A     -0.622278
      28A     -0.606769    29A     -0.587019    30A     -0.580106
      31A     -0.573580    32A     -0.557263    33A     -0.529107
      34A     -0.510824    35A     -0.510487    36A     -0.490275
      37A     -0.474550    38A     -0.467863    39A     -0.461172
      40A     -0.451972    41A     -0.449197    42A     -0.440348
      43A     -0.332336    44A     -0.318779

  @DF-RHF Final Energy:  -463.89359130102588

   => Energetics <=

    Nuclear Repulsion Energy =            675.7350413730232503
    One-Electron Energy =               -1967.3124427884774832
    Two-Electron Energy =                 827.6838101144284110
    Total Energy =                       -463.8935913010258218
  Basis Set: (AUG-CC-PVTZ AUX)
    Blend: AUG-CC-PVTZ-RI
    Molecular point group: c1

    Geometry (in Angstrom), charge = 0, multiplicity = 1:

       Center              X                  Y                   Z               Mass
    ------------   -----------------  -----------------  -----------------  -----------------
         C           -0.512396731046    -0.829395701839     0.214595065175    12.000000000000
         C           -2.846008431046    -0.212907401839    -0.272857734825    12.000000000000
         C           -1.442528731046    -0.334904701839    -0.917005934825    12.000000000000
         C           -1.215485731046    -0.372229701839     1.531438065175    12.000000000000
         C           -2.483718731046     0.375992298161     1.092582065175    12.000000000000
         C            0.906463268954    -0.343190701839     0.067060065175    12.000000000000
         C           -3.839441731046     0.564698298161    -1.081434934825    12.000000000000
         C            1.208731268954     1.023500298161     0.174046065175    12.000000000000
         C            1.952590268954    -1.235057701839    -0.198431934825    12.000000000000
         C            2.517089268954     1.482175298161     0.023792065175    12.000000000000
         C            3.264885268954    -0.781162701839    -0.351678934825    12.000000000000
         C            3.551141268954     0.580121298161    -0.241631934825    12.000000000000
         H           -0.493975731046    -1.926681701839     0.189819065175     1.007825032230
         H           -3.211261731046    -1.246766701839    -0.109691934825     1.007825032230
         H           -1.127137731046     0.663320298161    -1.249769934825     1.007825032230
         H           -1.414879731046    -0.992360701839    -1.793602934825     1.007825032230
         H           -0.555999731046     0.243705298161     2.150219065175     1.007825032230
         H           -1.482084731046    -1.249933701839     2.130426065175     1.007825032230
         H           -3.302189731046     0.298012298161     1.817110065175     1.007825032230
         H           -2.270653731046     1.445501298161     0.956952065175     1.007825032230
         H           -3.473569731046     1.582868298161    -1.254270934825     1.007825032230
         H           -4.020415731046     0.100978298161    -2.056439934825     1.007825032230
         H           -4.798707731046     0.634406298161    -0.558307934825     1.007825032230
         H            0.411440268954     1.736631298161     0.380526065175     1.007825032230
         H            1.736789268954    -2.299279701839    -0.282511934825     1.007825032230
         H            2.731240268954     2.545021298161     0.112609065175     1.007825032230
         H            4.062846268954    -1.491587701839    -0.556098934825     1.007825032230
         H            4.571598268954     0.936825298161    -0.358859934825     1.007825032230

  Basis Set: AUG-CC-PVTZ
    Blend: AUG-CC-PVTZ
  Basis Set: (AUG-CC-PVTZ AUX)
    Blend: AUG-CC-PVTZ-JKFIT
	 Reference Energy          =    -463.8935913010258787 [Eh]
	 Singles Energy            =      -0.0000000000000000 [Eh]
	 Same-Spin Energy          =      -0.5195669237605283 [Eh]
	 Opposite-Spin Energy      =      -1.7265572902532198 [Eh]
	 Correlation Energy        =      -2.2461242140137481 [Eh]
	 Total Energy              =    -466.1397155150396543 [Eh]

	 ================> DF-SCS-MP2 Energies <==================
	-----------------------------------------------------------
	 SCS Same-Spin Scale       =       0.3333333333333333 [-]
	 SCS Opposite-Spin Scale   =       1.2000000000000000 [-]
	 SCS Same-Spin Energy      =      -0.1731889745868427 [Eh]
	 SCS Opposite-Spin Energy  =      -2.0718687483038636 [Eh]
	 SCS Correlation Energy    =      -2.2450577228907065 [Eh]
	 SCS Total Energy          =    -466.1386490239165710 [Eh]
	-----------------------------------------------------------

  Dipole Moment: [D]
     X:    -0.5766      Y:    -0.1920      Z:     0.0293     Total:     0.6084

*** Psi4 exiting successfully. Buy a developer a beer!
