                               Psi4 1.4a3.dev225

  ==> Input File <==

--------------------------------------------------------------------------
#psi4
#
memory 32 gb

molecule  {
0 1
  C       -0.4426020    -0.8338200     0.2172010
  C       -2.7550300    -0.2335230    -0.2686280
  C       -1.3727340    -0.3393290    -0.9144000
  C       -1.1456910    -0.3766540     1.5340440
  C       -2.4139240     0.3715680     1.0951880
  C        0.9762580    -0.3476150     0.0696660
  C       -3.7696470     0.5602740    -1.0788290
  C        1.2785260     1.0190760     0.1766520
  C        2.0223850    -1.2394820    -0.1958260
  C        2.5868840     1.4777510     0.0263980
  C        3.3346800    -0.7855870    -0.3490730
  C        3.6209360     0.5756970    -0.2390260
  H       -0.4241810    -1.9311060     0.1924250
  H       -3.1414670    -1.2511910    -0.1070860
  H       -1.0573430     0.6588960    -1.2471640
  H       -1.3450850    -0.9967850    -1.7909970
  H       -0.4862050     0.2392810     2.1528250
  H       -1.4122900    -1.2543580     2.1330320
  H       -3.2323950     0.2935880     1.8197160
  H       -2.2008590     1.4410770     0.9595580
  H       -3.3982737     1.5893650    -1.1376371
  H       -3.9506210     0.0965540    -2.0538340
  H       -4.7289130     0.6299820    -0.5557020
  H        0.4812350     1.7322070     0.3831320
  H        1.8065840    -2.3037040    -0.2799060
  H        2.8010350     2.5405970     0.1152150
  H        4.1326410    -1.4960120    -0.5534930
  H        4.6413930     0.9324010    -0.3562540
units angstrom
no_reorient  #important for SAPT in psi4, default
symmetry c1  #important for SAPT in psi4, default
}

set PROPERTIES_ORIGIN ["COM"]
properties('MP2/aug-cc-pvtz', properties = ['dipole'])
--------------------------------------------------------------------------

    Molecular point group: c1
  Charge       = 0
  Multiplicity = 1
  Basis Set: AUG-CC-PVTZ
    Blend: AUG-CC-PVTZ
  Basis Set: (AUG-CC-PVTZ AUX)
    Blend: AUG-CC-PVTZ-JKFIT

    Orbital Energies [Eh]
    ---------------------

    Doubly Occupied:

       1A    -11.236483     2A    -11.233582     3A    -11.232839
       4A    -11.228919     5A    -11.228431     6A    -11.228362
       7A    -11.228104     8A    -11.220519     9A    -11.216794
      10A    -11.215102    11A    -11.214640    12A    -11.211802
      13A     -1.156015    14A     -1.124951    15A     -1.039753
      16A     -1.008435    17A     -0.988669    18A     -0.953927
      19A     -0.892213    20A     -0.826294    21A     -0.816153
      22A     -0.763075    23A     -0.757227    24A     -0.689836
      25A     -0.660854    26A     -0.634950    27A     -0.622501
      28A     -0.605940    29A     -0.589050    30A     -0.580326
      31A     -0.572729    32A     -0.556404    33A     -0.528712
      34A     -0.510159    35A     -0.509844    36A     -0.489788
      37A     -0.475281    38A     -0.462281    39A     -0.460609
      40A     -0.454018    41A     -0.450739    42A     -0.443670
      43A     -0.332339    44A     -0.318790

  @DF-RHF Final Energy:  -463.89299642274540

   => Energetics <=

    Nuclear Repulsion Energy =            676.0611756479466976
    One-Electron Energy =               -1967.9661251809438909
    Two-Electron Energy =                 828.0119531102518522
    Total Energy =                       -463.8929964227454548
  Basis Set: (AUG-CC-PVTZ AUX)
    Blend: AUG-CC-PVTZ-RI
    Molecular point group: c1

    Geometry (in Angstrom), charge = 0, multiplicity = 1:

       Center              X                  Y                   Z               Mass
    ------------   -----------------  -----------------  -----------------  -----------------
         C           -0.514018891375    -0.828251040398     0.213755685917    12.000000000000
         C           -2.826446891375    -0.227954040398    -0.272073314083    12.000000000000
         C           -1.444150891375    -0.333760040398    -0.917845314083    12.000000000000
         C           -1.217107891375    -0.371085040398     1.530598685917    12.000000000000
         C           -2.485340891375     0.377136959602     1.091742685917    12.000000000000
         C            0.904841108625    -0.342046040398     0.066220685917    12.000000000000
         C           -3.841063891375     0.565842959602    -1.082274314083    12.000000000000
         C            1.207109108625     1.024644959602     0.173206685917    12.000000000000
         C            1.950968108625    -1.233913040398    -0.199271314083    12.000000000000
         C            2.515467108625     1.483319959602     0.022952685917    12.000000000000
         C            3.263263108625    -0.780018040398    -0.352518314083    12.000000000000
         C            3.549519108625     0.581265959602    -0.242471314083    12.000000000000
         H           -0.495597891375    -1.925537040398     0.188979685917     1.007825032230
         H           -3.212883891375    -1.245622040398    -0.110531314083     1.007825032230
         H           -1.128759891375     0.664464959602    -1.250609314083     1.007825032230
         H           -1.416501891375    -0.991216040398    -1.794442314083     1.007825032230
         H           -0.557621891375     0.244849959602     2.149379685917     1.007825032230
         H           -1.483706891375    -1.248789040398     2.129586685917     1.007825032230
         H           -3.303811891375     0.299156959602     1.816270685917     1.007825032230
         H           -2.272275891375     1.446645959602     0.956112685917     1.007825032230
         H           -3.469690591375     1.594933959602    -1.141082414083     1.007825032230
         H           -4.022037891375     0.102122959602    -2.057279314083     1.007825032230
         H           -4.800329891375     0.635550959602    -0.559147314083     1.007825032230
         H            0.409818108625     1.737775959602     0.379686685917     1.007825032230
         H            1.735167108625    -2.298135040398    -0.283351314083     1.007825032230
         H            2.729618108625     2.546165959602     0.111769685917     1.007825032230
         H            4.061224108625    -1.490443040398    -0.556938314083     1.007825032230
         H            4.569976108625     0.937969959602    -0.359699314083     1.007825032230

  Basis Set: AUG-CC-PVTZ
    Blend: AUG-CC-PVTZ
  Basis Set: (AUG-CC-PVTZ AUX)
    Blend: AUG-CC-PVTZ-JKFIT
	 Reference Energy          =    -463.8929964227453979 [Eh]
	 Singles Energy            =      -0.0000000000000000 [Eh]
	 Same-Spin Energy          =      -0.5196465545671707 [Eh]
	 Opposite-Spin Energy      =      -1.7266465580488761 [Eh]
	 Correlation Energy        =      -2.2462931126160468 [Eh]
	 Total Energy              =    -466.1392895353614563 [Eh]

	 ================> DF-SCS-MP2 Energies <==================
	-----------------------------------------------------------
	 SCS Same-Spin Scale       =       0.3333333333333333 [-]
	 SCS Opposite-Spin Scale   =       1.2000000000000000 [-]
	 SCS Same-Spin Energy      =      -0.1732155181890569 [Eh]
	 SCS Opposite-Spin Energy  =      -2.0719758696586514 [Eh]
	 SCS Correlation Energy    =      -2.2451913878477083 [Eh]
	 SCS Total Energy          =    -466.1381878105930809 [Eh]
	-----------------------------------------------------------

  Dipole Moment: [D]
     X:    -0.5777      Y:    -0.2140      Z:     0.0640     Total:     0.6194

*** Psi4 exiting successfully. Buy a developer a beer!
