                               Psi4 1.4a3.dev225

  ==> Input File <==

--------------------------------------------------------------------------
#psi4
#
memory 32 gb

molecule  {
0 1
  C       -0.4284307    -0.8755344     0.1860375
  C       -2.7550300    -0.2335230    -0.2686280
  C       -1.3727340    -0.3393290    -0.9144000
  C       -1.1456910    -0.3766540     1.5340440
  C       -2.4139240     0.3715680     1.0951880
  C        0.9762580    -0.3476150     0.0696660
  C       -3.7696470     0.5602740    -1.0788290
  C        1.2785260     1.0190760     0.1766520
  C        2.0223850    -1.2394820    -0.1958260
  C        2.5868840     1.4777510     0.0263980
  C        3.3346800    -0.7855870    -0.3490730
  C        3.6209360     0.5756970    -0.2390260
  H       -0.4241810    -1.9311060     0.1924250
  H       -3.1414670    -1.2511910    -0.1070860
  H       -1.0573430     0.6588960    -1.2471640
  H       -1.3450850    -0.9967850    -1.7909970
  H       -0.4862050     0.2392810     2.1528250
  H       -1.4122900    -1.2543580     2.1330320
  H       -3.2323950     0.2935880     1.8197160
  H       -2.2008590     1.4410770     0.9595580
  H       -3.4037750     1.5784440    -1.2516650
  H       -3.9506210     0.0965540    -2.0538340
  H       -4.7289130     0.6299820    -0.5557020
  H        0.4812350     1.7322070     0.3831320
  H        1.8065840    -2.3037040    -0.2799060
  H        2.8010350     2.5405970     0.1152150
  H        4.1326410    -1.4960120    -0.5534930
  H        4.6413930     0.9324010    -0.3562540
units angstrom
no_reorient  #important for SAPT in psi4, default
symmetry c1  #important for SAPT in psi4, default
}

set PROPERTIES_ORIGIN ["COM"]
properties('MP2/aug-cc-pvtz', properties = ['dipole'])
--------------------------------------------------------------------------

    Molecular point group: c1
  Charge       = 0
  Multiplicity = 1
  Basis Set: AUG-CC-PVTZ
    Blend: AUG-CC-PVTZ
  Basis Set: (AUG-CC-PVTZ AUX)
    Blend: AUG-CC-PVTZ-JKFIT

    Orbital Energies [Eh]
    ---------------------

    Doubly Occupied:

       1A    -11.236664     2A    -11.233815     3A    -11.232512
       4A    -11.228890     5A    -11.228602     6A    -11.227276
       7A    -11.227070     8A    -11.221331     9A    -11.217940
      10A    -11.214986    11A    -11.214669    12A    -11.211647
      13A     -1.155022    14A     -1.122655    15A     -1.039607
      16A     -1.008353    17A     -0.985891    18A     -0.954915
      19A     -0.891285    20A     -0.827312    21A     -0.815073
      22A     -0.763337    23A     -0.760543    24A     -0.690755
      25A     -0.658633    26A     -0.634441    27A     -0.622741
      28A     -0.605411    29A     -0.586174    30A     -0.580190
      31A     -0.576017    32A     -0.556769    33A     -0.528301
      34A     -0.511485    35A     -0.508501    36A     -0.490288
      37A     -0.474130    38A     -0.463260    39A     -0.460925
      40A     -0.454623    41A     -0.449150    42A     -0.444062
      43A     -0.332285    44A     -0.317535

  @DF-RHF Final Energy:  -463.89197047491223

   => Energetics <=

    Nuclear Repulsion Energy =            675.4655119233655114
    One-Electron Energy =               -1966.7848286865219052
    Two-Electron Energy =                 827.4273462882441663
    Total Energy =                       -463.8919704749122275
  Basis Set: (AUG-CC-PVTZ AUX)
    Blend: AUG-CC-PVTZ-RI
    Molecular point group: c1

    Geometry (in Angstrom), charge = 0, multiplicity = 1:

       Center              X                  Y                   Z               Mass
    ------------   -----------------  -----------------  -----------------  -----------------
         C           -0.500874982764    -0.866770570037     0.185645310412    12.000000000000
         C           -2.827474282764    -0.224759170037    -0.269020189588    12.000000000000
         C           -1.445178282764    -0.330565170037    -0.914792189588    12.000000000000
         C           -1.218135282764    -0.367890170037     1.533651810412    12.000000000000
         C           -2.486368282764     0.380331829963     1.094795810412    12.000000000000
         C            0.903813717236    -0.338851170037     0.069273810412    12.000000000000
         C           -3.842091282764     0.569037829963    -1.079221189588    12.000000000000
         C            1.206081717236     1.027839829963     0.176259810412    12.000000000000
         C            1.949940717236    -1.230718170037    -0.196218189588    12.000000000000
         C            2.514439717236     1.486514829963     0.026005810412    12.000000000000
         C            3.262235717236    -0.776823170037    -0.349465189588    12.000000000000
         C            3.548491717236     0.584460829963    -0.239418189588    12.000000000000
         H           -0.496625282764    -1.922342170037     0.192032810412     1.007825032230
         H           -3.213911282764    -1.242427170037    -0.107478189588     1.007825032230
         H           -1.129787282764     0.667659829963    -1.247556189588     1.007825032230
         H           -1.417529282764    -0.988021170037    -1.791389189588     1.007825032230
         H           -0.558649282764     0.248044829963     2.152432810412     1.007825032230
         H           -1.484734282764    -1.245594170037     2.132639810412     1.007825032230
         H           -3.304839282764     0.302351829963     1.819323810412     1.007825032230
         H           -2.273303282764     1.449840829963     0.959165810412     1.007825032230
         H           -3.476219282764     1.587207829963    -1.252057189588     1.007825032230
         H           -4.023065282764     0.105317829963    -2.054226189588     1.007825032230
         H           -4.801357282764     0.638745829963    -0.556094189588     1.007825032230
         H            0.408790717236     1.740970829963     0.382739810412     1.007825032230
         H            1.734139717236    -2.294940170037    -0.280298189588     1.007825032230
         H            2.728590717236     2.549360829963     0.114822810412     1.007825032230
         H            4.060196717236    -1.487248170037    -0.553885189588     1.007825032230
         H            4.568948717236     0.941164829963    -0.356646189588     1.007825032230

  Basis Set: AUG-CC-PVTZ
    Blend: AUG-CC-PVTZ
  Basis Set: (AUG-CC-PVTZ AUX)
    Blend: AUG-CC-PVTZ-JKFIT
	 Reference Energy          =    -463.8919704749122275 [Eh]
	 Singles Energy            =      -0.0000000000000000 [Eh]
	 Same-Spin Energy          =      -0.5193698661533829 [Eh]
	 Opposite-Spin Energy      =      -1.7263087655266354 [Eh]
	 Correlation Energy        =      -2.2456786316800184 [Eh]
	 Total Energy              =    -466.1376491065922210 [Eh]

	 ================> DF-SCS-MP2 Energies <==================
	-----------------------------------------------------------
	 SCS Same-Spin Scale       =       0.3333333333333333 [-]
	 SCS Opposite-Spin Scale   =       1.2000000000000000 [-]
	 SCS Same-Spin Energy      =      -0.1731232887177943 [Eh]
	 SCS Opposite-Spin Energy  =      -2.0715705186319622 [Eh]
	 SCS Correlation Energy    =      -2.2446938073497567 [Eh]
	 SCS Total Energy          =    -466.1366642822619610 [Eh]
	-----------------------------------------------------------

  Dipole Moment: [D]
     X:    -0.5833      Y:    -0.2287      Z:     0.0242     Total:     0.6270

*** Psi4 exiting successfully. Buy a developer a beer!
