                               Psi4 1.4a3.dev225

  ==> Input File <==

--------------------------------------------------------------------------
#psi4
#
memory 32 gb

molecule  {
0 1
  C       -0.4426020    -0.8338200     0.2172010
  C       -2.7550300    -0.2335230    -0.2686280
  C       -1.3727340    -0.3393290    -0.9144000
  C       -1.1456910    -0.3766540     1.5340440
  C       -2.4139240     0.3715680     1.0951880
  C        0.9762580    -0.3476150     0.0696660
  C       -3.7696470     0.5602740    -1.0788290
  C        1.2785260     1.0190760     0.1766520
  C        2.0223850    -1.2394820    -0.1958260
  C        2.5868840     1.4777510     0.0263980
  C        3.3346800    -0.7855870    -0.3490730
  C        3.6209360     0.5756970    -0.2390260
  H       -0.4241810    -1.9311060     0.1924250
  H       -3.1414670    -1.2511910    -0.1070860
  H       -1.0573430     0.6588960    -1.2471640
  H       -1.3450850    -0.9967850    -1.7909970
  H       -0.4862050     0.2392810     2.1528250
  H       -1.4122900    -1.2543580     2.1330320
  H       -3.2323950     0.2935880     1.8197160
  H       -2.2008590     1.4410770     0.9595580
  H       -3.4037750     1.5784440    -1.2516650
  H       -3.9506210     0.0965540    -2.0538340
  H       -4.7289130     0.6299820    -0.5557020
  H        0.4812350     1.7322070     0.3831320
  H        1.8065840    -2.3037040    -0.2799060
  H        2.7970978     2.5210565     0.1135821
  H        4.1326410    -1.4960120    -0.5534930
  H        4.6413930     0.9324010    -0.3562540
units angstrom
no_reorient  #important for SAPT in psi4, default
symmetry c1  #important for SAPT in psi4, default
}

set PROPERTIES_ORIGIN ["COM"]
properties('MP2/aug-cc-pvtz', properties = ['dipole'])
--------------------------------------------------------------------------

    Molecular point group: c1
  Charge       = 0
  Multiplicity = 1
  Basis Set: AUG-CC-PVTZ
    Blend: AUG-CC-PVTZ
  Basis Set: (AUG-CC-PVTZ AUX)
    Blend: AUG-CC-PVTZ-JKFIT

    Orbital Energies [Eh]
    ---------------------

    Doubly Occupied:

       1A    -11.236355     2A    -11.232718     3A    -11.231302
       4A    -11.228699     5A    -11.228299     6A    -11.228176
       7A    -11.228016     8A    -11.221136     9A    -11.216649
      10A    -11.214855    11A    -11.214692    12A    -11.211564
      13A     -1.155958    14A     -1.124808    15A     -1.039519
      16A     -1.008930    17A     -0.988410    18A     -0.953737
      19A     -0.892607    20A     -0.826747    21A     -0.817018
      22A     -0.763590    23A     -0.757490    24A     -0.690373
      25A     -0.660404    26A     -0.636431    27A     -0.621786
      28A     -0.607141    29A     -0.586319    30A     -0.580480
      31A     -0.573764    32A     -0.556076    33A     -0.528513
      34A     -0.510825    35A     -0.509950    36A     -0.490756
      37A     -0.475262    38A     -0.463327    39A     -0.461200
      40A     -0.453752    41A     -0.450292    42A     -0.443815
      43A     -0.332242    44A     -0.318682

  @DF-RHF Final Energy:  -463.89454040858692

   => Energetics <=

    Nuclear Repulsion Energy =            676.0447263183147015
    One-Electron Energy =               -1967.9332036275620794
    Two-Electron Energy =                 827.9939369006604011
    Total Energy =                       -463.8945404085868631
  Basis Set: (AUG-CC-PVTZ AUX)
    Blend: AUG-CC-PVTZ-RI
    Molecular point group: c1

    Geometry (in Angstrom), charge = 0, multiplicity = 1:

       Center              X                  Y                   Z               Mass
    ------------   -----------------  -----------------  -----------------  -----------------
         C           -0.513959485631    -0.828059316284     0.214483652839    12.000000000000
         C           -2.826387485631    -0.227762316284    -0.271345347161    12.000000000000
         C           -1.444091485631    -0.333568316284    -0.917117347161    12.000000000000
         C           -1.217048485631    -0.370893316284     1.531326652839    12.000000000000
         C           -2.485281485631     0.377328683716     1.092470652839    12.000000000000
         C            0.904900514369    -0.341854316284     0.066948652839    12.000000000000
         C           -3.841004485631     0.566034683716    -1.081546347161    12.000000000000
         C            1.207168514369     1.024836683716     0.173934652839    12.000000000000
         C            1.951027514369    -1.233721316284    -0.198543347161    12.000000000000
         C            2.515526514369     1.483511683716     0.023680652839    12.000000000000
         C            3.263322514369    -0.779826316284    -0.351790347161    12.000000000000
         C            3.549578514369     0.581457683716    -0.241743347161    12.000000000000
         H           -0.495538485631    -1.925345316284     0.189707652839     1.007825032230
         H           -3.212824485631    -1.245430316284    -0.109803347161     1.007825032230
         H           -1.128700485631     0.664656683716    -1.249881347161     1.007825032230
         H           -1.416442485631    -0.991024316284    -1.793714347161     1.007825032230
         H           -0.557562485631     0.245041683716     2.150107652839     1.007825032230
         H           -1.483647485631    -1.248597316284     2.130314652839     1.007825032230
         H           -3.303752485631     0.299348683716     1.816998652839     1.007825032230
         H           -2.272216485631     1.446837683716     0.956840652839     1.007825032230
         H           -3.475132485631     1.584204683716    -1.254382347161     1.007825032230
         H           -4.021978485631     0.102314683716    -2.056551347161     1.007825032230
         H           -4.800270485631     0.635742683716    -0.558419347161     1.007825032230
         H            0.409877514369     1.737967683716     0.380414652839     1.007825032230
         H            1.735226514369    -2.297943316284    -0.282623347161     1.007825032230
         H            2.725740314369     2.526817183716     0.110864752839     1.007825032230
         H            4.061283514369    -1.490251316284    -0.556210347161     1.007825032230
         H            4.570035514369     0.938161683716    -0.358971347161     1.007825032230

  Basis Set: AUG-CC-PVTZ
    Blend: AUG-CC-PVTZ
  Basis Set: (AUG-CC-PVTZ AUX)
    Blend: AUG-CC-PVTZ-JKFIT
	 Reference Energy          =    -463.8945404085869200 [Eh]
	 Singles Energy            =      -0.0000000000000000 [Eh]
	 Same-Spin Energy          =      -0.5194744863292190 [Eh]
	 Opposite-Spin Energy      =      -1.7262904583999645 [Eh]
	 Correlation Energy        =      -2.2457649447291836 [Eh]
	 Total Energy              =    -466.1403053533160801 [Eh]

	 ================> DF-SCS-MP2 Energies <==================
	-----------------------------------------------------------
	 SCS Same-Spin Scale       =       0.3333333333333333 [-]
	 SCS Opposite-Spin Scale   =       1.2000000000000000 [-]
	 SCS Same-Spin Energy      =      -0.1731581621097397 [Eh]
	 SCS Opposite-Spin Energy  =      -2.0715485500799575 [Eh]
	 SCS Correlation Energy    =      -2.2447067121896973 [Eh]
	 SCS Total Energy          =    -466.1392471207766448 [Eh]
	-----------------------------------------------------------

  Dipole Moment: [D]
     X:    -0.5659      Y:    -0.1944      Z:     0.0379     Total:     0.5995

*** Psi4 exiting successfully. Buy a developer a beer!
