                               Psi4 1.4a3.dev225

  ==> Input File <==

--------------------------------------------------------------------------
#psi4
#
memory 32 gb

molecule  {
0 1
  C       -0.4426020    -0.8338200     0.2172010
  C       -2.7550300    -0.2335230    -0.2686280
  C       -1.3727340    -0.3393290    -0.9144000
  C       -1.1456910    -0.3766540     1.5340440
  C       -2.4139240     0.3715680     1.0951880
  C        0.9762580    -0.3476150     0.0696660
  C       -3.7696470     0.5602740    -1.0788290
  C        1.2785260     1.0190760     0.1766520
  C        2.0223850    -1.2394820    -0.1958260
  C        2.5868840     1.4777510     0.0263980
  C        3.3346800    -0.7855870    -0.3490730
  C        3.6209360     0.5756970    -0.2390260
  H       -0.4241810    -1.9311060     0.1924250
  H       -3.1414670    -1.2511910    -0.1070860
  H       -1.0573430     0.6588960    -1.2471640
  H       -1.3450850    -0.9967850    -1.7909970
  H       -0.4862050     0.2392810     2.1528250
  H       -1.4122900    -1.2543580     2.1330320
  H       -3.2311412     0.4081921     1.8243870
  H       -2.2008590     1.4410770     0.9595580
  H       -3.4037750     1.5784440    -1.2516650
  H       -3.9506210     0.0965540    -2.0538340
  H       -4.7289130     0.6299820    -0.5557020
  H        0.4812350     1.7322070     0.3831320
  H        1.8065840    -2.3037040    -0.2799060
  H        2.8010350     2.5405970     0.1152150
  H        4.1326410    -1.4960120    -0.5534930
  H        4.6413930     0.9324010    -0.3562540
units angstrom
no_reorient  #important for SAPT in psi4, default
symmetry c1  #important for SAPT in psi4, default
}

set PROPERTIES_ORIGIN ["COM"]
properties('MP2/aug-cc-pvtz', properties = ['dipole'])
--------------------------------------------------------------------------

    Molecular point group: c1
  Charge       = 0
  Multiplicity = 1
  Basis Set: AUG-CC-PVTZ
    Blend: AUG-CC-PVTZ
  Basis Set: (AUG-CC-PVTZ AUX)
    Blend: AUG-CC-PVTZ-JKFIT

    Orbital Energies [Eh]
    ---------------------

    Doubly Occupied:

       1A    -11.236606     2A    -11.233598     3A    -11.232900
       4A    -11.229011     5A    -11.228894     6A    -11.228429
       7A    -11.228239     8A    -11.221865     9A    -11.217420
      10A    -11.215128    11A    -11.214801    12A    -11.211568
      13A     -1.156067    14A     -1.124725    15A     -1.039536
      16A     -1.008487    17A     -0.988375    18A     -0.953834
      19A     -0.892803    20A     -0.826520    21A     -0.816639
      22A     -0.765757    23A     -0.757544    24A     -0.689931
      25A     -0.659458    26A     -0.635544    27A     -0.620874
      28A     -0.607276    29A     -0.585771    30A     -0.579353
      31A     -0.573698    32A     -0.554435    33A     -0.529055
      34A     -0.510408    35A     -0.508885    36A     -0.489947
      37A     -0.478340    38A     -0.463680    39A     -0.460898
      40A     -0.453754    41A     -0.448882    42A     -0.444079
      43A     -0.332383    44A     -0.318949

  @DF-RHF Final Energy:  -463.89308502897785

   => Energetics <=

    Nuclear Repulsion Energy =            675.8727203167927655
    One-Electron Energy =               -1967.5829194169755283
    Two-Electron Energy =                 827.8171140712048555
    Total Energy =                       -463.8930850289779073
  Basis Set: (AUG-CC-PVTZ AUX)
    Blend: AUG-CC-PVTZ-RI
    Molecular point group: c1

    Geometry (in Angstrom), charge = 0, multiplicity = 1:

       Center              X                  Y                   Z               Mass
    ------------   -----------------  -----------------  -----------------  -----------------
         C           -0.513992157689    -0.828903619900     0.214443976210    12.000000000000
         C           -2.826420157689    -0.228606619900    -0.271385023790    12.000000000000
         C           -1.444124157689    -0.334412619900    -0.917157023790    12.000000000000
         C           -1.217081157689    -0.371737619900     1.531286976210    12.000000000000
         C           -2.485314157689     0.376484380100     1.092430976210    12.000000000000
         C            0.904867842311    -0.342698619900     0.066908976210    12.000000000000
         C           -3.841037157689     0.565190380100    -1.081586023790    12.000000000000
         C            1.207135842311     1.023992380100     0.173894976210    12.000000000000
         C            1.950994842311    -1.234565619900    -0.198583023790    12.000000000000
         C            2.515493842311     1.482667380100     0.023640976210    12.000000000000
         C            3.263289842311    -0.780670619900    -0.351830023790    12.000000000000
         C            3.549545842311     0.580613380100    -0.241783023790    12.000000000000
         H           -0.495571157689    -1.926189619900     0.189667976210     1.007825032230
         H           -3.212857157689    -1.246274619900    -0.109843023790     1.007825032230
         H           -1.128733157689     0.663812380100    -1.249921023790     1.007825032230
         H           -1.416475157689    -0.991868619900    -1.793754023790     1.007825032230
         H           -0.557595157689     0.244197380100     2.150067976210     1.007825032230
         H           -1.483680157689    -1.249441619900     2.130274976210     1.007825032230
         H           -3.302531357689     0.413108480100     1.821629976210     1.007825032230
         H           -2.272249157689     1.445993380100     0.956800976210     1.007825032230
         H           -3.475165157689     1.583360380100    -1.254422023790     1.007825032230
         H           -4.022011157689     0.101470380100    -2.056591023790     1.007825032230
         H           -4.800303157689     0.634898380100    -0.558459023790     1.007825032230
         H            0.409844842311     1.737123380100     0.380374976210     1.007825032230
         H            1.735193842311    -2.298787619900    -0.282663023790     1.007825032230
         H            2.729644842311     2.545513380100     0.112457976210     1.007825032230
         H            4.061250842311    -1.491095619900    -0.556250023790     1.007825032230
         H            4.570002842311     0.937317380100    -0.359011023790     1.007825032230

  Basis Set: AUG-CC-PVTZ
    Blend: AUG-CC-PVTZ
  Basis Set: (AUG-CC-PVTZ AUX)
    Blend: AUG-CC-PVTZ-JKFIT
	 Reference Energy          =    -463.8930850289778505 [Eh]
	 Singles Energy            =      -0.0000000000000000 [Eh]
	 Same-Spin Energy          =      -0.5195439423913236 [Eh]
	 Opposite-Spin Energy      =      -1.7263843467439144 [Eh]
	 Correlation Energy        =      -2.2459282891352381 [Eh]
	 Total Energy              =    -466.1390133181130864 [Eh]

	 ================> DF-SCS-MP2 Energies <==================
	-----------------------------------------------------------
	 SCS Same-Spin Scale       =       0.3333333333333333 [-]
	 SCS Opposite-Spin Scale   =       1.2000000000000000 [-]
	 SCS Same-Spin Energy      =      -0.1731813141304412 [Eh]
	 SCS Opposite-Spin Energy  =      -2.0716612160926973 [Eh]
	 SCS Correlation Energy    =      -2.2448425302231385 [Eh]
	 SCS Total Energy          =    -466.1379275592009890 [Eh]
	-----------------------------------------------------------

  Dipole Moment: [D]
     X:    -0.5607      Y:    -0.1690      Z:     0.0373     Total:     0.5868

*** Psi4 exiting successfully. Buy a developer a beer!
