                               Psi4 1.4a3.dev225

  ==> Input File <==

--------------------------------------------------------------------------
#psi4
#
memory 32 gb

molecule  {
0 1
  C       -0.4426020    -0.8338200     0.2172010
  C       -2.7739186    -0.3732184    -0.1925152
  C       -1.3727340    -0.3393290    -0.9144000
  C       -1.1456910    -0.3766540     1.5340440
  C       -2.4139240     0.3715680     1.0951880
  C        0.9762580    -0.3476150     0.0696660
  C       -3.7696470     0.5602740    -1.0788290
  C        1.2785260     1.0190760     0.1766520
  C        2.0223850    -1.2394820    -0.1958260
  C        2.5868840     1.4777510     0.0263980
  C        3.3346800    -0.7855870    -0.3490730
  C        3.6209360     0.5756970    -0.2390260
  H       -0.4241810    -1.9311060     0.1924250
  H       -3.1414670    -1.2511910    -0.1070860
  H       -1.0573430     0.6588960    -1.2471640
  H       -1.3450850    -0.9967850    -1.7909970
  H       -0.4862050     0.2392810     2.1528250
  H       -1.4122900    -1.2543580     2.1330320
  H       -3.2323950     0.2935880     1.8197160
  H       -2.2008590     1.4410770     0.9595580
  H       -3.4037750     1.5784440    -1.2516650
  H       -3.9506210     0.0965540    -2.0538340
  H       -4.7289130     0.6299820    -0.5557020
  H        0.4812350     1.7322070     0.3831320
  H        1.8065840    -2.3037040    -0.2799060
  H        2.8010350     2.5405970     0.1152150
  H        4.1326410    -1.4960120    -0.5534930
  H        4.6413930     0.9324010    -0.3562540
units angstrom
no_reorient  #important for SAPT in psi4, default
symmetry c1  #important for SAPT in psi4, default
}

set PROPERTIES_ORIGIN ["COM"]
properties('MP2/aug-cc-pvtz', properties = ['dipole'])
--------------------------------------------------------------------------

    Molecular point group: c1
  Charge       = 0
  Multiplicity = 1
  Basis Set: AUG-CC-PVTZ
    Blend: AUG-CC-PVTZ
  Basis Set: (AUG-CC-PVTZ AUX)
    Blend: AUG-CC-PVTZ-JKFIT

    Orbital Energies [Eh]
    ---------------------

    Doubly Occupied:

       1A    -11.235668     2A    -11.233320     3A    -11.232496
       4A    -11.228366     5A    -11.227956     6A    -11.227417
       7A    -11.226488     8A    -11.218135     9A    -11.217010
      10A    -11.216312    11A    -11.215209    12A    -11.213210
      13A     -1.155033    14A     -1.122291    15A     -1.035214
      16A     -1.007977    17A     -0.979106    18A     -0.951600
      19A     -0.886656    20A     -0.826399    21A     -0.815213
      22A     -0.793210    23A     -0.754123    24A     -0.689287
      25A     -0.658920    26A     -0.636937    27A     -0.617513
      28A     -0.605836    29A     -0.584033    30A     -0.579961
      31A     -0.573001    32A     -0.549352    33A     -0.528266
      34A     -0.514959    35A     -0.509118    36A     -0.494126
      37A     -0.488121    38A     -0.472702    39A     -0.460321
      40A     -0.453083    41A     -0.434953    42A     -0.425089
      43A     -0.332034    44A     -0.317441

  @DF-RHF Final Energy:  -463.86387503054539

   => Energetics <=

    Nuclear Repulsion Energy =            675.0760667902733303
    One-Electron Energy =               -1965.9929515719486517
    Two-Electron Energy =                 827.0530097511300482
    Total Energy =                       -463.8638750305453868
  Basis Set: (AUG-CC-PVTZ AUX)
    Blend: AUG-CC-PVTZ-RI
    Molecular point group: c1

    Geometry (in Angstrom), charge = 0, multiplicity = 1:

       Center              X                  Y                   Z               Mass
    ------------   -----------------  -----------------  -----------------  -----------------
         C           -0.512568728958    -0.817713340825     0.208769378793    12.000000000000
         C           -2.843885328958    -0.357111740825    -0.200946821207    12.000000000000
         C           -1.442700728958    -0.323222340825    -0.922831621207    12.000000000000
         C           -1.215657728958    -0.360547340825     1.525612378793    12.000000000000
         C           -2.483890728958     0.387674659175     1.086756378793    12.000000000000
         C            0.906291271042    -0.331508340825     0.061234378793    12.000000000000
         C           -3.839613728958     0.576380659175    -1.087260621207    12.000000000000
         C            1.208559271042     1.035182659175     0.168220378793    12.000000000000
         C            1.952418271042    -1.223375340825    -0.204257621207    12.000000000000
         C            2.516917271042     1.493857659175     0.017966378793    12.000000000000
         C            3.264713271042    -0.769480340825    -0.357504621207    12.000000000000
         C            3.550969271042     0.591803659175    -0.247457621207    12.000000000000
         H           -0.494147728958    -1.914999340825     0.183993378793     1.007825032230
         H           -3.211433728958    -1.235084340825    -0.115517621207     1.007825032230
         H           -1.127309728958     0.675002659175    -1.255595621207     1.007825032230
         H           -1.415051728958    -0.980678340825    -1.799428621207     1.007825032230
         H           -0.556171728958     0.255387659175     2.144393378793     1.007825032230
         H           -1.482256728958    -1.238251340825     2.124600378793     1.007825032230
         H           -3.302361728958     0.309694659175     1.811284378793     1.007825032230
         H           -2.270825728958     1.457183659175     0.951126378793     1.007825032230
         H           -3.473741728958     1.594550659175    -1.260096621207     1.007825032230
         H           -4.020587728958     0.112660659175    -2.062265621207     1.007825032230
         H           -4.798879728958     0.646088659175    -0.564133621207     1.007825032230
         H            0.411268271042     1.748313659175     0.374700378793     1.007825032230
         H            1.736617271042    -2.287597340825    -0.288337621207     1.007825032230
         H            2.731068271042     2.556703659175     0.106783378793     1.007825032230
         H            4.062674271042    -1.479905340825    -0.561924621207     1.007825032230
         H            4.571426271042     0.948507659175    -0.364685621207     1.007825032230

  Basis Set: AUG-CC-PVTZ
    Blend: AUG-CC-PVTZ
  Basis Set: (AUG-CC-PVTZ AUX)
    Blend: AUG-CC-PVTZ-JKFIT
	 Reference Energy          =    -463.8638750305453868 [Eh]
	 Singles Energy            =      -0.0000000000000000 [Eh]
	 Same-Spin Energy          =      -0.5194329980185530 [Eh]
	 Opposite-Spin Energy      =      -1.7274132724517175 [Eh]
	 Correlation Energy        =      -2.2468462704702707 [Eh]
	 Total Energy              =    -466.1107213010156443 [Eh]

	 ================> DF-SCS-MP2 Energies <==================
	-----------------------------------------------------------
	 SCS Same-Spin Scale       =       0.3333333333333333 [-]
	 SCS Opposite-Spin Scale   =       1.2000000000000000 [-]
	 SCS Same-Spin Energy      =      -0.1731443326728510 [Eh]
	 SCS Opposite-Spin Energy  =      -2.0728959269420608 [Eh]
	 SCS Correlation Energy    =      -2.2460402596149116 [Eh]
	 SCS Total Energy          =    -466.1099152901603020 [Eh]
	-----------------------------------------------------------

  Dipole Moment: [D]
     X:    -0.5883      Y:    -0.2602      Z:     0.0783     Total:     0.6481

*** Psi4 exiting successfully. Buy a developer a beer!
