                               Psi4 1.4a3.dev225

  ==> Input File <==

--------------------------------------------------------------------------
#psi4
#
memory 32 gb

molecule  {
0 1
  C       -0.4426020    -0.8338200     0.2172010
  C       -2.7550300    -0.2335230    -0.2686280
  C       -1.3727340    -0.3393290    -0.9144000
  C       -1.1456910    -0.3766540     1.5340440
  C       -2.4139240     0.3715680     1.0951880
  C        0.9762580    -0.3476150     0.0696660
  C       -3.7696470     0.5602740    -1.0788290
  C        1.2785260     1.0190760     0.1766520
  C        2.0223850    -1.2394820    -0.1958260
  C        2.5868840     1.4777510     0.0263980
  C        3.3614276    -0.8782475    -0.3634508
  C        3.6209360     0.5756970    -0.2390260
  H       -0.4241810    -1.9311060     0.1924250
  H       -3.1414670    -1.2511910    -0.1070860
  H       -1.0573430     0.6588960    -1.2471640
  H       -1.3450850    -0.9967850    -1.7909970
  H       -0.4862050     0.2392810     2.1528250
  H       -1.4122900    -1.2543580     2.1330320
  H       -3.2323950     0.2935880     1.8197160
  H       -2.2008590     1.4410770     0.9595580
  H       -3.4037750     1.5784440    -1.2516650
  H       -3.9506210     0.0965540    -2.0538340
  H       -4.7289130     0.6299820    -0.5557020
  H        0.4812350     1.7322070     0.3831320
  H        1.8065840    -2.3037040    -0.2799060
  H        2.8010350     2.5405970     0.1152150
  H        4.1326410    -1.4960120    -0.5534930
  H        4.6413930     0.9324010    -0.3562540
units angstrom
no_reorient  #important for SAPT in psi4, default
symmetry c1  #important for SAPT in psi4, default
}

set PROPERTIES_ORIGIN ["COM"]
properties('MP2/aug-cc-pvtz', properties = ['dipole'])
--------------------------------------------------------------------------

    Molecular point group: c1
  Charge       = 0
  Multiplicity = 1
  Basis Set: AUG-CC-PVTZ
    Blend: AUG-CC-PVTZ
  Basis Set: (AUG-CC-PVTZ AUX)
    Blend: AUG-CC-PVTZ-JKFIT

    Orbital Energies [Eh]
    ---------------------

    Doubly Occupied:

       1A    -11.238478     2A    -11.236937     3A    -11.235571
       4A    -11.233282     5A    -11.230464     6A    -11.230076
       7A    -11.228753     8A    -11.221146     9A    -11.216667
      10A    -11.214895    11A    -11.214683    12A    -11.211591
      13A     -1.152639    14A     -1.121429    15A     -1.035183
      16A     -1.011339    17A     -0.986351    18A     -0.951992
      19A     -0.891954    20A     -0.833088    21A     -0.811195
      22A     -0.763575    23A     -0.762240    24A     -0.686653
      25A     -0.660579    26A     -0.644975    27A     -0.620631
      28A     -0.610753    29A     -0.587749    30A     -0.583211
      31A     -0.570398    32A     -0.554205    33A     -0.527040
      34A     -0.515279    35A     -0.507015    36A     -0.483706
      37A     -0.473550    38A     -0.463625    39A     -0.460327
      40A     -0.453162    41A     -0.450068    42A     -0.444321
      43A     -0.335136    44A     -0.311532

  @DF-RHF Final Energy:  -463.88074181932177

   => Energetics <=

    Nuclear Repulsion Energy =            674.4839257585925907
    One-Electron Energy =               -1964.7744513251525404
    Two-Electron Energy =                 826.4097837472382935
    Total Energy =                       -463.8807418193217700
  Basis Set: (AUG-CC-PVTZ AUX)
    Blend: AUG-CC-PVTZ-RI
    Molecular point group: c1

    Geometry (in Angstrom), charge = 0, multiplicity = 1:

       Center              X                  Y                   Z               Mass
    ------------   -----------------  -----------------  -----------------  -----------------
         C           -0.515988767766    -0.821238200111     0.215550867256    12.000000000000
         C           -2.828416767766    -0.220941200111    -0.270278132744    12.000000000000
         C           -1.446120767766    -0.326747200111    -0.916050132744    12.000000000000
         C           -1.219077767766    -0.364072200111     1.532393867256    12.000000000000
         C           -2.487310767766     0.384149799889     1.093537867256    12.000000000000
         C            0.902871232234    -0.335033200111     0.068015867256    12.000000000000
         C           -3.843033767766     0.572855799889    -1.080479132744    12.000000000000
         C            1.205139232234     1.031657799889     0.175001867256    12.000000000000
         C            1.948998232234    -1.226900200111    -0.197476132744    12.000000000000
         C            2.513497232234     1.490332799889     0.024747867256    12.000000000000
         C            3.288040832234    -0.865665700111    -0.365100932744    12.000000000000
         C            3.547549232234     0.588278799889    -0.240676132744    12.000000000000
         H           -0.497567767766    -1.918524200111     0.190774867256     1.007825032230
         H           -3.214853767766    -1.238609200111    -0.108736132744     1.007825032230
         H           -1.130729767766     0.671477799889    -1.248814132744     1.007825032230
         H           -1.418471767766    -0.984203200111    -1.792647132744     1.007825032230
         H           -0.559591767766     0.251862799889     2.151174867256     1.007825032230
         H           -1.485676767766    -1.241776200111     2.131381867256     1.007825032230
         H           -3.305781767766     0.306169799889     1.818065867256     1.007825032230
         H           -2.274245767766     1.453658799889     0.957907867256     1.007825032230
         H           -3.477161767766     1.591025799889    -1.253315132744     1.007825032230
         H           -4.024007767766     0.109135799889    -2.055484132744     1.007825032230
         H           -4.802299767766     0.642563799889    -0.557352132744     1.007825032230
         H            0.407848232234     1.744788799889     0.381481867256     1.007825032230
         H            1.733197232234    -2.291122200111    -0.281556132744     1.007825032230
         H            2.727648232234     2.553178799889     0.113564867256     1.007825032230
         H            4.059254232234    -1.483430200111    -0.555143132744     1.007825032230
         H            4.568006232234     0.944982799889    -0.357904132744     1.007825032230

  Basis Set: AUG-CC-PVTZ
    Blend: AUG-CC-PVTZ
  Basis Set: (AUG-CC-PVTZ AUX)
    Blend: AUG-CC-PVTZ-JKFIT
	 Reference Energy          =    -463.8807418193217700 [Eh]
	 Singles Energy            =      -0.0000000000000000 [Eh]
	 Same-Spin Energy          =      -0.5197144582277502 [Eh]
	 Opposite-Spin Energy      =      -1.7278006618011141 [Eh]
	 Correlation Energy        =      -2.2475151200288641 [Eh]
	 Total Energy              =    -466.1282569393506492 [Eh]

	 ================> DF-SCS-MP2 Energies <==================
	-----------------------------------------------------------
	 SCS Same-Spin Scale       =       0.3333333333333333 [-]
	 SCS Opposite-Spin Scale   =       1.2000000000000000 [-]
	 SCS Same-Spin Energy      =      -0.1732381527425834 [Eh]
	 SCS Opposite-Spin Energy  =      -2.0733607941613368 [Eh]
	 SCS Correlation Energy    =      -2.2465989469039203 [Eh]
	 SCS Total Energy          =    -466.1273407662257000 [Eh]
	-----------------------------------------------------------

  Dipole Moment: [D]
     X:    -0.5665      Y:    -0.2079      Z:     0.0353     Total:     0.6045

*** Psi4 exiting successfully. Buy a developer a beer!
