                               Psi4 1.4a3.dev225

  ==> Input File <==

--------------------------------------------------------------------------
#psi4
#
memory 32 gb

molecule  {
0 1
  C       -0.4426020    -0.8338200     0.2172010
  C       -2.7550300    -0.2335230    -0.2686280
  C       -1.3727340    -0.3393290    -0.9144000
  C       -1.1456910    -0.3766540     1.5340440
  C       -2.4139240     0.3715680     1.0951880
  C        0.9762580    -0.3476150     0.0696660
  C       -3.7696470     0.5602740    -1.0788290
  C        1.2785260     1.0190760     0.1766520
  C        2.0223850    -1.2394820    -0.1958260
  C        2.5868840     1.4777510     0.0263980
  C        3.3346800    -0.7855870    -0.3490730
  C        3.6209360     0.5756970    -0.2390260
  H       -0.4241810    -1.9311060     0.1924250
  H       -3.1414670    -1.2511910    -0.1070860
  H       -1.0573430     0.6588960    -1.2471640
  H       -1.3450850    -0.9967850    -1.7909970
  H       -0.4862050     0.2392810     2.1528250
  H       -1.4122900    -1.2543580     2.1330320
  H       -3.2323950     0.2935880     1.8197160
  H       -2.2008590     1.4410770     0.9595580
  H       -3.4037750     1.5784440    -1.2516650
  H       -3.9506210     0.0965540    -2.0538340
  H       -4.7289130     0.6299820    -0.5557020
  H        0.4812350     1.7322070     0.3831320
  H        1.8065840    -2.3037040    -0.2799060
  H        2.8108780     2.5894483     0.1192973
  H        4.1326410    -1.4960120    -0.5534930
  H        4.6413930     0.9324010    -0.3562540
units angstrom
no_reorient  #important for SAPT in psi4, default
symmetry c1  #important for SAPT in psi4, default
}

set PROPERTIES_ORIGIN ["COM"]
properties('MP2/aug-cc-pvtz', properties = ['dipole'])
--------------------------------------------------------------------------

    Molecular point group: c1
  Charge       = 0
  Multiplicity = 1
  Basis Set: AUG-CC-PVTZ
    Blend: AUG-CC-PVTZ
  Basis Set: (AUG-CC-PVTZ AUX)
    Blend: AUG-CC-PVTZ-JKFIT

    Orbital Energies [Eh]
    ---------------------

    Doubly Occupied:

       1A    -11.239317     2A    -11.236859     3A    -11.233234
       4A    -11.229468     5A    -11.228957     6A    -11.228575
       7A    -11.228339     8A    -11.221252     9A    -11.216805
      10A    -11.214966    11A    -11.214849    12A    -11.211643
      13A     -1.156137    14A     -1.124859    15A     -1.039455
      16A     -1.007405    17A     -0.988573    18A     -0.953895
      19A     -0.892779    20A     -0.825845    21A     -0.814186
      22A     -0.763613    23A     -0.756556    24A     -0.688851
      25A     -0.660495    26A     -0.632548    27A     -0.622094
      28A     -0.604937    29A     -0.585799    30A     -0.578651
      31A     -0.572267    32A     -0.556243    33A     -0.528648
      34A     -0.511150    35A     -0.510273    36A     -0.487963
      37A     -0.475259    38A     -0.463529    39A     -0.461467
      40A     -0.453683    41A     -0.450252    42A     -0.443967
      43A     -0.332637    44A     -0.319104

  @DF-RHF Final Energy:  -463.89196094203686

   => Energetics <=

    Nuclear Repulsion Energy =            675.6870320353432362
    One-Electron Energy =               -1967.2232147239237747
    Two-Electron Energy =                 827.6442217465437352
    Total Energy =                       -463.8919609420368033
  Basis Set: (AUG-CC-PVTZ AUX)
    Blend: AUG-CC-PVTZ-RI
    Molecular point group: c1

    Geometry (in Angstrom), charge = 0, multiplicity = 1:

       Center              X                  Y                   Z               Mass
    ------------   -----------------  -----------------  -----------------  -----------------
         C           -0.514046217954    -0.828489773000     0.214447681477    12.000000000000
         C           -2.826474217954    -0.228192773000    -0.271381318523    12.000000000000
         C           -1.444178217954    -0.333998773000    -0.917153318523    12.000000000000
         C           -1.217135217954    -0.371323773000     1.531290681477    12.000000000000
         C           -2.485368217954     0.376898227000     1.092434681477    12.000000000000
         C            0.904813782046    -0.342284773000     0.066912681477    12.000000000000
         C           -3.841091217954     0.565604227000    -1.081582318523    12.000000000000
         C            1.207081782046     1.024406227000     0.173898681477    12.000000000000
         C            1.950940782046    -1.234151773000    -0.198579318523    12.000000000000
         C            2.515439782046     1.483081227000     0.023644681477    12.000000000000
         C            3.263235782046    -0.780256773000    -0.351826318523    12.000000000000
         C            3.549491782046     0.581027227000    -0.241779318523    12.000000000000
         H           -0.495625217954    -1.925775773000     0.189671681477     1.007825032230
         H           -3.212911217954    -1.245860773000    -0.109839318523     1.007825032230
         H           -1.128787217954     0.664226227000    -1.249917318523     1.007825032230
         H           -1.416529217954    -0.991454773000    -1.793750318523     1.007825032230
         H           -0.557649217954     0.244611227000     2.150071681477     1.007825032230
         H           -1.483734217954    -1.249027773000     2.130278681477     1.007825032230
         H           -3.303839217954     0.298918227000     1.816962681477     1.007825032230
         H           -2.272303217954     1.446407227000     0.956804681477     1.007825032230
         H           -3.475219217954     1.583774227000    -1.254418318523     1.007825032230
         H           -4.022065217954     0.101884227000    -2.056587318523     1.007825032230
         H           -4.800357217954     0.635312227000    -0.558455318523     1.007825032230
         H            0.409790782046     1.737537227000     0.380378681477     1.007825032230
         H            1.735139782046    -2.298373773000    -0.282659318523     1.007825032230
         H            2.739433782046     2.594778527000     0.116543981477     1.007825032230
         H            4.061196782046    -1.490681773000    -0.556246318523     1.007825032230
         H            4.569948782046     0.937731227000    -0.359007318523     1.007825032230

  Basis Set: AUG-CC-PVTZ
    Blend: AUG-CC-PVTZ
  Basis Set: (AUG-CC-PVTZ AUX)
    Blend: AUG-CC-PVTZ-JKFIT
	 Reference Energy          =    -463.8919609420368602 [Eh]
	 Singles Energy            =      -0.0000000000000000 [Eh]
	 Same-Spin Energy          =      -0.5196053520730465 [Eh]
	 Opposite-Spin Energy      =      -1.7268766051041236 [Eh]
	 Correlation Energy        =      -2.2464819571771701 [Eh]
	 Total Energy              =    -466.1384428992140556 [Eh]

	 ================> DF-SCS-MP2 Energies <==================
	-----------------------------------------------------------
	 SCS Same-Spin Scale       =       0.3333333333333333 [-]
	 SCS Opposite-Spin Scale   =       1.2000000000000000 [-]
	 SCS Same-Spin Energy      =      -0.1732017840243488 [Eh]
	 SCS Opposite-Spin Energy  =      -2.0722519261249484 [Eh]
	 SCS Correlation Energy    =      -2.2454537101492971 [Eh]
	 SCS Total Energy          =    -466.1374146521861803 [Eh]
	-----------------------------------------------------------

  Dipole Moment: [D]
     X:    -0.5787      Y:    -0.2263      Z:     0.0356     Total:     0.6224

*** Psi4 exiting successfully. Buy a developer a beer!
