                               Psi4 1.4a3.dev225

  ==> Input File <==

--------------------------------------------------------------------------
#psi4
#
memory 32 gb

molecule  {
0 1
  C       -0.4504005    -0.8090612     0.2214500
  C       -2.7550300    -0.2335230    -0.2686280
  C       -1.3727340    -0.3393290    -0.9144000
  C       -1.1456910    -0.3766540     1.5340440
  C       -2.4139240     0.3715680     1.0951880
  C        0.9762580    -0.3476150     0.0696660
  C       -3.7696470     0.5602740    -1.0788290
  C        1.2785260     1.0190760     0.1766520
  C        2.0223850    -1.2394820    -0.1958260
  C        2.5868840     1.4777510     0.0263980
  C        3.3346800    -0.7855870    -0.3490730
  C        3.6209360     0.5756970    -0.2390260
  H       -0.4241810    -1.9311060     0.1924250
  H       -3.1414670    -1.2511910    -0.1070860
  H       -1.0573430     0.6588960    -1.2471640
  H       -1.3450850    -0.9967850    -1.7909970
  H       -0.4862050     0.2392810     2.1528250
  H       -1.4122900    -1.2543580     2.1330320
  H       -3.2323950     0.2935880     1.8197160
  H       -2.2008590     1.4410770     0.9595580
  H       -3.4037750     1.5784440    -1.2516650
  H       -3.9506210     0.0965540    -2.0538340
  H       -4.7289130     0.6299820    -0.5557020
  H        0.4812350     1.7322070     0.3831320
  H        1.8065840    -2.3037040    -0.2799060
  H        2.8010350     2.5405970     0.1152150
  H        4.1326410    -1.4960120    -0.5534930
  H        4.6413930     0.9324010    -0.3562540
units angstrom
no_reorient  #important for SAPT in psi4, default
symmetry c1  #important for SAPT in psi4, default
}

set PROPERTIES_ORIGIN ["COM"]
properties('MP2/aug-cc-pvtz', properties = ['dipole'])
--------------------------------------------------------------------------

    Molecular point group: c1
  Charge       = 0
  Multiplicity = 1
  Basis Set: AUG-CC-PVTZ
    Blend: AUG-CC-PVTZ
  Basis Set: (AUG-CC-PVTZ AUX)
    Blend: AUG-CC-PVTZ-JKFIT

    Orbital Energies [Eh]
    ---------------------

    Doubly Occupied:

       1A    -11.236470     2A    -11.233500     3A    -11.233045
       4A    -11.229313     5A    -11.229140     6A    -11.228629
       7A    -11.228222     8A    -11.221200     9A    -11.216326
      10A    -11.214927    11A    -11.214365    12A    -11.211598
      13A     -1.156764    14A     -1.126094    15A     -1.039522
      16A     -1.008520    17A     -0.989392    18A     -0.954375
      19A     -0.892903    20A     -0.825866    21A     -0.816804
      22A     -0.764042    23A     -0.755455    24A     -0.689620
      25A     -0.661285    26A     -0.635796    27A     -0.621659
      28A     -0.606943    29A     -0.586088    30A     -0.580084
      31A     -0.572344    32A     -0.556044    33A     -0.528595
      34A     -0.510944    35A     -0.510790    36A     -0.489860
      37A     -0.476909    38A     -0.464934    39A     -0.463206
      40A     -0.453486    41A     -0.445091    42A     -0.443572
      43A     -0.332411    44A     -0.319488

  @DF-RHF Final Energy:  -463.89331705835110

   => Energetics <=

    Nuclear Repulsion Energy =            676.2283982641372404
    One-Electron Energy =               -1968.2921907139284485
    Two-Electron Energy =                 828.1704753914400499
    Total Energy =                       -463.8933170583511583
  Basis Set: (AUG-CC-PVTZ AUX)
    Blend: AUG-CC-PVTZ-RI
    Molecular point group: c1

    Geometry (in Angstrom), charge = 0, multiplicity = 1:

       Center              X                  Y                   Z               Mass
    ------------   -----------------  -----------------  -----------------  -----------------
         C           -0.521198336114    -0.805278961925     0.218403949566    12.000000000000
         C           -2.825827836114    -0.229740761925    -0.271674050434    12.000000000000
         C           -1.443531836114    -0.335546761925    -0.917446050434    12.000000000000
         C           -1.216488836114    -0.372871761925     1.530997949566    12.000000000000
         C           -2.484721836114     0.375350238075     1.092141949566    12.000000000000
         C            0.905460163886    -0.343832761925     0.066619949566    12.000000000000
         C           -3.840444836114     0.564056238075    -1.081875050434    12.000000000000
         C            1.207728163886     1.022858238075     0.173605949566    12.000000000000
         C            1.951587163886    -1.235699761925    -0.198872050434    12.000000000000
         C            2.516086163886     1.481533238075     0.023351949566    12.000000000000
         C            3.263882163886    -0.781804761925    -0.352119050434    12.000000000000
         C            3.550138163886     0.579479238075    -0.242072050434    12.000000000000
         H           -0.494978836114    -1.927323761925     0.189378949566     1.007825032230
         H           -3.212264836114    -1.247408761925    -0.110132050434     1.007825032230
         H           -1.128140836114     0.662678238075    -1.250210050434     1.007825032230
         H           -1.415882836114    -0.993002761925    -1.794043050434     1.007825032230
         H           -0.557002836114     0.243063238075     2.149778949566     1.007825032230
         H           -1.483087836114    -1.250575761925     2.129985949566     1.007825032230
         H           -3.303192836114     0.297370238075     1.816669949566     1.007825032230
         H           -2.271656836114     1.444859238075     0.956511949566     1.007825032230
         H           -3.474572836114     1.582226238075    -1.254711050434     1.007825032230
         H           -4.021418836114     0.100336238075    -2.056880050434     1.007825032230
         H           -4.799710836114     0.633764238075    -0.558748050434     1.007825032230
         H            0.410437163886     1.735989238075     0.380085949566     1.007825032230
         H            1.735786163886    -2.299921761925    -0.282952050434     1.007825032230
         H            2.730237163886     2.544379238075     0.112168949566     1.007825032230
         H            4.061843163886    -1.492229761925    -0.556539050434     1.007825032230
         H            4.570595163886     0.936183238075    -0.359300050434     1.007825032230

  Basis Set: AUG-CC-PVTZ
    Blend: AUG-CC-PVTZ
  Basis Set: (AUG-CC-PVTZ AUX)
    Blend: AUG-CC-PVTZ-JKFIT
	 Reference Energy          =    -463.8933170583511014 [Eh]
	 Singles Energy            =      -0.0000000000000000 [Eh]
	 Same-Spin Energy          =      -0.5196762032074609 [Eh]
	 Opposite-Spin Energy      =      -1.7266809106831991 [Eh]
	 Correlation Energy        =      -2.2463571138906602 [Eh]
	 Total Energy              =    -466.1396741722417687 [Eh]

	 ================> DF-SCS-MP2 Energies <==================
	-----------------------------------------------------------
	 SCS Same-Spin Scale       =       0.3333333333333333 [-]
	 SCS Opposite-Spin Scale   =       1.2000000000000000 [-]
	 SCS Same-Spin Energy      =      -0.1732254010691536 [Eh]
	 SCS Opposite-Spin Energy  =      -2.0720170928198387 [Eh]
	 SCS Correlation Energy    =      -2.2452424938889921 [Eh]
	 SCS Total Energy          =    -466.1385595522401104 [Eh]
	-----------------------------------------------------------

  Dipole Moment: [D]
     X:    -0.5594      Y:    -0.1836      Z:     0.0397     Total:     0.5902

*** Psi4 exiting successfully. Buy a developer a beer!
