                               Psi4 1.4a3.dev225

  ==> Input File <==

--------------------------------------------------------------------------
#psi4
#
memory 32 gb

molecule  {
0 1
  C       -0.4426020    -0.8338200     0.2172010
  C       -2.7550300    -0.2335230    -0.2686280
  C       -1.3727340    -0.3393290    -0.9144000
  C       -1.1456910    -0.3766540     1.5340440
  C       -2.4139240     0.3715680     1.0951880
  C        0.9762580    -0.3476150     0.0696660
  C       -3.7829811     0.5707061    -1.0894767
  C        1.2785260     1.0190760     0.1766520
  C        2.0223850    -1.2394820    -0.1958260
  C        2.5868840     1.4777510     0.0263980
  C        3.3346800    -0.7855870    -0.3490730
  C        3.6209360     0.5756970    -0.2390260
  H       -0.4241810    -1.9311060     0.1924250
  H       -3.1414670    -1.2511910    -0.1070860
  H       -1.0573430     0.6588960    -1.2471640
  H       -1.3450850    -0.9967850    -1.7909970
  H       -0.4862050     0.2392810     2.1528250
  H       -1.4122900    -1.2543580     2.1330320
  H       -3.2323950     0.2935880     1.8197160
  H       -2.2008590     1.4410770     0.9595580
  H       -3.4037750     1.5784440    -1.2516650
  H       -3.9506210     0.0965540    -2.0538340
  H       -4.7289130     0.6299820    -0.5557020
  H        0.4812350     1.7322070     0.3831320
  H        1.8065840    -2.3037040    -0.2799060
  H        2.8010350     2.5405970     0.1152150
  H        4.1326410    -1.4960120    -0.5534930
  H        4.6413930     0.9324010    -0.3562540
units angstrom
no_reorient  #important for SAPT in psi4, default
symmetry c1  #important for SAPT in psi4, default
}

set PROPERTIES_ORIGIN ["COM"]
properties('MP2/aug-cc-pvtz', properties = ['dipole'])
--------------------------------------------------------------------------

    Molecular point group: c1
  Charge       = 0
  Multiplicity = 1
  Basis Set: AUG-CC-PVTZ
    Blend: AUG-CC-PVTZ
  Basis Set: (AUG-CC-PVTZ AUX)
    Blend: AUG-CC-PVTZ-JKFIT

    Orbital Energies [Eh]
    ---------------------

    Doubly Occupied:

       1A    -11.236469     2A    -11.233564     3A    -11.232824
       4A    -11.228904     5A    -11.228402     6A    -11.228332
       7A    -11.228087     8A    -11.222021     9A    -11.216661
      10A    -11.214820    11A    -11.214667    12A    -11.210694
      13A     -1.155828    14A     -1.124055    15A     -1.038431
      16A     -1.008405    17A     -0.987381    18A     -0.953610
      19A     -0.893687    20A     -0.826344    21A     -0.816146
      22A     -0.763170    23A     -0.757060    24A     -0.689761
      25A     -0.660184    26A     -0.634879    27A     -0.621373
      28A     -0.605726    29A     -0.586140    30A     -0.580117
      31A     -0.573799    32A     -0.557660    33A     -0.529726
      34A     -0.511880    35A     -0.509739    36A     -0.489866
      37A     -0.474851    38A     -0.461730    39A     -0.459421
      40A     -0.454153    41A     -0.450326    42A     -0.445133
      43A     -0.332322    44A     -0.318750

  @DF-RHF Final Energy:  -463.89423839524176

   => Energetics <=

    Nuclear Repulsion Energy =            675.5916272150124087
    One-Electron Energy =               -1967.0375357818777502
    Two-Electron Energy =                 827.5516701716237549
    Total Energy =                       -463.8942383952417003
  Basis Set: (AUG-CC-PVTZ AUX)
    Blend: AUG-CC-PVTZ-RI
    Molecular point group: c1

    Geometry (in Angstrom), charge = 0, multiplicity = 1:

       Center              X                  Y                   Z               Mass
    ------------   -----------------  -----------------  -----------------  -----------------
         C           -0.512984990731    -0.828964099570     0.215271328496    12.000000000000
         C           -2.825412990731    -0.228667099570    -0.270557671504    12.000000000000
         C           -1.443116990731    -0.334473099570    -0.916329671504    12.000000000000
         C           -1.216073990731    -0.371798099570     1.532114328496    12.000000000000
         C           -2.484306990731     0.376423900430     1.093258328496    12.000000000000
         C            0.905875009269    -0.342759099570     0.067736328496    12.000000000000
         C           -3.853364090731     0.575562000430    -1.091406371504    12.000000000000
         C            1.208143009269     1.023931900430     0.174722328496    12.000000000000
         C            1.952002009269    -1.234626099570    -0.197755671504    12.000000000000
         C            2.516501009269     1.482606900430     0.024468328496    12.000000000000
         C            3.264297009269    -0.780731099570    -0.351002671504    12.000000000000
         C            3.550553009269     0.580552900430    -0.240955671504    12.000000000000
         H           -0.494563990731    -1.926250099570     0.190495328496     1.007825032230
         H           -3.211849990731    -1.246335099570    -0.109015671504     1.007825032230
         H           -1.127725990731     0.663751900430    -1.249093671504     1.007825032230
         H           -1.415467990731    -0.991929099570    -1.792926671504     1.007825032230
         H           -0.556587990731     0.244136900430     2.150895328496     1.007825032230
         H           -1.482672990731    -1.249502099570     2.131102328496     1.007825032230
         H           -3.302777990731     0.298443900430     1.817786328496     1.007825032230
         H           -2.271241990731     1.445932900430     0.957628328496     1.007825032230
         H           -3.474157990731     1.583299900430    -1.253594671504     1.007825032230
         H           -4.021003990731     0.101409900430    -2.055763671504     1.007825032230
         H           -4.799295990731     0.634837900430    -0.557631671504     1.007825032230
         H            0.410852009269     1.737062900430     0.381202328496     1.007825032230
         H            1.736201009269    -2.298848099570    -0.281835671504     1.007825032230
         H            2.730652009269     2.545452900430     0.113285328496     1.007825032230
         H            4.062258009269    -1.491156099570    -0.555422671504     1.007825032230
         H            4.571010009269     0.937256900430    -0.358183671504     1.007825032230

  Basis Set: AUG-CC-PVTZ
    Blend: AUG-CC-PVTZ
  Basis Set: (AUG-CC-PVTZ AUX)
    Blend: AUG-CC-PVTZ-JKFIT
	 Reference Energy          =    -463.8942383952417572 [Eh]
	 Singles Energy            =      -0.0000000000000000 [Eh]
	 Same-Spin Energy          =      -0.5193968430158421 [Eh]
	 Opposite-Spin Energy      =      -1.7263567439145096 [Eh]
	 Correlation Energy        =      -2.2457535869303515 [Eh]
	 Total Energy              =    -466.1399919821720914 [Eh]

	 ================> DF-SCS-MP2 Energies <==================
	-----------------------------------------------------------
	 SCS Same-Spin Scale       =       0.3333333333333333 [-]
	 SCS Opposite-Spin Scale   =       1.2000000000000000 [-]
	 SCS Same-Spin Energy      =      -0.1731322810052807 [Eh]
	 SCS Opposite-Spin Energy  =      -2.0716280926974115 [Eh]
	 SCS Correlation Energy    =      -2.2447603737026922 [Eh]
	 SCS Total Energy          =    -466.1389987689444752 [Eh]
	-----------------------------------------------------------

  Dipole Moment: [D]
     X:    -0.5690      Y:    -0.2027      Z:     0.0379     Total:     0.6052

*** Psi4 exiting successfully. Buy a developer a beer!
