                               Psi4 1.4a3.dev225

  ==> Input File <==

--------------------------------------------------------------------------
#psi4
#
memory 32 gb

molecule  {
0 1
  C       -0.4426020    -0.8338200     0.2172010
  C       -2.8390768    -0.1677014    -0.2726263
  C       -1.3727340    -0.3393290    -0.9144000
  C       -1.1456910    -0.3766540     1.5340440
  C       -2.4139240     0.3715680     1.0951880
  C        0.9762580    -0.3476150     0.0696660
  C       -3.7696470     0.5602740    -1.0788290
  C        1.2785260     1.0190760     0.1766520
  C        2.0223850    -1.2394820    -0.1958260
  C        2.5868840     1.4777510     0.0263980
  C        3.3346800    -0.7855870    -0.3490730
  C        3.6209360     0.5756970    -0.2390260
  H       -0.4241810    -1.9311060     0.1924250
  H       -3.1414670    -1.2511910    -0.1070860
  H       -1.0573430     0.6588960    -1.2471640
  H       -1.3450850    -0.9967850    -1.7909970
  H       -0.4862050     0.2392810     2.1528250
  H       -1.4122900    -1.2543580     2.1330320
  H       -3.2323950     0.2935880     1.8197160
  H       -2.2008590     1.4410770     0.9595580
  H       -3.4037750     1.5784440    -1.2516650
  H       -3.9506210     0.0965540    -2.0538340
  H       -4.7289130     0.6299820    -0.5557020
  H        0.4812350     1.7322070     0.3831320
  H        1.8065840    -2.3037040    -0.2799060
  H        2.8010350     2.5405970     0.1152150
  H        4.1326410    -1.4960120    -0.5534930
  H        4.6413930     0.9324010    -0.3562540
units angstrom
no_reorient  #important for SAPT in psi4, default
symmetry c1  #important for SAPT in psi4, default
}

set PROPERTIES_ORIGIN ["COM"]
properties('MP2/aug-cc-pvtz', properties = ['dipole'])
--------------------------------------------------------------------------

    Molecular point group: c1
  Charge       = 0
  Multiplicity = 1
  Basis Set: AUG-CC-PVTZ
    Blend: AUG-CC-PVTZ
  Basis Set: (AUG-CC-PVTZ AUX)
    Blend: AUG-CC-PVTZ-JKFIT

    Orbital Energies [Eh]
    ---------------------

    Doubly Occupied:

       1A    -11.236758     2A    -11.233557     3A    -11.232850
       4A    -11.228987     5A    -11.228890     6A    -11.228455
       7A    -11.228224     8A    -11.224404     9A    -11.218432
      10A    -11.216850    11A    -11.216304    12A    -11.209551
      13A     -1.154740    14A     -1.121881    15A     -1.046602
      16A     -1.008554    17A     -0.996709    18A     -0.950417
      19A     -0.893211    20A     -0.826662    21A     -0.816496
      22A     -0.757743    23A     -0.755893    24A     -0.689963
      25A     -0.657850    26A     -0.634766    27A     -0.624093
      28A     -0.608003    29A     -0.590071    30A     -0.580985
      31A     -0.574624    32A     -0.560067    33A     -0.531600
      34A     -0.512925    35A     -0.510715    36A     -0.492699
      37A     -0.484551    38A     -0.468697    39A     -0.460839
      40A     -0.451346    41A     -0.442756    42A     -0.421743
      43A     -0.332332    44A     -0.318582

  @DF-RHF Final Energy:  -463.88190186276358

   => Energetics <=

    Nuclear Repulsion Energy =            675.1724850031630467
    One-Electron Energy =               -1966.1460245167916128
    Two-Electron Energy =                 827.0916376508649819
    Total Energy =                       -463.8819018627635842
  Basis Set: (AUG-CC-PVTZ AUX)
    Blend: AUG-CC-PVTZ-RI
    Molecular point group: c1

    Geometry (in Angstrom), charge = 0, multiplicity = 1:

       Center              X                  Y                   Z               Mass
    ------------   -----------------  -----------------  -----------------  -----------------
         C           -0.507685684955    -0.833115063927     0.214773013429    12.000000000000
         C           -2.904160484955    -0.166996463927    -0.275054286571    12.000000000000
         C           -1.437817684955    -0.338624063927    -0.916827986571    12.000000000000
         C           -1.210774684955    -0.375949063927     1.531616013429    12.000000000000
         C           -2.479007684955     0.372272936073     1.092760013429    12.000000000000
         C            0.911174315045    -0.346910063927     0.067238013429    12.000000000000
         C           -3.834730684955     0.560978936073    -1.081256986571    12.000000000000
         C            1.213442315045     1.019780936073     0.174224013429    12.000000000000
         C            1.957301315045    -1.238777063927    -0.198253986571    12.000000000000
         C            2.521800315045     1.478455936073     0.023970013429    12.000000000000
         C            3.269596315045    -0.784882063927    -0.351500986571    12.000000000000
         C            3.555852315045     0.576401936073    -0.241453986571    12.000000000000
         H           -0.489264684955    -1.930401063927     0.189997013429     1.007825032230
         H           -3.206550684955    -1.250486063927    -0.109513986571     1.007825032230
         H           -1.122426684955     0.659600936073    -1.249591986571     1.007825032230
         H           -1.410168684955    -0.996080063927    -1.793424986571     1.007825032230
         H           -0.551288684955     0.239985936073     2.150397013429     1.007825032230
         H           -1.477373684955    -1.253653063927     2.130604013429     1.007825032230
         H           -3.297478684955     0.294292936073     1.817288013429     1.007825032230
         H           -2.265942684955     1.441781936073     0.957130013429     1.007825032230
         H           -3.468858684955     1.579148936073    -1.254092986571     1.007825032230
         H           -4.015704684955     0.097258936073    -2.056261986571     1.007825032230
         H           -4.793996684955     0.630686936073    -0.558129986571     1.007825032230
         H            0.416151315045     1.732911936073     0.380704013429     1.007825032230
         H            1.741500315045    -2.302999063927    -0.282333986571     1.007825032230
         H            2.735951315045     2.541301936073     0.112787013429     1.007825032230
         H            4.067557315045    -1.495307063927    -0.555920986571     1.007825032230
         H            4.576309315045     0.933105936073    -0.358681986571     1.007825032230

  Basis Set: AUG-CC-PVTZ
    Blend: AUG-CC-PVTZ
  Basis Set: (AUG-CC-PVTZ AUX)
    Blend: AUG-CC-PVTZ-JKFIT
	 Reference Energy          =    -463.8819018627635842 [Eh]
	 Singles Energy            =      -0.0000000000000000 [Eh]
	 Same-Spin Energy          =      -0.5201600365400784 [Eh]
	 Opposite-Spin Energy      =      -1.7276242684316521 [Eh]
	 Correlation Energy        =      -2.2477843049717303 [Eh]
	 Total Energy              =    -466.1296861677353149 [Eh]

	 ================> DF-SCS-MP2 Energies <==================
	-----------------------------------------------------------
	 SCS Same-Spin Scale       =       0.3333333333333333 [-]
	 SCS Opposite-Spin Scale   =       1.2000000000000000 [-]
	 SCS Same-Spin Energy      =      -0.1733866788466928 [Eh]
	 SCS Opposite-Spin Energy  =      -2.0731491221179823 [Eh]
	 SCS Correlation Energy    =      -2.2465358009646752 [Eh]
	 SCS Total Energy          =    -466.1284376637282776 [Eh]
	-----------------------------------------------------------

  Dipole Moment: [D]
     X:    -0.5953      Y:    -0.1584      Z:     0.0074     Total:     0.6160

*** Psi4 exiting successfully. Buy a developer a beer!
