                               Psi4 1.4a3.dev225

  ==> Input File <==

--------------------------------------------------------------------------
#psi4
#
memory 32 gb

molecule  {
0 1
  C       -0.4426020    -0.8338200     0.2172010
  C       -2.7550300    -0.2335230    -0.2686280
  C       -1.3727340    -0.3393290    -0.9144000
  C       -1.1456910    -0.3766540     1.5340440
  C       -2.4139240     0.3715680     1.0951880
  C        0.9762580    -0.3476150     0.0696660
  C       -3.7696470     0.5602740    -1.0788290
  C        1.2785260     1.0190760     0.1766520
  C        2.0223850    -1.2394820    -0.1958260
  C        2.5868840     1.4777510     0.0263980
  C        3.3346800    -0.7855870    -0.3490730
  C        3.6209360     0.5756970    -0.2390260
  H       -0.4233419    -1.9810862     0.1912965
  H       -3.1414670    -1.2511910    -0.1070860
  H       -1.0573430     0.6588960    -1.2471640
  H       -1.3450850    -0.9967850    -1.7909970
  H       -0.4862050     0.2392810     2.1528250
  H       -1.4122900    -1.2543580     2.1330320
  H       -3.2323950     0.2935880     1.8197160
  H       -2.2008590     1.4410770     0.9595580
  H       -3.4037750     1.5784440    -1.2516650
  H       -3.9506210     0.0965540    -2.0538340
  H       -4.7289130     0.6299820    -0.5557020
  H        0.4812350     1.7322070     0.3831320
  H        1.8065840    -2.3037040    -0.2799060
  H        2.8010350     2.5405970     0.1152150
  H        4.1326410    -1.4960120    -0.5534930
  H        4.6413930     0.9324010    -0.3562540
units angstrom
no_reorient  #important for SAPT in psi4, default
symmetry c1  #important for SAPT in psi4, default
}

set PROPERTIES_ORIGIN ["COM"]
properties('MP2/aug-cc-pvtz', properties = ['dipole'])
--------------------------------------------------------------------------

    Molecular point group: c1
  Charge       = 0
  Multiplicity = 1
  Basis Set: AUG-CC-PVTZ
    Blend: AUG-CC-PVTZ
  Basis Set: (AUG-CC-PVTZ AUX)
    Blend: AUG-CC-PVTZ-JKFIT

    Orbital Energies [Eh]
    ---------------------

    Doubly Occupied:

       1A    -11.236973     2A    -11.234513     3A    -11.233754
       4A    -11.232867     5A    -11.229069     6A    -11.228768
       7A    -11.228130     8A    -11.221295     9A    -11.217106
      10A    -11.215200    11A    -11.215106    12A    -11.211708
      13A     -1.155831    14A     -1.124764    15A     -1.038965
      16A     -1.008538    17A     -0.988596    18A     -0.953296
      19A     -0.891954    20A     -0.826036    21A     -0.816401
      22A     -0.763655    23A     -0.754400    24A     -0.689025
      25A     -0.659609    26A     -0.635119    27A     -0.621640
      28A     -0.606389    29A     -0.585866    30A     -0.580067
      31A     -0.571710    32A     -0.556185    33A     -0.528503
      34A     -0.510808    35A     -0.510176    36A     -0.489939
      37A     -0.475553    38A     -0.463635    39A     -0.461557
      40A     -0.453506    41A     -0.446952    42A     -0.443805
      43A     -0.332434    44A     -0.319008

  @DF-RHF Final Energy:  -463.89210353025800

   => Energetics <=

    Nuclear Repulsion Energy =            675.6659978610875896
    One-Electron Energy =               -1967.1793761806759449
    Two-Electron Energy =                 827.6212747893303003
    Total Energy =                       -463.8921035302580549
  Basis Set: (AUG-CC-PVTZ AUX)
    Blend: AUG-CC-PVTZ-RI
    Molecular point group: c1

    Geometry (in Angstrom), charge = 0, multiplicity = 1:

       Center              X                  Y                   Z               Mass
    ------------   -----------------  -----------------  -----------------  -----------------
         C           -0.513989547575    -0.827867729379     0.214480478155    12.000000000000
         C           -2.826417547575    -0.227570729379    -0.271348521845    12.000000000000
         C           -1.444121547575    -0.333376729379    -0.917120521845    12.000000000000
         C           -1.217078547575    -0.370701729379     1.531323478155    12.000000000000
         C           -2.485311547575     0.377520270621     1.092467478155    12.000000000000
         C            0.904870452425    -0.341662729379     0.066945478155    12.000000000000
         C           -3.841034547575     0.566226270621    -1.081549521845    12.000000000000
         C            1.207138452425     1.025028270621     0.173931478155    12.000000000000
         C            1.950997452425    -1.233529729379    -0.198546521845    12.000000000000
         C            2.515496452425     1.483703270621     0.023677478155    12.000000000000
         C            3.263292452425    -0.779634729379    -0.351793521845    12.000000000000
         C            3.549548452425     0.581649270621    -0.241746521845    12.000000000000
         H           -0.494729447575    -1.975133929379     0.188575978155     1.007825032230
         H           -3.212854547575    -1.245238729379    -0.109806521845     1.007825032230
         H           -1.128730547575     0.664848270621    -1.249884521845     1.007825032230
         H           -1.416472547575    -0.990832729379    -1.793717521845     1.007825032230
         H           -0.557592547575     0.245233270621     2.150104478155     1.007825032230
         H           -1.483677547575    -1.248405729379     2.130311478155     1.007825032230
         H           -3.303782547575     0.299540270621     1.816995478155     1.007825032230
         H           -2.272246547575     1.447029270621     0.956837478155     1.007825032230
         H           -3.475162547575     1.584396270621    -1.254385521845     1.007825032230
         H           -4.022008547575     0.102506270621    -2.056554521845     1.007825032230
         H           -4.800300547575     0.635934270621    -0.558422521845     1.007825032230
         H            0.409847452425     1.738159270621     0.380411478155     1.007825032230
         H            1.735196452425    -2.297751729379    -0.282626521845     1.007825032230
         H            2.729647452425     2.546549270621     0.112494478155     1.007825032230
         H            4.061253452425    -1.490059729379    -0.556213521845     1.007825032230
         H            4.570005452425     0.938353270621    -0.358974521845     1.007825032230

  Basis Set: AUG-CC-PVTZ
    Blend: AUG-CC-PVTZ
  Basis Set: (AUG-CC-PVTZ AUX)
    Blend: AUG-CC-PVTZ-JKFIT
	 Reference Energy          =    -463.8921035302579980 [Eh]
	 Singles Energy            =      -0.0000000000000000 [Eh]
	 Same-Spin Energy          =      -0.5195940092514153 [Eh]
	 Opposite-Spin Energy      =      -1.7269004059980038 [Eh]
	 Correlation Energy        =      -2.2464944152494191 [Eh]
	 Total Energy              =    -466.1385979455073993 [Eh]

	 ================> DF-SCS-MP2 Energies <==================
	-----------------------------------------------------------
	 SCS Same-Spin Scale       =       0.3333333333333333 [-]
	 SCS Opposite-Spin Scale   =       1.2000000000000000 [-]
	 SCS Same-Spin Energy      =      -0.1731980030838051 [Eh]
	 SCS Opposite-Spin Energy  =      -2.0722804871976046 [Eh]
	 SCS Correlation Energy    =      -2.2454784902814096 [Eh]
	 SCS Total Energy          =    -466.1375820205394120 [Eh]
	-----------------------------------------------------------

  Dipole Moment: [D]
     X:    -0.5680      Y:    -0.1685      Z:     0.0379     Total:     0.5937

*** Psi4 exiting successfully. Buy a developer a beer!
