                               Psi4 1.4a3.dev225

  ==> Input File <==

--------------------------------------------------------------------------
#psi4
#
memory 32 gb

molecule  {
0 1
  C       -0.4426020    -0.8338200     0.2172010
  C       -2.7680513    -0.3274860    -0.2194982
  C       -1.3727340    -0.3393290    -0.9144000
  C       -1.1456910    -0.3766540     1.5340440
  C       -2.4139240     0.3715680     1.0951880
  C        0.9762580    -0.3476150     0.0696660
  C       -3.7696470     0.5602740    -1.0788290
  C        1.2785260     1.0190760     0.1766520
  C        2.0223850    -1.2394820    -0.1958260
  C        2.5868840     1.4777510     0.0263980
  C        3.3346800    -0.7855870    -0.3490730
  C        3.6209360     0.5756970    -0.2390260
  H       -0.4241810    -1.9311060     0.1924250
  H       -3.1414670    -1.2511910    -0.1070860
  H       -1.0573430     0.6588960    -1.2471640
  H       -1.3450850    -0.9967850    -1.7909970
  H       -0.4862050     0.2392810     2.1528250
  H       -1.4122900    -1.2543580     2.1330320
  H       -3.2323950     0.2935880     1.8197160
  H       -2.2008590     1.4410770     0.9595580
  H       -3.4037750     1.5784440    -1.2516650
  H       -3.9506210     0.0965540    -2.0538340
  H       -4.7289130     0.6299820    -0.5557020
  H        0.4812350     1.7322070     0.3831320
  H        1.8065840    -2.3037040    -0.2799060
  H        2.8010350     2.5405970     0.1152150
  H        4.1326410    -1.4960120    -0.5534930
  H        4.6413930     0.9324010    -0.3562540
units angstrom
no_reorient  #important for SAPT in psi4, default
symmetry c1  #important for SAPT in psi4, default
}

set PROPERTIES_ORIGIN ["COM"]
properties('MP2/aug-cc-pvtz', properties = ['dipole'])
--------------------------------------------------------------------------

    Molecular point group: c1
  Charge       = 0
  Multiplicity = 1
  Basis Set: AUG-CC-PVTZ
    Blend: AUG-CC-PVTZ
  Basis Set: (AUG-CC-PVTZ AUX)
    Blend: AUG-CC-PVTZ-JKFIT

    Orbital Energies [Eh]
    ---------------------

    Doubly Occupied:

       1A    -11.235914     2A    -11.233375     3A    -11.232580
       4A    -11.228519     5A    -11.228070     6A    -11.227616
       7A    -11.227005     8A    -11.218416     9A    -11.215879
      10A    -11.215803    11A    -11.215162    12A    -11.212545
      13A     -1.155277    14A     -1.122922    15A     -1.036238
      16A     -1.008091    17A     -0.981989    18A     -0.952149
      19A     -0.888447    20A     -0.826194    21A     -0.815455
      22A     -0.782375    23A     -0.755036    24A     -0.689292
      25A     -0.659276    26A     -0.636029    27A     -0.618758
      28A     -0.605562    29A     -0.584826    30A     -0.579809
      31A     -0.573096    32A     -0.551537    33A     -0.528417
      34A     -0.512304    35A     -0.509030    36A     -0.490832
      37A     -0.482465    38A     -0.473075    39A     -0.460657
      40A     -0.452422    41A     -0.441609    42A     -0.434203
      43A     -0.332105    44A     -0.317903

  @DF-RHF Final Energy:  -463.88167268327953

   => Energetics <=

    Nuclear Repulsion Energy =            675.3674858553345075
    One-Electron Energy =               -1966.6017884961097479
    Two-Electron Energy =                 827.3526299574957648
    Total Energy =                       -463.8816726832794757
  Basis Set: (AUG-CC-PVTZ AUX)
    Blend: AUG-CC-PVTZ-RI
    Molecular point group: c1

    Geometry (in Angstrom), charge = 0, multiplicity = 1:

       Center              X                  Y                   Z               Mass
    ------------   -----------------  -----------------  -----------------  -----------------
         C           -0.513008432388    -0.821140588992     0.210791521460    12.000000000000
         C           -2.838457732388    -0.314806588992    -0.225907678540    12.000000000000
         C           -1.443140432388    -0.326649588992    -0.920809478540    12.000000000000
         C           -1.216097432388    -0.363974588992     1.527634521460    12.000000000000
         C           -2.484330432388     0.384247411008     1.088778521460    12.000000000000
         C            0.905851567612    -0.334935588992     0.063256521460    12.000000000000
         C           -3.840053432388     0.572953411008    -1.085238478540    12.000000000000
         C            1.208119567612     1.031755411008     0.170242521460    12.000000000000
         C            1.951978567612    -1.226802588992    -0.202235478540    12.000000000000
         C            2.516477567612     1.490430411008     0.019988521460    12.000000000000
         C            3.264273567612    -0.772907588992    -0.355482478540    12.000000000000
         C            3.550529567612     0.588376411008    -0.245435478540    12.000000000000
         H           -0.494587432388    -1.918426588992     0.186015521460     1.007825032230
         H           -3.211873432388    -1.238511588992    -0.113495478540     1.007825032230
         H           -1.127749432388     0.671575411008    -1.253573478540     1.007825032230
         H           -1.415491432388    -0.984105588992    -1.797406478540     1.007825032230
         H           -0.556611432388     0.251960411008     2.146415521460     1.007825032230
         H           -1.482696432388    -1.241678588992     2.126622521460     1.007825032230
         H           -3.302801432388     0.306267411008     1.813306521460     1.007825032230
         H           -2.271265432388     1.453756411008     0.953148521460     1.007825032230
         H           -3.474181432388     1.591123411008    -1.258074478540     1.007825032230
         H           -4.021027432388     0.109233411008    -2.060243478540     1.007825032230
         H           -4.799319432388     0.642661411008    -0.562111478540     1.007825032230
         H            0.410828567612     1.744886411008     0.376722521460     1.007825032230
         H            1.736177567612    -2.291024588992    -0.286315478540     1.007825032230
         H            2.730628567612     2.553276411008     0.108805521460     1.007825032230
         H            4.062234567612    -1.483332588992    -0.559902478540     1.007825032230
         H            4.570986567612     0.945080411008    -0.362663478540     1.007825032230

  Basis Set: AUG-CC-PVTZ
    Blend: AUG-CC-PVTZ
  Basis Set: (AUG-CC-PVTZ AUX)
    Blend: AUG-CC-PVTZ-JKFIT
	 Reference Energy          =    -463.8816726832795325 [Eh]
	 Singles Energy            =      -0.0000000000000000 [Eh]
	 Same-Spin Energy          =      -0.5193038187599767 [Eh]
	 Opposite-Spin Energy      =      -1.7266641978740840 [Eh]
	 Correlation Energy        =      -2.2459680166340608 [Eh]
	 Total Energy              =    -466.1276406999135702 [Eh]

	 ================> DF-SCS-MP2 Energies <==================
	-----------------------------------------------------------
	 SCS Same-Spin Scale       =       0.3333333333333333 [-]
	 SCS Opposite-Spin Scale   =       1.2000000000000000 [-]
	 SCS Same-Spin Energy      =      -0.1731012729199922 [Eh]
	 SCS Opposite-Spin Energy  =      -2.0719970374489005 [Eh]
	 SCS Correlation Energy    =      -2.2450983103688928 [Eh]
	 SCS Total Energy          =    -466.1267709936484493 [Eh]
	-----------------------------------------------------------

  Dipole Moment: [D]
     X:    -0.5876      Y:    -0.2487      Z:     0.0641     Total:     0.6412

*** Psi4 exiting successfully. Buy a developer a beer!
