                               Psi4 1.4a3.dev225

  ==> Input File <==

--------------------------------------------------------------------------
#psi4
#
memory 32 gb

molecule  {
0 1
  C       -0.4426020    -0.8338200     0.2172010
  C       -2.7550300    -0.2335230    -0.2686280
  C       -1.3727340    -0.3393290    -0.9144000
  C       -1.1456910    -0.3766540     1.5340440
  C       -2.4139240     0.3715680     1.0951880
  C        0.9762580    -0.3476150     0.0696660
  C       -3.7696470     0.5602740    -1.0788290
  C        1.2785260     1.0190760     0.1766520
  C        2.0223850    -1.2394820    -0.1958260
  C        2.5868840     1.4777510     0.0263980
  C        3.3346800    -0.7855870    -0.3490730
  C        3.6209360     0.5756970    -0.2390260
  H       -0.4241810    -1.9311060     0.1924250
  H       -3.1414670    -1.2511910    -0.1070860
  H       -1.0573430     0.6588960    -1.2471640
  H       -1.3450850    -0.9967850    -1.7909970
  H       -0.4862050     0.2392810     2.1528250
  H       -1.4122900    -1.2543580     2.1330320
  H       -3.2329748     0.3317564     1.8221593
  H       -2.2008590     1.4410770     0.9595580
  H       -3.4037750     1.5784440    -1.2516650
  H       -3.9506210     0.0965540    -2.0538340
  H       -4.7289130     0.6299820    -0.5557020
  H        0.4812350     1.7322070     0.3831320
  H        1.8065840    -2.3037040    -0.2799060
  H        2.8010350     2.5405970     0.1152150
  H        4.1326410    -1.4960120    -0.5534930
  H        4.6413930     0.9324010    -0.3562540
units angstrom
no_reorient  #important for SAPT in psi4, default
symmetry c1  #important for SAPT in psi4, default
}

set PROPERTIES_ORIGIN ["COM"]
properties('MP2/aug-cc-pvtz', properties = ['dipole'])
--------------------------------------------------------------------------

    Molecular point group: c1
  Charge       = 0
  Multiplicity = 1
  Basis Set: AUG-CC-PVTZ
    Blend: AUG-CC-PVTZ
  Basis Set: (AUG-CC-PVTZ AUX)
    Blend: AUG-CC-PVTZ-JKFIT

    Orbital Energies [Eh]
    ---------------------

    Doubly Occupied:

       1A    -11.236530     2A    -11.233588     3A    -11.232863
       4A    -11.228953     5A    -11.228553     6A    -11.228416
       7A    -11.228155     8A    -11.221390     9A    -11.216923
      10A    -11.214884    11A    -11.214843    12A    -11.211575
      13A     -1.156016    14A     -1.124773    15A     -1.039494
      16A     -1.008453    17A     -0.988418    18A     -0.953779
      19A     -0.892695    20A     -0.826411    21A     -0.816332
      22A     -0.764263    23A     -0.757334    24A     -0.689898
      25A     -0.660074    26A     -0.635302    27A     -0.621520
      28A     -0.606746    29A     -0.585994    30A     -0.579751
      31A     -0.573545    32A     -0.555563    33A     -0.528693
      34A     -0.510579    35A     -0.509875    36A     -0.489986
      37A     -0.476279    38A     -0.463381    39A     -0.461237
      40A     -0.453735    41A     -0.450033    42A     -0.443956
      43A     -0.332356    44A     -0.318849

  @DF-RHF Final Energy:  -463.89426622324339

   => Energetics <=

    Nuclear Repulsion Energy =            675.9148493211961295
    One-Electron Energy =               -1967.6742448053375938
    Two-Electron Energy =                 827.8651292608979020
    Total Energy =                       -463.8942662232434486
  Basis Set: (AUG-CC-PVTZ AUX)
    Blend: AUG-CC-PVTZ-RI
    Molecular point group: c1

    Geometry (in Angstrom), charge = 0, multiplicity = 1:

       Center              X                  Y                   Z               Mass
    ------------   -----------------  -----------------  -----------------  -----------------
         C           -0.513980617045    -0.828422535027     0.214457997312    12.000000000000
         C           -2.826408617045    -0.228125535027    -0.271371002688    12.000000000000
         C           -1.444112617045    -0.333931535027    -0.917143002688    12.000000000000
         C           -1.217069617045    -0.371256535027     1.531300997312    12.000000000000
         C           -2.485302617045     0.376965464973     1.092444997312    12.000000000000
         C            0.904879382955    -0.342217535027     0.066922997312    12.000000000000
         C           -3.841025617045     0.565671464973    -1.081572002688    12.000000000000
         C            1.207147382955     1.024473464973     0.173908997312    12.000000000000
         C            1.951006382955    -1.234084535027    -0.198569002688    12.000000000000
         C            2.515505382955     1.483148464973     0.023654997312    12.000000000000
         C            3.263301382955    -0.780189535027    -0.351816002688    12.000000000000
         C            3.549557382955     0.581094464973    -0.241769002688    12.000000000000
         H           -0.495559617045    -1.925708535027     0.189681997312     1.007825032230
         H           -3.212845617045    -1.245793535027    -0.109829002688     1.007825032230
         H           -1.128721617045     0.664293464973    -1.249907002688     1.007825032230
         H           -1.416463617045    -0.991387535027    -1.793740002688     1.007825032230
         H           -0.557583617045     0.244678464973     2.150081997312     1.007825032230
         H           -1.483668617045    -1.248960535027     2.130288997312     1.007825032230
         H           -3.304353417045     0.337153864973     1.819416297312     1.007825032230
         H           -2.272237617045     1.446474464973     0.956814997312     1.007825032230
         H           -3.475153617045     1.583841464973    -1.254408002688     1.007825032230
         H           -4.021999617045     0.101951464973    -2.056577002688     1.007825032230
         H           -4.800291617045     0.635379464973    -0.558445002688     1.007825032230
         H            0.409856382955     1.737604464973     0.380388997312     1.007825032230
         H            1.735205382955    -2.298306535027    -0.282649002688     1.007825032230
         H            2.729656382955     2.545994464973     0.112471997312     1.007825032230
         H            4.061262382955    -1.490614535027    -0.556236002688     1.007825032230
         H            4.570014382955     0.937798464973    -0.358997002688     1.007825032230

  Basis Set: AUG-CC-PVTZ
    Blend: AUG-CC-PVTZ
  Basis Set: (AUG-CC-PVTZ AUX)
    Blend: AUG-CC-PVTZ-JKFIT
	 Reference Energy          =    -463.8942662232433918 [Eh]
	 Singles Energy            =      -0.0000000000000000 [Eh]
	 Same-Spin Energy          =      -0.5195052815720769 [Eh]
	 Opposite-Spin Energy      =      -1.7263936047713000 [Eh]
	 Correlation Energy        =      -2.2458988863433769 [Eh]
	 Total Energy              =    -466.1401651095867464 [Eh]

	 ================> DF-SCS-MP2 Energies <==================
	-----------------------------------------------------------
	 SCS Same-Spin Scale       =       0.3333333333333333 [-]
	 SCS Opposite-Spin Scale   =       1.2000000000000000 [-]
	 SCS Same-Spin Energy      =      -0.1731684271906923 [Eh]
	 SCS Opposite-Spin Energy  =      -2.0716723257255598 [Eh]
	 SCS Correlation Energy    =      -2.2448407529162520 [Eh]
	 SCS Total Energy          =    -466.1391069761596668 [Eh]
	-----------------------------------------------------------

  Dipole Moment: [D]
     X:    -0.5668      Y:    -0.1922      Z:     0.0378     Total:     0.5997

*** Psi4 exiting successfully. Buy a developer a beer!
