                               Psi4 1.4a3.dev225

  ==> Input File <==

--------------------------------------------------------------------------
#psi4
#
memory 32 gb

molecule  {
0 1
  C       -0.4426020    -0.8338200     0.2172010
  C       -2.7550300    -0.2335230    -0.2686280
  C       -1.3899677    -0.4426713    -0.9402482
  C       -1.1456910    -0.3766540     1.5340440
  C       -2.4139240     0.3715680     1.0951880
  C        0.9762580    -0.3476150     0.0696660
  C       -3.7696470     0.5602740    -1.0788290
  C        1.2785260     1.0190760     0.1766520
  C        2.0223850    -1.2394820    -0.1958260
  C        2.5868840     1.4777510     0.0263980
  C        3.3346800    -0.7855870    -0.3490730
  C        3.6209360     0.5756970    -0.2390260
  H       -0.4241810    -1.9311060     0.1924250
  H       -3.1414670    -1.2511910    -0.1070860
  H       -1.0573430     0.6588960    -1.2471640
  H       -1.3450850    -0.9967850    -1.7909970
  H       -0.4862050     0.2392810     2.1528250
  H       -1.4122900    -1.2543580     2.1330320
  H       -3.2323950     0.2935880     1.8197160
  H       -2.2008590     1.4410770     0.9595580
  H       -3.4037750     1.5784440    -1.2516650
  H       -3.9506210     0.0965540    -2.0538340
  H       -4.7289130     0.6299820    -0.5557020
  H        0.4812350     1.7322070     0.3831320
  H        1.8065840    -2.3037040    -0.2799060
  H        2.8010350     2.5405970     0.1152150
  H        4.1326410    -1.4960120    -0.5534930
  H        4.6413930     0.9324010    -0.3562540
units angstrom
no_reorient  #important for SAPT in psi4, default
symmetry c1  #important for SAPT in psi4, default
}

set PROPERTIES_ORIGIN ["COM"]
properties('MP2/aug-cc-pvtz', properties = ['dipole'])
--------------------------------------------------------------------------

    Molecular point group: c1
  Charge       = 0
  Multiplicity = 1
  Basis Set: AUG-CC-PVTZ
    Blend: AUG-CC-PVTZ
  Basis Set: (AUG-CC-PVTZ AUX)
    Blend: AUG-CC-PVTZ-JKFIT

    Orbital Energies [Eh]
    ---------------------

    Doubly Occupied:

       1A    -11.236615     2A    -11.233244     3A    -11.232643
       4A    -11.229193     5A    -11.228972     6A    -11.228323
       7A    -11.228214     8A    -11.222622     9A    -11.217961
      10A    -11.217049    11A    -11.216015    12A    -11.211757
      13A     -1.155277    14A     -1.123579    15A     -1.039063
      16A     -1.008266    17A     -0.988621    18A     -0.956987
      19A     -0.892491    20A     -0.825996    21A     -0.816895
      22A     -0.762965    23A     -0.758349    24A     -0.689836
      25A     -0.667594    26A     -0.635811    27A     -0.619858
      28A     -0.607050    29A     -0.584571    30A     -0.578180
      31A     -0.568864    32A     -0.558517    33A     -0.526646
      34A     -0.511710    35A     -0.510255    36A     -0.492521
      37A     -0.487157    38A     -0.465345    39A     -0.460856
      40A     -0.450898    41A     -0.443940    42A     -0.432158
      43A     -0.331979    44A     -0.319233

  @DF-RHF Final Energy:  -463.88147550138808

   => Energetics <=

    Nuclear Repulsion Energy =            675.2415967154516920
    One-Electron Energy =               -1966.2979926811140103
    Two-Electron Energy =                 827.1749204642743507
    Total Energy =                       -463.8814755013880813
  Basis Set: (AUG-CC-PVTZ AUX)
    Blend: AUG-CC-PVTZ-RI
    Molecular point group: c1

    Geometry (in Angstrom), charge = 0, multiplicity = 1:

       Center              X                  Y                   Z               Mass
    ------------   -----------------  -----------------  -----------------  -----------------
         C           -0.512692749411    -0.820437691511     0.216410474611    12.000000000000
         C           -2.825120749411    -0.220140691511    -0.269418525389    12.000000000000
         C           -1.460058449411    -0.429288991511    -0.941038725389    12.000000000000
         C           -1.215781749411    -0.363271691511     1.533253474611    12.000000000000
         C           -2.484014749411     0.384950308489     1.094397474611    12.000000000000
         C            0.906167250589    -0.334232691511     0.068875474611    12.000000000000
         C           -3.839737749411     0.573656308489    -1.079619525389    12.000000000000
         C            1.208435250589     1.032458308489     0.175861474611    12.000000000000
         C            1.952294250589    -1.226099691511    -0.196616525389    12.000000000000
         C            2.516793250589     1.491133308489     0.025607474611    12.000000000000
         C            3.264589250589    -0.772204691511    -0.349863525389    12.000000000000
         C            3.550845250589     0.589079308489    -0.239816525389    12.000000000000
         H           -0.494271749411    -1.917723691511     0.191634474611     1.007825032230
         H           -3.211557749411    -1.237808691511    -0.107876525389     1.007825032230
         H           -1.127433749411     0.672278308489    -1.247954525389     1.007825032230
         H           -1.415175749411    -0.983402691511    -1.791787525389     1.007825032230
         H           -0.556295749411     0.252663308489     2.152034474611     1.007825032230
         H           -1.482380749411    -1.240975691511     2.132241474611     1.007825032230
         H           -3.302485749411     0.306970308489     1.818925474611     1.007825032230
         H           -2.270949749411     1.454459308489     0.958767474611     1.007825032230
         H           -3.473865749411     1.591826308489    -1.252455525389     1.007825032230
         H           -4.020711749411     0.109936308489    -2.054624525389     1.007825032230
         H           -4.799003749411     0.643364308489    -0.556492525389     1.007825032230
         H            0.411144250589     1.745589308489     0.382341474611     1.007825032230
         H            1.736493250589    -2.290321691511    -0.280696525389     1.007825032230
         H            2.730944250589     2.553979308489     0.114424474611     1.007825032230
         H            4.062550250589    -1.482629691511    -0.554283525389     1.007825032230
         H            4.571302250589     0.945783308489    -0.357044525389     1.007825032230

  Basis Set: AUG-CC-PVTZ
    Blend: AUG-CC-PVTZ
  Basis Set: (AUG-CC-PVTZ AUX)
    Blend: AUG-CC-PVTZ-JKFIT
	 Reference Energy          =    -463.8814755013880813 [Eh]
	 Singles Energy            =      -0.0000000000000000 [Eh]
	 Same-Spin Energy          =      -0.5196685248890793 [Eh]
	 Opposite-Spin Energy      =      -1.7270634089022185 [Eh]
	 Correlation Energy        =      -2.2467319337912981 [Eh]
	 Total Energy              =    -466.1282074351793767 [Eh]

	 ================> DF-SCS-MP2 Energies <==================
	-----------------------------------------------------------
	 SCS Same-Spin Scale       =       0.3333333333333333 [-]
	 SCS Opposite-Spin Scale   =       1.2000000000000000 [-]
	 SCS Same-Spin Energy      =      -0.1732228416296931 [Eh]
	 SCS Opposite-Spin Energy  =      -2.0724760906826623 [Eh]
	 SCS Correlation Energy    =      -2.2456989323123553 [Eh]
	 SCS Total Energy          =    -466.1271744337004179 [Eh]
	-----------------------------------------------------------

  Dipole Moment: [D]
     X:    -0.5792      Y:    -0.2639      Z:     0.0519     Total:     0.6386

*** Psi4 exiting successfully. Buy a developer a beer!
