                               Psi4 1.4a3.dev225

  ==> Input File <==

--------------------------------------------------------------------------
#psi4
#
memory 32 gb

molecule  {
0 1
  C       -0.4426020    -0.8338200     0.2172010
  C       -2.7550300    -0.2335230    -0.2686280
  C       -1.3727340    -0.3393290    -0.9144000
  C       -1.1456910    -0.3766540     1.5340440
  C       -2.4139240     0.3715680     1.0951880
  C        0.9762580    -0.3476150     0.0696660
  C       -3.7696470     0.5602740    -1.0788290
  C        1.2785260     1.0190760     0.1766520
  C        2.0223850    -1.2394820    -0.1958260
  C        2.5868840     1.4777510     0.0263980
  C        3.3346800    -0.7855870    -0.3490730
  C        3.6209360     0.5756970    -0.2390260
  H       -0.4241810    -1.9311060     0.1924250
  H       -3.1414670    -1.2511910    -0.1070860
  H       -1.0573430     0.6588960    -1.2471640
  H       -1.3450850    -0.9967850    -1.7909970
  H       -0.4862050     0.2392810     2.1528250
  H       -1.4122900    -1.2543580     2.1330320
  H       -3.2328096     0.3126632     1.8210482
  H       -2.2008590     1.4410770     0.9595580
  H       -3.4037750     1.5784440    -1.2516650
  H       -3.9506210     0.0965540    -2.0538340
  H       -4.7289130     0.6299820    -0.5557020
  H        0.4812350     1.7322070     0.3831320
  H        1.8065840    -2.3037040    -0.2799060
  H        2.8010350     2.5405970     0.1152150
  H        4.1326410    -1.4960120    -0.5534930
  H        4.6413930     0.9324010    -0.3562540
units angstrom
no_reorient  #important for SAPT in psi4, default
symmetry c1  #important for SAPT in psi4, default
}

set PROPERTIES_ORIGIN ["COM"]
properties('MP2/aug-cc-pvtz', properties = ['dipole'])
--------------------------------------------------------------------------

    Molecular point group: c1
  Charge       = 0
  Multiplicity = 1
  Basis Set: AUG-CC-PVTZ
    Blend: AUG-CC-PVTZ
  Basis Set: (AUG-CC-PVTZ AUX)
    Blend: AUG-CC-PVTZ-JKFIT

    Orbital Energies [Eh]
    ---------------------

    Doubly Occupied:

       1A    -11.236510     2A    -11.233585     3A    -11.232853
       4A    -11.228939     5A    -11.228471     6A    -11.228407
       7A    -11.228132     8A    -11.221277     9A    -11.216805
      10A    -11.214874    11A    -11.214799    12A    -11.211579
      13A     -1.156005    14A     -1.124790    15A     -1.039486
      16A     -1.008444    17A     -0.988434    18A     -0.953776
      19A     -0.892673    20A     -0.826387    21A     -0.816261
      22A     -0.763919    23A     -0.757271    24A     -0.689890
      25A     -0.660244    26A     -0.635243    27A     -0.621691
      28A     -0.606619    29A     -0.586062    30A     -0.579859
      31A     -0.573517    32A     -0.555843    33A     -0.528618
      34A     -0.510726    35A     -0.509980    36A     -0.489999
      37A     -0.475770    38A     -0.463363    39A     -0.461271
      40A     -0.453734    41A     -0.450186    42A     -0.443909
      43A     -0.332349    44A     -0.318822

  @DF-RHF Final Energy:  -463.89437666425033

   => Energetics <=

    Nuclear Repulsion Energy =            675.9269082428861566
    One-Electron Energy =               -1967.6998202601071171
    Two-Electron Energy =                 827.8785353529706299
    Total Energy =                       -463.8943766642503306
  Basis Set: (AUG-CC-PVTZ AUX)
    Blend: AUG-CC-PVTZ-RI
    Molecular point group: c1

    Geometry (in Angstrom), charge = 0, multiplicity = 1:

       Center              X                  Y                   Z               Mass
    ------------   -----------------  -----------------  -----------------  -----------------
         C           -0.513981656810    -0.828302362781     0.214464990555    12.000000000000
         C           -2.826409656810    -0.228005362781    -0.271364009445    12.000000000000
         C           -1.444113656810    -0.333811362781    -0.917136009445    12.000000000000
         C           -1.217070656810    -0.371136362781     1.531307990555    12.000000000000
         C           -2.485303656810     0.377085637219     1.092451990555    12.000000000000
         C            0.904878343190    -0.342097362781     0.066929990555    12.000000000000
         C           -3.841026656810     0.565791637219    -1.081565009445    12.000000000000
         C            1.207146343190     1.024593637219     0.173915990555    12.000000000000
         C            1.951005343190    -1.233964362781    -0.198562009445    12.000000000000
         C            2.515504343190     1.483268637219     0.023661990555    12.000000000000
         C            3.263300343190    -0.780069362781    -0.351809009445    12.000000000000
         C            3.549556343190     0.581214637219    -0.241762009445    12.000000000000
         H           -0.495560656810    -1.925588362781     0.189688990555     1.007825032230
         H           -3.212846656810    -1.245673362781    -0.109822009445     1.007825032230
         H           -1.128722656810     0.664413637219    -1.249900009445     1.007825032230
         H           -1.416464656810    -0.991267362781    -1.793733009445     1.007825032230
         H           -0.557584656810     0.244798637219     2.150088990555     1.007825032230
         H           -1.483669656810    -1.248840362781     2.130295990555     1.007825032230
         H           -3.304189256810     0.318180837219     1.818312190555     1.007825032230
         H           -2.272238656810     1.446594637219     0.956821990555     1.007825032230
         H           -3.475154656810     1.583961637219    -1.254401009445     1.007825032230
         H           -4.022000656810     0.102071637219    -2.056570009445     1.007825032230
         H           -4.800292656810     0.635499637219    -0.558438009445     1.007825032230
         H            0.409855343190     1.737724637219     0.380395990555     1.007825032230
         H            1.735204343190    -2.298186362781    -0.282642009445     1.007825032230
         H            2.729655343190     2.546114637219     0.112478990555     1.007825032230
         H            4.061261343190    -1.490494362781    -0.556229009445     1.007825032230
         H            4.570013343190     0.937918637219    -0.358990009445     1.007825032230

  Basis Set: AUG-CC-PVTZ
    Blend: AUG-CC-PVTZ
  Basis Set: (AUG-CC-PVTZ AUX)
    Blend: AUG-CC-PVTZ-JKFIT
	 Reference Energy          =    -463.8943766642503306 [Eh]
	 Singles Energy            =      -0.0000000000000000 [Eh]
	 Same-Spin Energy          =      -0.5195049493903626 [Eh]
	 Opposite-Spin Energy      =      -1.7264117502861089 [Eh]
	 Correlation Energy        =      -2.2459166996764717 [Eh]
	 Total Energy              =    -466.1402933639267872 [Eh]

	 ================> DF-SCS-MP2 Energies <==================
	-----------------------------------------------------------
	 SCS Same-Spin Scale       =       0.3333333333333333 [-]
	 SCS Opposite-Spin Scale   =       1.2000000000000000 [-]
	 SCS Same-Spin Energy      =      -0.1731683164634542 [Eh]
	 SCS Opposite-Spin Energy  =      -2.0716941003433305 [Eh]
	 SCS Correlation Energy    =      -2.2448624168067846 [Eh]
	 SCS Total Energy          =    -466.1392390810570987 [Eh]
	-----------------------------------------------------------

  Dipole Moment: [D]
     X:    -0.5680      Y:    -0.1975      Z:     0.0376     Total:     0.6026

*** Psi4 exiting successfully. Buy a developer a beer!
