                               Psi4 1.4a3.dev225

  ==> Input File <==

--------------------------------------------------------------------------
#psi4
#
memory 32 gb

molecule  {
0 1
  C       -0.4426020    -0.8338200     0.2172010
  C       -2.7550300    -0.2335230    -0.2686280
  C       -1.3727340    -0.3393290    -0.9144000
  C       -1.1456910    -0.3766540     1.5340440
  C       -2.4139240     0.3715680     1.0951880
  C        0.9762580    -0.3476150     0.0696660
  C       -3.7696470     0.5602740    -1.0788290
  C        1.2785260     1.0190760     0.1766520
  C        2.0223850    -1.2394820    -0.1958260
  C        2.5868840     1.4777510     0.0263980
  C        3.3346800    -0.7855870    -0.3490730
  C        3.6250388     0.5952080    -0.2374487
  H       -0.4241810    -1.9311060     0.1924250
  H       -3.1414670    -1.2511910    -0.1070860
  H       -1.0573430     0.6588960    -1.2471640
  H       -1.3450850    -0.9967850    -1.7909970
  H       -0.4862050     0.2392810     2.1528250
  H       -1.4122900    -1.2543580     2.1330320
  H       -3.2323950     0.2935880     1.8197160
  H       -2.2008590     1.4410770     0.9595580
  H       -3.4037750     1.5784440    -1.2516650
  H       -3.9506210     0.0965540    -2.0538340
  H       -4.7289130     0.6299820    -0.5557020
  H        0.4812350     1.7322070     0.3831320
  H        1.8065840    -2.3037040    -0.2799060
  H        2.8010350     2.5405970     0.1152150
  H        4.1326410    -1.4960120    -0.5534930
  H        4.6413930     0.9324010    -0.3562540
units angstrom
no_reorient  #important for SAPT in psi4, default
symmetry c1  #important for SAPT in psi4, default
}

set PROPERTIES_ORIGIN ["COM"]
properties('MP2/aug-cc-pvtz', properties = ['dipole'])
--------------------------------------------------------------------------

    Molecular point group: c1
  Charge       = 0
  Multiplicity = 1
  Basis Set: AUG-CC-PVTZ
    Blend: AUG-CC-PVTZ
  Basis Set: (AUG-CC-PVTZ AUX)
    Blend: AUG-CC-PVTZ-JKFIT

    Orbital Energies [Eh]
    ---------------------

    Doubly Occupied:

       1A    -11.236734     2A    -11.235020     3A    -11.232657
       4A    -11.229151     5A    -11.228449     6A    -11.228298
       7A    -11.228177     8A    -11.221193     9A    -11.216720
      10A    -11.214905    11A    -11.214786    12A    -11.211603
      13A     -1.155507    14A     -1.124412    15A     -1.039285
      16A     -1.008047    17A     -0.988222    18A     -0.953873
      19A     -0.892819    20A     -0.827019    21A     -0.815282
      22A     -0.763599    23A     -0.757349    24A     -0.690455
      25A     -0.660574    26A     -0.636104    27A     -0.621322
      28A     -0.606554    29A     -0.585530    30A     -0.579194
      31A     -0.573767    32A     -0.556393    33A     -0.529449
      34A     -0.512821    35A     -0.509586    36A     -0.487983
      37A     -0.475320    38A     -0.463292    39A     -0.461401
      40A     -0.453705    41A     -0.450242    42A     -0.443983
      43A     -0.332690    44A     -0.317807

  @DF-RHF Final Energy:  -463.89378370631545

   => Energetics <=

    Nuclear Repulsion Energy =            675.7494480078931929
    One-Electron Energy =               -1967.3439056027098104
    Two-Electron Energy =                 827.7006738885010009
    Total Energy =                       -463.8937837063155030
  Basis Set: (AUG-CC-PVTZ AUX)
    Blend: AUG-CC-PVTZ-RI
    Molecular point group: c1

    Geometry (in Angstrom), charge = 0, multiplicity = 1:

       Center              X                  Y                   Z               Mass
    ------------   -----------------  -----------------  -----------------  -----------------
         C           -0.514291735699    -0.829644484666     0.214355170393    12.000000000000
         C           -2.826719735699    -0.229347484666    -0.271473829607    12.000000000000
         C           -1.444423735699    -0.335153484666    -0.917245829607    12.000000000000
         C           -1.217380735699    -0.372478484666     1.531198170393    12.000000000000
         C           -2.485613735699     0.375743515334     1.092342170393    12.000000000000
         C            0.904568264301    -0.343439484666     0.066820170393    12.000000000000
         C           -3.841336735699     0.564449515334    -1.081674829607    12.000000000000
         C            1.206836264301     1.023251515334     0.173806170393    12.000000000000
         C            1.950695264301    -1.235306484666    -0.198671829607    12.000000000000
         C            2.515194264301     1.481926515334     0.023552170393    12.000000000000
         C            3.262990264301    -0.781411484666    -0.351918829607    12.000000000000
         C            3.553349064301     0.599383515334    -0.240294529607    12.000000000000
         H           -0.495870735699    -1.926930484666     0.189579170393     1.007825032230
         H           -3.213156735699    -1.247015484666    -0.109931829607     1.007825032230
         H           -1.129032735699     0.663071515334    -1.250009829607     1.007825032230
         H           -1.416774735699    -0.992609484666    -1.793842829607     1.007825032230
         H           -0.557894735699     0.243456515334     2.149979170393     1.007825032230
         H           -1.483979735699    -1.250182484666     2.130186170393     1.007825032230
         H           -3.304084735699     0.297763515334     1.816870170393     1.007825032230
         H           -2.272548735699     1.445252515334     0.956712170393     1.007825032230
         H           -3.475464735699     1.582619515334    -1.254510829607     1.007825032230
         H           -4.022310735699     0.100729515334    -2.056679829607     1.007825032230
         H           -4.800602735699     0.634157515334    -0.558547829607     1.007825032230
         H            0.409545264301     1.736382515334     0.380286170393     1.007825032230
         H            1.734894264301    -2.299528484666    -0.282751829607     1.007825032230
         H            2.729345264301     2.544772515334     0.112369170393     1.007825032230
         H            4.060951264301    -1.491836484666    -0.556338829607     1.007825032230
         H            4.569703264301     0.936576515334    -0.359099829607     1.007825032230

  Basis Set: AUG-CC-PVTZ
    Blend: AUG-CC-PVTZ
  Basis Set: (AUG-CC-PVTZ AUX)
    Blend: AUG-CC-PVTZ-JKFIT
	 Reference Energy          =    -463.8937837063154461 [Eh]
	 Singles Energy            =      -0.0000000000000000 [Eh]
	 Same-Spin Energy          =      -0.5195243665358658 [Eh]
	 Opposite-Spin Energy      =      -1.7265287566356420 [Eh]
	 Correlation Energy        =      -2.2460531231715075 [Eh]
	 Total Energy              =    -466.1398368294869670 [Eh]

	 ================> DF-SCS-MP2 Energies <==================
	-----------------------------------------------------------
	 SCS Same-Spin Scale       =       0.3333333333333333 [-]
	 SCS Opposite-Spin Scale   =       1.2000000000000000 [-]
	 SCS Same-Spin Energy      =      -0.1731747888452886 [Eh]
	 SCS Opposite-Spin Energy  =      -2.0718345079627705 [Eh]
	 SCS Correlation Energy    =      -2.2450092968080591 [Eh]
	 SCS Total Energy          =    -466.1387930031235101 [Eh]
	-----------------------------------------------------------

  Dipole Moment: [D]
     X:    -0.5682      Y:    -0.2061      Z:     0.0364     Total:     0.6055

*** Psi4 exiting successfully. Buy a developer a beer!
