                               Psi4 1.4a3.dev225

  ==> Input File <==

--------------------------------------------------------------------------
#psi4
#
memory 32 gb

molecule  {
0 1
  C       -0.4426020    -0.8338200     0.2172010
  C       -2.7236827    -0.1906510    -0.2676218
  C       -1.3727340    -0.3393290    -0.9144000
  C       -1.1456910    -0.3766540     1.5340440
  C       -2.4139240     0.3715680     1.0951880
  C        0.9762580    -0.3476150     0.0696660
  C       -3.7696470     0.5602740    -1.0788290
  C        1.2785260     1.0190760     0.1766520
  C        2.0223850    -1.2394820    -0.1958260
  C        2.5868840     1.4777510     0.0263980
  C        3.3346800    -0.7855870    -0.3490730
  C        3.6209360     0.5756970    -0.2390260
  H       -0.4241810    -1.9311060     0.1924250
  H       -3.1414670    -1.2511910    -0.1070860
  H       -1.0573430     0.6588960    -1.2471640
  H       -1.3450850    -0.9967850    -1.7909970
  H       -0.4862050     0.2392810     2.1528250
  H       -1.4122900    -1.2543580     2.1330320
  H       -3.2323950     0.2935880     1.8197160
  H       -2.2008590     1.4410770     0.9595580
  H       -3.4037750     1.5784440    -1.2516650
  H       -3.9506210     0.0965540    -2.0538340
  H       -4.7289130     0.6299820    -0.5557020
  H        0.4812350     1.7322070     0.3831320
  H        1.8065840    -2.3037040    -0.2799060
  H        2.8010350     2.5405970     0.1152150
  H        4.1326410    -1.4960120    -0.5534930
  H        4.6413930     0.9324010    -0.3562540
units angstrom
no_reorient  #important for SAPT in psi4, default
symmetry c1  #important for SAPT in psi4, default
}

set PROPERTIES_ORIGIN ["COM"]
properties('MP2/aug-cc-pvtz', properties = ['dipole'])
--------------------------------------------------------------------------

    Molecular point group: c1
  Charge       = 0
  Multiplicity = 1
  Basis Set: AUG-CC-PVTZ
    Blend: AUG-CC-PVTZ
  Basis Set: (AUG-CC-PVTZ AUX)
    Blend: AUG-CC-PVTZ-JKFIT

    Orbital Energies [Eh]
    ---------------------

    Doubly Occupied:

       1A    -11.236692     2A    -11.233707     3A    -11.232979
       4A    -11.229076     5A    -11.228932     6A    -11.228559
       7A    -11.228295     8A    -11.223420     9A    -11.217246
      10A    -11.214563    11A    -11.214320    12A    -11.212156
      13A     -1.157306    14A     -1.128190    15A     -1.040376
      16A     -1.008583    17A     -0.989045    18A     -0.956325
      19A     -0.895161    20A     -0.826967    21A     -0.817073
      22A     -0.758834    23A     -0.756318    24A     -0.690285
      25A     -0.662822    26A     -0.635437    27A     -0.623103
      28A     -0.607554    29A     -0.585889    30A     -0.580160
      31A     -0.573409    32A     -0.557325    33A     -0.527298
      34A     -0.511775    35A     -0.510424    36A     -0.489966
      37A     -0.479760    38A     -0.463767    39A     -0.462584
      40A     -0.451465    41A     -0.450820    42A     -0.440006
      43A     -0.332472    44A     -0.319025

  @DF-RHF Final Energy:  -463.89085040805634

   => Energetics <=

    Nuclear Repulsion Energy =            676.5858694054485341
    One-Electron Energy =               -1968.9745049752650630
    Two-Electron Energy =                 828.4977851617601345
    Total Energy =                       -463.8908504080562807
  Basis Set: (AUG-CC-PVTZ AUX)
    Blend: AUG-CC-PVTZ-RI
    Molecular point group: c1

    Geometry (in Angstrom), charge = 0, multiplicity = 1:

       Center              X                  Y                   Z               Mass
    ------------   -----------------  -----------------  -----------------  -----------------
         C           -0.516333475531    -0.831395189734     0.214397969403    12.000000000000
         C           -2.797414175531    -0.188226189734    -0.270424830597    12.000000000000
         C           -1.446465475531    -0.336904189734    -0.917203030597    12.000000000000
         C           -1.219422475531    -0.374229189734     1.531240969403    12.000000000000
         C           -2.487655475531     0.373992810266     1.092384969403    12.000000000000
         C            0.902526524469    -0.345190189734     0.066862969403    12.000000000000
         C           -3.843378475531     0.562698810266    -1.081632030597    12.000000000000
         C            1.204794524469     1.021500810266     0.173848969403    12.000000000000
         C            1.948653524469    -1.237057189734    -0.198629030597    12.000000000000
         C            2.513152524469     1.480175810266     0.023594969403    12.000000000000
         C            3.260948524469    -0.783162189734    -0.351876030597    12.000000000000
         C            3.547204524469     0.578121810266    -0.241829030597    12.000000000000
         H           -0.497912475531    -1.928681189734     0.189621969403     1.007825032230
         H           -3.215198475531    -1.248766189734    -0.109889030597     1.007825032230
         H           -1.131074475531     0.661320810266    -1.249967030597     1.007825032230
         H           -1.418816475531    -0.994360189734    -1.793800030597     1.007825032230
         H           -0.559936475531     0.241705810266     2.150021969403     1.007825032230
         H           -1.486021475531    -1.251933189734     2.130228969403     1.007825032230
         H           -3.306126475531     0.296012810266     1.816912969403     1.007825032230
         H           -2.274590475531     1.443501810266     0.956754969403     1.007825032230
         H           -3.477506475531     1.580868810266    -1.254468030597     1.007825032230
         H           -4.024352475531     0.098978810266    -2.056637030597     1.007825032230
         H           -4.802644475531     0.632406810266    -0.558505030597     1.007825032230
         H            0.407503524469     1.734631810266     0.380328969403     1.007825032230
         H            1.732852524469    -2.301279189734    -0.282709030597     1.007825032230
         H            2.727303524469     2.543021810266     0.112411969403     1.007825032230
         H            4.058909524469    -1.493587189734    -0.556296030597     1.007825032230
         H            4.567661524469     0.934825810266    -0.359057030597     1.007825032230

  Basis Set: AUG-CC-PVTZ
    Blend: AUG-CC-PVTZ
  Basis Set: (AUG-CC-PVTZ AUX)
    Blend: AUG-CC-PVTZ-JKFIT
	 Reference Energy          =    -463.8908504080563375 [Eh]
	 Singles Energy            =      -0.0000000000000000 [Eh]
	 Same-Spin Energy          =      -0.5198500616912375 [Eh]
	 Opposite-Spin Energy      =      -1.7268436376629537 [Eh]
	 Correlation Energy        =      -2.2466936993541911 [Eh]
	 Total Energy              =    -466.1375441074105197 [Eh]

	 ================> DF-SCS-MP2 Energies <==================
	-----------------------------------------------------------
	 SCS Same-Spin Scale       =       0.3333333333333333 [-]
	 SCS Opposite-Spin Scale   =       1.2000000000000000 [-]
	 SCS Same-Spin Energy      =      -0.1732833538970792 [Eh]
	 SCS Opposite-Spin Energy  =      -2.0722123651955444 [Eh]
	 SCS Correlation Energy    =      -2.2454957190926237 [Eh]
	 SCS Total Energy          =    -466.1363461271489541 [Eh]
	-----------------------------------------------------------

  Dipole Moment: [D]
     X:    -0.5447      Y:    -0.1765      Z:     0.0389     Total:     0.5739

*** Psi4 exiting successfully. Buy a developer a beer!
