                               Psi4 1.3.2 release

  ==> Input File <==

--------------------------------------------------------------------------
#psi4
#
memory 32 gb

molecule  {
0 1
  O       -1.3942470    -0.6912850     0.0000710
  C        0.5551450     0.7377530     0.0000990
  C        1.3746008    -0.5439394    -0.0000760
  C       -0.9211660     0.4378280    -0.0001010
  H        0.7619420     1.3719750     0.8733060
  H        0.7621780     1.3724340    -0.8727060
  H        1.2112930    -1.1257500    -0.8806530
  H        1.2110310    -1.1261570     0.8801730
  H        2.4796340    -0.2528610     0.0001440
  H       -1.5889620     1.3245140    -0.0004160
units angstrom
no_reorient  #important for SAPT in psi4, default
symmetry c1  #important for SAPT in psi4, default
}

set PROPERTIES_ORIGIN ["COM"]
properties('MP2/aug-cc-pvtz', properties = ['dipole'])
--------------------------------------------------------------------------

    Molecular point group: c1
  Charge       = 0
  Multiplicity = 1
  Basis Set: AUG-CC-PVTZ
    Blend: AUG-CC-PVTZ
  Basis Set: (AUG-CC-PVTZ AUX)
    Blend: AUG-CC-PVTZ-JKFIT

    Orbital Energies [Eh]
    ---------------------

    Doubly Occupied:

       1A    -20.558876     2A    -11.335034     3A    -11.248154
       4A    -11.223046     5A     -1.383897     6A     -1.063043
       7A     -0.910626     8A     -0.774626     9A     -0.678364
      10A     -0.638794    11A     -0.625662    12A     -0.533655
      13A     -0.530663    14A     -0.516567    15A     -0.493074
      16A     -0.422871

  @DF-RHF Final Energy:  -192.02046370584020

   => Energetics <=

    Nuclear Repulsion Energy =            118.5501523335166922
    One-Electron Energy =                -495.2673292307863449
    Two-Electron Energy =                 184.6967131914294669
    Total Energy =                       -192.0204637058402000
  Basis Set: (AUG-CC-PVTZ AUX)
    Blend: AUG-CC-PVTZ-RI
    Molecular point group: c1

    Geometry (in Angstrom), charge = 0, multiplicity = 1:

       Center              X                  Y                   Z               Mass
    ------------   -----------------  -----------------  -----------------  -----------------
         O           -1.302538410827    -0.658533626562     0.000070199724    15.994914619570
         C            0.646853589173     0.770504373438     0.000098199724    12.000000000000
         C            1.466309389173    -0.511188026562    -0.000076800276    12.000000000000
         C           -0.829457410827     0.470579373438    -0.000101800276    12.000000000000
         H            0.853650589173     1.404726373438     0.873305199724     1.007825032230
         H            0.853886589173     1.405185373438    -0.872706800276     1.007825032230
         H            1.303001589173    -1.092998626562    -0.880653800276     1.007825032230
         H            1.302739589173    -1.093405626562     0.880172199724     1.007825032230
         H            2.571342589173    -0.220109626562     0.000143199724     1.007825032230
         H           -1.497253410827     1.357265373438    -0.000416800276     1.007825032230

  Basis Set: AUG-CC-PVTZ
    Blend: AUG-CC-PVTZ
  Basis Set: (AUG-CC-PVTZ AUX)
    Blend: AUG-CC-PVTZ-JKFIT
	 Reference Energy          =    -192.0204637058402000 [Eh]
	 Singles Energy            =      -0.0000000000000000 [Eh]
	 Same-Spin Energy          =      -0.1870356810633389 [Eh]
	 Opposite-Spin Energy      =      -0.6393785689632414 [Eh]
	 Correlation Energy        =      -0.8264142500265803 [Eh]
	 Total Energy              =    -192.8468779558667734 [Eh]

	 ================> DF-SCS-MP2 Energies <==================
	-----------------------------------------------------------
	 SCS Same-Spin Scale       =       0.3333333333333333 [-]
	 SCS Opposite-Spin Scale   =       1.2000000000000000 [-]
	 SCS Same-Spin Energy      =      -0.0623452270211130 [Eh]
	 SCS Opposite-Spin Energy  =      -0.7672542827558897 [Eh]
	 SCS Correlation Energy    =      -0.8295995097770027 [Eh]
	 SCS Total Energy          =    -192.8500632156172117 [Eh]
	-----------------------------------------------------------

  Dipole Moment: [D]
     X:     1.5340      Y:     2.2008      Z:    -0.0002     Total:     2.6827

*** Psi4 exiting successfully. Buy a developer a beer!
