                               Psi4 1.3.2 release

  ==> Input File <==

--------------------------------------------------------------------------
#psi4
#
memory 32 gb

molecule  {
0 1
  O       -1.3942470    -0.6912850     0.0000710
  C        0.5551450     0.7377530     0.0000990
  C        1.2831983    -0.5979796    -0.0000954
  C       -0.9211660     0.4378280    -0.0001010
  H        0.7619420     1.3719750     0.8733060
  H        0.7621780     1.3724340    -0.8727060
  H        1.2112930    -1.1257500    -0.8806530
  H        1.2110310    -1.1261570     0.8801730
  H        2.4796340    -0.2528610     0.0001440
  H       -1.5889620     1.3245140    -0.0004160
units angstrom
no_reorient  #important for SAPT in psi4, default
symmetry c1  #important for SAPT in psi4, default
}

set PROPERTIES_ORIGIN ["COM"]
properties('MP2/aug-cc-pvtz', properties = ['dipole'])
--------------------------------------------------------------------------

    Molecular point group: c1
  Charge       = 0
  Multiplicity = 1
  Basis Set: AUG-CC-PVTZ
    Blend: AUG-CC-PVTZ
  Basis Set: (AUG-CC-PVTZ AUX)
    Blend: AUG-CC-PVTZ-JKFIT

    Orbital Energies [Eh]
    ---------------------

    Doubly Occupied:

       1A    -20.559274     2A    -11.334096     3A    -11.250227
       4A    -11.226923     5A     -1.384806     6A     -1.065259
       7A     -0.911863     8A     -0.775998     9A     -0.677882
      10A     -0.650304    11A     -0.624949    12A     -0.550045
      13A     -0.539405    14A     -0.496800    15A     -0.481458
      16A     -0.419727

  @DF-RHF Final Energy:  -191.99968590919877

   => Energetics <=

    Nuclear Repulsion Energy =            119.0392512067505919
    One-Electron Energy =                -496.1798419230796071
    Two-Electron Energy =                 185.1409048071302550
    Total Energy =                       -191.9996859091987744
  Basis Set: (AUG-CC-PVTZ AUX)
    Blend: AUG-CC-PVTZ-RI
    Molecular point group: c1

    Geometry (in Angstrom), charge = 0, multiplicity = 1:

       Center              X                  Y                   Z               Mass
    ------------   -----------------  -----------------  -----------------  -----------------
         O           -1.283641188907    -0.647360960038     0.000074210622    15.994914619570
         C            0.665750811093     0.781677039962     0.000102210622    12.000000000000
         C            1.393804111093    -0.554055560038    -0.000092189378    12.000000000000
         C           -0.810560188907     0.481752039962    -0.000097789378    12.000000000000
         H            0.872547811093     1.415899039962     0.873309210622     1.007825032230
         H            0.872783811093     1.416358039962    -0.872702789378     1.007825032230
         H            1.321898811093    -1.081825960038    -0.880649789378     1.007825032230
         H            1.321636811093    -1.082232960038     0.880176210622     1.007825032230
         H            2.590239811093    -0.208936960038     0.000147210622     1.007825032230
         H           -1.478356188907     1.368438039962    -0.000412789378     1.007825032230

  Basis Set: AUG-CC-PVTZ
    Blend: AUG-CC-PVTZ
  Basis Set: (AUG-CC-PVTZ AUX)
    Blend: AUG-CC-PVTZ-JKFIT
	 Reference Energy          =    -191.9996859091987744 [Eh]
	 Singles Energy            =      -0.0000000000000000 [Eh]
	 Same-Spin Energy          =      -0.1874079078389287 [Eh]
	 Opposite-Spin Energy      =      -0.6403992909166771 [Eh]
	 Correlation Energy        =      -0.8278071987556058 [Eh]
	 Total Energy              =    -192.8274931079543819 [Eh]

	 ================> DF-SCS-MP2 Energies <==================
	-----------------------------------------------------------
	 SCS Same-Spin Scale       =       0.3333333333333333 [-]
	 SCS Opposite-Spin Scale   =       1.2000000000000000 [-]
	 SCS Same-Spin Energy      =      -0.0624693026129762 [Eh]
	 SCS Opposite-Spin Energy  =      -0.7684791491000126 [Eh]
	 SCS Correlation Energy    =      -0.8309484517129888 [Eh]
	 SCS Total Energy          =    -192.8306343609117732 [Eh]
	-----------------------------------------------------------

  Dipole Moment: [D]
     X:     1.4545      Y:     2.1966      Z:    -0.0002     Total:     2.6345

*** Psi4 exiting successfully. Buy a developer a beer!
