                               Psi4 1.3.2 release

  ==> Input File <==

--------------------------------------------------------------------------
#psi4
#
memory 32 gb

molecule  {
0 1
  O       -1.3942470    -0.6912850     0.0000710
  C        0.5551450     0.7377530     0.0000990
  C        1.5450030    -0.4174198    -0.0000348
  C       -0.9211660     0.4378280    -0.0001010
  H        0.7619420     1.3719750     0.8733060
  H        0.7621780     1.3724340    -0.8727060
  H        1.2112930    -1.1257500    -0.8806530
  H        1.2110310    -1.1261570     0.8801730
  H        2.4796340    -0.2528610     0.0001440
  H       -1.5889620     1.3245140    -0.0004160
units angstrom
no_reorient  #important for SAPT in psi4, default
symmetry c1  #important for SAPT in psi4, default
}

set PROPERTIES_ORIGIN ["COM"]
properties('MP2/aug-cc-pvtz', properties = ['dipole'])
--------------------------------------------------------------------------

    Molecular point group: c1
  Charge       = 0
  Multiplicity = 1
  Basis Set: AUG-CC-PVTZ
    Blend: AUG-CC-PVTZ
  Basis Set: (AUG-CC-PVTZ AUX)
    Blend: AUG-CC-PVTZ-JKFIT

    Orbital Energies [Eh]
    ---------------------

    Doubly Occupied:

       1A    -20.560946     2A    -11.339973     3A    -11.249543
       4A    -11.226823     5A     -1.385376     6A     -1.063528
       7A     -0.918001     8A     -0.778016     9A     -0.684856
      10A     -0.626877    11A     -0.626232    12A     -0.591928
      13A     -0.510057    14A     -0.501727    15A     -0.467713
      16A     -0.429108

  @DF-RHF Final Energy:  -191.99161251152873

   => Energetics <=

    Nuclear Repulsion Energy =            117.7241004340453543
    One-Electron Energy =                -493.5100169703654842
    Two-Electron Energy =                 183.7943040247914155
    Total Energy =                       -191.9916125115287286
  Basis Set: (AUG-CC-PVTZ AUX)
    Blend: AUG-CC-PVTZ-RI
    Molecular point group: c1

    Geometry (in Angstrom), charge = 0, multiplicity = 1:

       Center              X                  Y                   Z               Mass
    ------------   -----------------  -----------------  -----------------  -----------------
         O           -1.337768609005    -0.684691214795     0.000061681734    15.994914619570
         C            0.611623390995     0.744346785205     0.000089681734    12.000000000000
         C            1.601481390995    -0.410826014795    -0.000044118266    12.000000000000
         C           -0.864687609005     0.444421785205    -0.000110318266    12.000000000000
         H            0.818420390995     1.378568785205     0.873296681734     1.007825032230
         H            0.818656390995     1.379027785205    -0.872715318266     1.007825032230
         H            1.267771390995    -1.119156214795    -0.880662318266     1.007825032230
         H            1.267509390995    -1.119563214795     0.880163681734     1.007825032230
         H            2.536112390995    -0.246267214795     0.000134681734     1.007825032230
         H           -1.532483609005     1.331107785205    -0.000425318266     1.007825032230

  Basis Set: AUG-CC-PVTZ
    Blend: AUG-CC-PVTZ
  Basis Set: (AUG-CC-PVTZ AUX)
    Blend: AUG-CC-PVTZ-JKFIT
	 Reference Energy          =    -191.9916125115287286 [Eh]
	 Singles Energy            =      -0.0000000000000000 [Eh]
	 Same-Spin Energy          =      -0.1874238678806571 [Eh]
	 Opposite-Spin Energy      =      -0.6406725368157855 [Eh]
	 Correlation Energy        =      -0.8280964046964425 [Eh]
	 Total Energy              =    -192.8197089162251814 [Eh]

	 ================> DF-SCS-MP2 Energies <==================
	-----------------------------------------------------------
	 SCS Same-Spin Scale       =       0.3333333333333333 [-]
	 SCS Opposite-Spin Scale   =       1.2000000000000000 [-]
	 SCS Same-Spin Energy      =      -0.0624746226268857 [Eh]
	 SCS Opposite-Spin Energy  =      -0.7688070441789426 [Eh]
	 SCS Correlation Energy    =      -0.8312816668058283 [Eh]
	 SCS Total Energy          =    -192.8228941783345647 [Eh]
	-----------------------------------------------------------

  Dipole Moment: [D]
     X:     1.5232      Y:     2.2468      Z:    -0.0002     Total:     2.7144

*** Psi4 exiting successfully. Buy a developer a beer!
