                               Psi4 1.3.2 release

  ==> Input File <==

--------------------------------------------------------------------------
#psi4
#
memory 32 gb

molecule  {
0 1
  O       -1.3942470    -0.6912850     0.0000710
  C        0.5551450     0.7377530     0.0000990
  C        1.5040850    -0.4512617    -0.0000454
  C       -0.9211660     0.4378280    -0.0001010
  H        0.7619420     1.3719750     0.8733060
  H        0.7621780     1.3724340    -0.8727060
  H        1.2112930    -1.1257500    -0.8806530
  H        1.2110310    -1.1261570     0.8801730
  H        2.4796340    -0.2528610     0.0001440
  H       -1.5889620     1.3245140    -0.0004160
units angstrom
no_reorient  #important for SAPT in psi4, default
symmetry c1  #important for SAPT in psi4, default
}

set PROPERTIES_ORIGIN ["COM"]
properties('MP2/aug-cc-pvtz', properties = ['dipole'])
--------------------------------------------------------------------------

    Molecular point group: c1
  Charge       = 0
  Multiplicity = 1
  Basis Set: AUG-CC-PVTZ
    Blend: AUG-CC-PVTZ
  Basis Set: (AUG-CC-PVTZ AUX)
    Blend: AUG-CC-PVTZ-JKFIT

    Orbital Energies [Eh]
    ---------------------

    Doubly Occupied:

       1A    -20.560107     2A    -11.338387     3A    -11.248442
       4A    -11.224511     5A     -1.384647     6A     -1.062769
       7A     -0.914503     8A     -0.775835     9A     -0.682980
      10A     -0.628067    11A     -0.626716    12A     -0.575390
      13A     -0.512825    14A     -0.508537    15A     -0.477566
      16A     -0.427418

  @DF-RHF Final Energy:  -192.00994439142497

   => Energetics <=

    Nuclear Repulsion Energy =            117.9057735123690094
    One-Electron Energy =                -493.9340355037510903
    Two-Electron Energy =                 184.0183175999571006
    Total Energy =                       -192.0099443914249662
  Basis Set: (AUG-CC-PVTZ AUX)
    Blend: AUG-CC-PVTZ-RI
    Molecular point group: c1

    Geometry (in Angstrom), charge = 0, multiplicity = 1:

       Center              X                  Y                   Z               Mass
    ------------   -----------------  -----------------  -----------------  -----------------
         O           -1.329308922164    -0.677694492665     0.000063873256    15.994914619570
         C            0.620083077836     0.751343507335     0.000091873256    12.000000000000
         C            1.569023077836    -0.437671192665    -0.000052526744    12.000000000000
         C           -0.856227922164     0.451418507335    -0.000108126744    12.000000000000
         H            0.826880077836     1.385565507335     0.873298873256     1.007825032230
         H            0.827116077836     1.386024507335    -0.872713126744     1.007825032230
         H            1.276231077836    -1.112159492665    -0.880660126744     1.007825032230
         H            1.275969077836    -1.112566492665     0.880165873256     1.007825032230
         H            2.544572077836    -0.239270492665     0.000136873256     1.007825032230
         H           -1.524023922164     1.338104507335    -0.000423126744     1.007825032230

  Basis Set: AUG-CC-PVTZ
    Blend: AUG-CC-PVTZ
  Basis Set: (AUG-CC-PVTZ AUX)
    Blend: AUG-CC-PVTZ-JKFIT
	 Reference Energy          =    -192.0099443914249662 [Eh]
	 Singles Energy            =      -0.0000000000000000 [Eh]
	 Same-Spin Energy          =      -0.1871762099785797 [Eh]
	 Opposite-Spin Energy      =      -0.6398749239962730 [Eh]
	 Correlation Energy        =      -0.8270511339748527 [Eh]
	 Total Energy              =    -192.8369955253998285 [Eh]

	 ================> DF-SCS-MP2 Energies <==================
	-----------------------------------------------------------
	 SCS Same-Spin Scale       =       0.3333333333333333 [-]
	 SCS Opposite-Spin Scale   =       1.2000000000000000 [-]
	 SCS Same-Spin Energy      =      -0.0623920699928599 [Eh]
	 SCS Opposite-Spin Energy  =      -0.7678499087955276 [Eh]
	 SCS Correlation Energy    =      -0.8302419787883876 [Eh]
	 SCS Total Energy          =    -192.8401863702133596 [Eh]
	-----------------------------------------------------------

  Dipole Moment: [D]
     X:     1.5473      Y:     2.2292      Z:    -0.0002     Total:     2.7136

*** Psi4 exiting successfully. Buy a developer a beer!
