                               Psi4 1.3.2 release

  ==> Input File <==

--------------------------------------------------------------------------
#psi4
#
memory 32 gb

molecule  {
0 1
  O       -1.3942470    -0.6912850     0.0000710
  C        0.5551450     0.7377530     0.0000990
  C        1.3968446    -0.5294427    -0.0000710
  C       -0.9211660     0.4378280    -0.0001010
  H        0.7619420     1.3719750     0.8733060
  H        0.7621780     1.3724340    -0.8727060
  H        1.2112930    -1.1257500    -0.8806530
  H        1.2110310    -1.1261570     0.8801730
  H        2.4796340    -0.2528610     0.0001440
  H       -1.5889620     1.3245140    -0.0004160
units angstrom
no_reorient  #important for SAPT in psi4, default
symmetry c1  #important for SAPT in psi4, default
}

set PROPERTIES_ORIGIN ["COM"]
properties('MP2/aug-cc-pvtz', properties = ['dipole'])
--------------------------------------------------------------------------

    Molecular point group: c1
  Charge       = 0
  Multiplicity = 1
  Basis Set: AUG-CC-PVTZ
    Blend: AUG-CC-PVTZ
  Basis Set: (AUG-CC-PVTZ AUX)
    Blend: AUG-CC-PVTZ-JKFIT

    Orbital Energies [Eh]
    ---------------------

    Doubly Occupied:

       1A    -20.558936     2A    -11.335437     3A    -11.247904
       4A    -11.222699     5A     -1.383857     6A     -1.062736
       7A     -0.910702     8A     -0.774456     9A     -0.678873
      10A     -0.636422    11A     -0.625866    12A     -0.532819
      13A     -0.529329    14A     -0.521003    15A     -0.491725
      16A     -0.423591

  @DF-RHF Final Energy:  -192.02269160112488

   => Energetics <=

    Nuclear Repulsion Energy =            118.4339512009217827
    One-Electron Energy =                -495.0405756365439061
    Two-Electron Energy =                 184.5839328344972330
    Total Energy =                       -192.0226916011248761
  Basis Set: (AUG-CC-PVTZ AUX)
    Blend: AUG-CC-PVTZ-RI
    Molecular point group: c1

    Geometry (in Angstrom), charge = 0, multiplicity = 1:

       Center              X                  Y                   Z               Mass
    ------------   -----------------  -----------------  -----------------  -----------------
         O           -1.307137256864    -0.661530780437     0.000069165987    15.994914619570
         C            0.642254743136     0.767507219563     0.000097165987    12.000000000000
         C            1.483954343136    -0.499688480437    -0.000072834013    12.000000000000
         C           -0.834056256864     0.467582219563    -0.000102834013    12.000000000000
         H            0.849051743136     1.401729219563     0.873304165987     1.007825032230
         H            0.849287743136     1.402188219563    -0.872707834013     1.007825032230
         H            1.298402743136    -1.095995780437    -0.880654834013     1.007825032230
         H            1.298140743136    -1.096402780437     0.880171165987     1.007825032230
         H            2.566743743136    -0.223106780437     0.000142165987     1.007825032230
         H           -1.501852256864     1.354268219563    -0.000417834013     1.007825032230

  Basis Set: AUG-CC-PVTZ
    Blend: AUG-CC-PVTZ
  Basis Set: (AUG-CC-PVTZ AUX)
    Blend: AUG-CC-PVTZ-JKFIT
	 Reference Energy          =    -192.0226916011248761 [Eh]
	 Singles Energy            =      -0.0000000000000000 [Eh]
	 Same-Spin Energy          =      -0.1869992913535859 [Eh]
	 Opposite-Spin Energy      =      -0.6392833457752884 [Eh]
	 Correlation Energy        =      -0.8262826371288743 [Eh]
	 Total Energy              =    -192.8489742382537599 [Eh]

	 ================> DF-SCS-MP2 Energies <==================
	-----------------------------------------------------------
	 SCS Same-Spin Scale       =       0.3333333333333333 [-]
	 SCS Opposite-Spin Scale   =       1.2000000000000000 [-]
	 SCS Same-Spin Energy      =      -0.0623330971178620 [Eh]
	 SCS Opposite-Spin Energy  =      -0.7671400149303461 [Eh]
	 SCS Correlation Energy    =      -0.8294731120482081 [Eh]
	 SCS Total Energy          =    -192.8521647131730958 [Eh]
	-----------------------------------------------------------

  Dipole Moment: [D]
     X:     1.5453      Y:     2.2034      Z:    -0.0002     Total:     2.6913

*** Psi4 exiting successfully. Buy a developer a beer!
