                               Psi4 1.3.2 release

  ==> Input File <==

--------------------------------------------------------------------------
#psi4
#
memory 32 gb

molecule  {
0 1
  O       -1.3942470    -0.6912850     0.0000710
  C        0.5551450     0.7377530     0.0000990
  C        1.4620110    -0.4836549    -0.0000558
  C       -0.9211660     0.4378280    -0.0001010
  H        0.7619420     1.3719750     0.8733060
  H        0.7621780     1.3724340    -0.8727060
  H        1.2112930    -1.1257500    -0.8806530
  H        1.2110310    -1.1261570     0.8801730
  H        2.4796340    -0.2528610     0.0001440
  H       -1.5889620     1.3245140    -0.0004160
units angstrom
no_reorient  #important for SAPT in psi4, default
symmetry c1  #important for SAPT in psi4, default
}

set PROPERTIES_ORIGIN ["COM"]
properties('MP2/aug-cc-pvtz', properties = ['dipole'])
--------------------------------------------------------------------------

    Molecular point group: c1
  Charge       = 0
  Multiplicity = 1
  Basis Set: AUG-CC-PVTZ
    Blend: AUG-CC-PVTZ
  Basis Set: (AUG-CC-PVTZ AUX)
    Blend: AUG-CC-PVTZ-JKFIT

    Orbital Energies [Eh]
    ---------------------

    Doubly Occupied:

       1A    -20.559473     2A    -11.337026     3A    -11.247857
       4A    -11.223094     5A     -1.384144     6A     -1.062438
       7A     -0.912211     8A     -0.774717     9A     -0.681116
      10A     -0.630724    11A     -0.626433    12A     -0.557788
      13A     -0.517855    14A     -0.514886    15A     -0.485105
      16A     -0.425824

  @DF-RHF Final Energy:  -192.02028504655962

   => Energetics <=

    Nuclear Repulsion Energy =            118.1052996661132397
    One-Electron Energy =                -494.3697900988379956
    Two-Electron Energy =                 184.2442053861651345
    Total Energy =                       -192.0202850465596214
  Basis Set: (AUG-CC-PVTZ AUX)
    Blend: AUG-CC-PVTZ-RI
    Molecular point group: c1

    Geometry (in Angstrom), charge = 0, multiplicity = 1:

       Center              X                  Y                   Z               Mass
    ------------   -----------------  -----------------  -----------------  -----------------
         O           -1.320610235420    -0.670997285377     0.000066023428    15.994914619570
         C            0.628781764580     0.758040714623     0.000094023428    12.000000000000
         C            1.535647764580    -0.463367185377    -0.000060776572    12.000000000000
         C           -0.847529235420     0.458115714623    -0.000105976572    12.000000000000
         H            0.835578764580     1.392262714623     0.873301023428     1.007825032230
         H            0.835814764580     1.392721714623    -0.872710976572     1.007825032230
         H            1.284929764580    -1.105462285377    -0.880657976572     1.007825032230
         H            1.284667764580    -1.105869285377     0.880168023428     1.007825032230
         H            2.553270764580    -0.232573285377     0.000139023428     1.007825032230
         H           -1.515325235420     1.344801714623    -0.000420976572     1.007825032230

  Basis Set: AUG-CC-PVTZ
    Blend: AUG-CC-PVTZ
  Basis Set: (AUG-CC-PVTZ AUX)
    Blend: AUG-CC-PVTZ-JKFIT
	 Reference Energy          =    -192.0202850465596214 [Eh]
	 Singles Energy            =      -0.0000000000000000 [Eh]
	 Same-Spin Energy          =      -0.1870316700617032 [Eh]
	 Opposite-Spin Energy      =      -0.6394123739313842 [Eh]
	 Correlation Energy        =      -0.8264440439930874 [Eh]
	 Total Energy              =    -192.8467290905527136 [Eh]

	 ================> DF-SCS-MP2 Energies <==================
	-----------------------------------------------------------
	 SCS Same-Spin Scale       =       0.3333333333333333 [-]
	 SCS Opposite-Spin Scale   =       1.2000000000000000 [-]
	 SCS Same-Spin Energy      =      -0.0623438900205677 [Eh]
	 SCS Opposite-Spin Energy  =      -0.7672948487176610 [Eh]
	 SCS Correlation Energy    =      -0.8296387387382287 [Eh]
	 SCS Total Energy          =    -192.8499237852978467 [Eh]
	-----------------------------------------------------------

  Dipole Moment: [D]
     X:     1.5574      Y:     2.2161      Z:    -0.0002     Total:     2.7086

*** Psi4 exiting successfully. Buy a developer a beer!
