                               Psi4 1.3.2 release

  ==> Input File <==

--------------------------------------------------------------------------
#psi4
#
memory 32 gb

molecule  {
0 1
  O       -1.3942470    -0.6912850     0.0000710
  C        0.5551450     0.7377530     0.0000990
  C        1.4405563    -0.4992959    -0.0000609
  C       -0.9211660     0.4378280    -0.0001010
  H        0.7619420     1.3719750     0.8733060
  H        0.7621780     1.3724340    -0.8727060
  H        1.2112930    -1.1257500    -0.8806530
  H        1.2110310    -1.1261570     0.8801730
  H        2.4796340    -0.2528610     0.0001440
  H       -1.5889620     1.3245140    -0.0004160
units angstrom
no_reorient  #important for SAPT in psi4, default
symmetry c1  #important for SAPT in psi4, default
}

set PROPERTIES_ORIGIN ["COM"]
properties('MP2/aug-cc-pvtz', properties = ['dipole'])
--------------------------------------------------------------------------

    Molecular point group: c1
  Charge       = 0
  Multiplicity = 1
  Basis Set: AUG-CC-PVTZ
    Blend: AUG-CC-PVTZ
  Basis Set: (AUG-CC-PVTZ AUX)
    Blend: AUG-CC-PVTZ-JKFIT

    Orbital Energies [Eh]
    ---------------------

    Doubly Occupied:

       1A    -20.559237     2A    -11.336434     3A    -11.247752
       4A    -11.222728     5A     -1.383983     6A     -1.062432
       7A     -0.911472     8A     -0.774473     9A     -0.680269
      10A     -0.632388    11A     -0.626257    12A     -0.548820
      13A     -0.521266    14A     -0.517779    15A     -0.487865
      16A     -0.425062

  @DF-RHF Final Energy:  -192.02272106027590

   => Energetics <=

    Nuclear Repulsion Energy =            118.2112122120811648
    One-Electron Energy =                -494.5914318968938233
    Two-Electron Energy =                 184.3574986245367882
    Total Energy =                       -192.0227210602758987
  Basis Set: (AUG-CC-PVTZ AUX)
    Blend: AUG-CC-PVTZ-RI
    Molecular point group: c1

    Geometry (in Angstrom), charge = 0, multiplicity = 1:

       Center              X                  Y                   Z               Mass
    ------------   -----------------  -----------------  -----------------  -----------------
         O           -1.316174533693    -0.667763550544     0.000067077839    15.994914619570
         C            0.633217466307     0.761274449456     0.000095077839    12.000000000000
         C            1.518628766307    -0.475774450544    -0.000064822161    12.000000000000
         C           -0.843093533693     0.461349449456    -0.000104922161    12.000000000000
         H            0.840014466307     1.395496449456     0.873302077839     1.007825032230
         H            0.840250466307     1.395955449456    -0.872709922161     1.007825032230
         H            1.289365466307    -1.102228550544    -0.880656922161     1.007825032230
         H            1.289103466307    -1.102635550544     0.880169077839     1.007825032230
         H            2.557706466307    -0.229339550544     0.000140077839     1.007825032230
         H           -1.510889533693     1.348035449456    -0.000419922161     1.007825032230

  Basis Set: AUG-CC-PVTZ
    Blend: AUG-CC-PVTZ
  Basis Set: (AUG-CC-PVTZ AUX)
    Blend: AUG-CC-PVTZ-JKFIT
	 Reference Energy          =    -192.0227210602758987 [Eh]
	 Singles Energy            =      -0.0000000000000000 [Eh]
	 Same-Spin Energy          =      -0.1869968023843083 [Eh]
	 Opposite-Spin Energy      =      -0.6392974727395304 [Eh]
	 Correlation Energy        =      -0.8262942751238387 [Eh]
	 Total Energy              =    -192.8490153353997414 [Eh]

	 ================> DF-SCS-MP2 Energies <==================
	-----------------------------------------------------------
	 SCS Same-Spin Scale       =       0.3333333333333333 [-]
	 SCS Opposite-Spin Scale   =       1.2000000000000000 [-]
	 SCS Same-Spin Energy      =      -0.0623322674614361 [Eh]
	 SCS Opposite-Spin Energy  =      -0.7671569672874364 [Eh]
	 SCS Correlation Energy    =      -0.8294892347488725 [Eh]
	 SCS Total Energy          =    -192.8522102950247756 [Eh]
	-----------------------------------------------------------

  Dipole Moment: [D]
     X:     1.5570      Y:     2.2110      Z:    -0.0002     Total:     2.7042

*** Psi4 exiting successfully. Buy a developer a beer!
