                               Psi4 1.3.2 release

  ==> Input File <==

--------------------------------------------------------------------------
#psi4
#
memory 32 gb

molecule  {
0 1
  O       -1.3942470    -0.6912850     0.0000710
  C        0.5551450     0.7377530     0.0000990
  C        1.3293712    -0.5717572    -0.0000858
  C       -0.9211660     0.4378280    -0.0001010
  H        0.7619420     1.3719750     0.8733060
  H        0.7621780     1.3724340    -0.8727060
  H        1.2112930    -1.1257500    -0.8806530
  H        1.2110310    -1.1261570     0.8801730
  H        2.4796340    -0.2528610     0.0001440
  H       -1.5889620     1.3245140    -0.0004160
units angstrom
no_reorient  #important for SAPT in psi4, default
symmetry c1  #important for SAPT in psi4, default
}

set PROPERTIES_ORIGIN ["COM"]
properties('MP2/aug-cc-pvtz', properties = ['dipole'])
--------------------------------------------------------------------------

    Molecular point group: c1
  Charge       = 0
  Multiplicity = 1
  Basis Set: AUG-CC-PVTZ
    Blend: AUG-CC-PVTZ
  Basis Set: (AUG-CC-PVTZ AUX)
    Blend: AUG-CC-PVTZ-JKFIT

    Orbital Energies [Eh]
    ---------------------

    Doubly Occupied:

       1A    -20.558943     2A    -11.334428     3A    -11.248986
       4A    -11.224484     5A     -1.384196     6A     -1.063959
       7A     -0.910981     8A     -0.775206     9A     -0.677795
      10A     -0.644196    11A     -0.625270    12A     -0.542205
      13A     -0.534490    14A     -0.499432    15A     -0.495140
      16A     -0.421399

  @DF-RHF Final Energy:  -192.01219593779584

   => Energetics <=

    Nuclear Repulsion Energy =            118.7905372793918133
    One-Electron Energy =                -495.7232449649961836
    Two-Electron Energy =                 184.9205117478085469
    Total Energy =                       -192.0121959377958376
  Basis Set: (AUG-CC-PVTZ AUX)
    Blend: AUG-CC-PVTZ-RI
    Molecular point group: c1

    Geometry (in Angstrom), charge = 0, multiplicity = 1:

       Center              X                  Y                   Z               Mass
    ------------   -----------------  -----------------  -----------------  -----------------
         O           -1.293187312240    -0.652782370963     0.000072225847    15.994914619570
         C            0.656204687760     0.776255629037     0.000100225847    12.000000000000
         C            1.430430887760    -0.533254570963    -0.000084574153    12.000000000000
         C           -0.820106312240     0.476330629037    -0.000099774153    12.000000000000
         H            0.863001687760     1.410477629037     0.873307225847     1.007825032230
         H            0.863237687760     1.410936629037    -0.872704774153     1.007825032230
         H            1.312352687760    -1.087247370963    -0.880651774153     1.007825032230
         H            1.312090687760    -1.087654370963     0.880174225847     1.007825032230
         H            2.580693687760    -0.214358370963     0.000145225847     1.007825032230
         H           -1.487902312240     1.363016629037    -0.000414774153     1.007825032230

  Basis Set: AUG-CC-PVTZ
    Blend: AUG-CC-PVTZ
  Basis Set: (AUG-CC-PVTZ AUX)
    Blend: AUG-CC-PVTZ-JKFIT
	 Reference Energy          =    -192.0121959377958376 [Eh]
	 Singles Energy            =      -0.0000000000000000 [Eh]
	 Same-Spin Energy          =      -0.1871768192956221 [Eh]
	 Opposite-Spin Energy      =      -0.6397633753434377 [Eh]
	 Correlation Energy        =      -0.8269401946390599 [Eh]
	 Total Energy              =    -192.8391361324349020 [Eh]

	 ================> DF-SCS-MP2 Energies <==================
	-----------------------------------------------------------
	 SCS Same-Spin Scale       =       0.3333333333333333 [-]
	 SCS Opposite-Spin Scale   =       1.2000000000000000 [-]
	 SCS Same-Spin Energy      =      -0.0623922730985407 [Eh]
	 SCS Opposite-Spin Energy  =      -0.7677160504121253 [Eh]
	 SCS Correlation Energy    =      -0.8301083235106660 [Eh]
	 SCS Total Energy          =    -192.8423042613065093 [Eh]
	-----------------------------------------------------------

  Dipole Moment: [D]
     X:     1.5008      Y:     2.1976      Z:    -0.0002     Total:     2.6612

*** Psi4 exiting successfully. Buy a developer a beer!
