                               Psi4 1.3.2 release

  ==> Input File <==

--------------------------------------------------------------------------
#psi4
#
memory 32 gb

molecule  {
-1 1
  O        1.7355421    -0.6582426     0.1346050
  O        0.4095020     1.3165580     0.0001130
  C        0.6417670     0.0628290     0.0000410
  C       -0.6554150    -0.7983950     0.0001650
  H       -0.6469910    -1.4524900     0.8854590
  H       -0.6469310    -1.4531640    -0.8846330
  O       -1.8030600     0.0425870    -0.0001530
  H       -1.3272220     0.9175650    -0.0005000
units angstrom
no_reorient  #important for SAPT in psi4, default
symmetry c1  #important for SAPT in psi4, default
}

set PROPERTIES_ORIGIN ["COM"]
properties('MP2/aug-cc-pvtz', properties = ['dipole'])
--------------------------------------------------------------------------

    Molecular point group: c1
  Charge       = -1
  Multiplicity = 1
  Basis Set: AUG-CC-PVTZ
    Blend: AUG-CC-PVTZ
  Basis Set: (AUG-CC-PVTZ AUX)
    Blend: AUG-CC-PVTZ-JKFIT

    Orbital Energies [Eh]
    ---------------------

    Doubly Occupied:

       1A    -20.382043     2A    -20.336293     3A    -20.313873
       4A    -11.168672     5A    -11.107898     6A     -1.201627
       7A     -1.154392     8A     -1.076592     9A     -0.765873
      10A     -0.564787    11A     -0.496961    12A     -0.466616
      13A     -0.440063    14A     -0.393016    15A     -0.365078
      16A     -0.349066    17A     -0.279764    18A     -0.245366
      19A     -0.216063    20A     -0.212973

  @DF-RHF Final Energy:  -302.21507671199936

   => Energetics <=

    Nuclear Repulsion Energy =            168.2775916147650719
    One-Electron Energy =                -757.9112965884911546
    Two-Electron Energy =                 287.4186282617266670
    Total Energy =                       -302.2150767119993588
  Basis Set: (AUG-CC-PVTZ AUX)
    Blend: AUG-CC-PVTZ-RI
    Molecular point group: c1

    Geometry (in Angstrom), charge = -1, multiplicity = 1:

       Center              X                  Y                   Z               Mass
    ------------   -----------------  -----------------  -----------------  -----------------
         O            1.700018313653    -0.663314526643     0.105872732166    15.994914619570
         O            0.373978213653     1.311486073357    -0.028619267834    15.994914619570
         C            0.606243213653     0.057757073357    -0.028691267834    12.000000000000
         C           -0.690938786347    -0.803466926643    -0.028567267834    12.000000000000
         H           -0.682514786347    -1.457561926643     0.856726732166     1.007825032230
         H           -0.682454786347    -1.458235926643    -0.913365267834     1.007825032230
         O           -1.838583786347     0.037515073357    -0.028885267834    15.994914619570
         H           -1.362745786347     0.912493073357    -0.029232267834     1.007825032230

  Basis Set: AUG-CC-PVTZ
    Blend: AUG-CC-PVTZ
  Basis Set: (AUG-CC-PVTZ AUX)
    Blend: AUG-CC-PVTZ-JKFIT
	 Reference Energy          =    -302.2150767119993588 [Eh]
	 Singles Energy            =      -0.0000000000000000 [Eh]
	 Same-Spin Energy          =      -0.2945966346988388 [Eh]
	 Opposite-Spin Energy      =      -0.8676687941548000 [Eh]
	 Correlation Energy        =      -1.1622654288536389 [Eh]
	 Total Energy              =    -303.3773421408529885 [Eh]

	 ================> DF-SCS-MP2 Energies <==================
	-----------------------------------------------------------
	 SCS Same-Spin Scale       =       0.3333333333333333 [-]
	 SCS Opposite-Spin Scale   =       1.2000000000000000 [-]
	 SCS Same-Spin Energy      =      -0.0981988782329463 [Eh]
	 SCS Opposite-Spin Energy  =      -1.0412025529857600 [Eh]
	 SCS Correlation Energy    =      -1.1394014312187064 [Eh]
	 SCS Total Energy          =    -303.3544781432180457 [Eh]
	-----------------------------------------------------------

  Dipole Moment: [D]
     X:    -2.5141      Y:    -0.8496      Z:    -0.1869     Total:     2.6603

*** Psi4 exiting successfully. Buy a developer a beer!
