                               Psi4 1.3.2 release

  ==> Input File <==

--------------------------------------------------------------------------
#psi4
#
memory 32 gb

molecule  {
-1 1
  O        1.7250203    -0.5097231    -0.0675770
  O        0.4095020     1.3165580     0.0001130
  C        0.6417670     0.0628290     0.0000410
  C       -0.6554150    -0.7983950     0.0001650
  H       -0.6469910    -1.4524900     0.8854590
  H       -0.6469310    -1.4531640    -0.8846330
  O       -1.8030600     0.0425870    -0.0001530
  H       -1.3272220     0.9175650    -0.0005000
units angstrom
no_reorient  #important for SAPT in psi4, default
symmetry c1  #important for SAPT in psi4, default
}

set PROPERTIES_ORIGIN ["COM"]
properties('MP2/aug-cc-pvtz', properties = ['dipole'])
--------------------------------------------------------------------------

    Molecular point group: c1
  Charge       = -1
  Multiplicity = 1
  Basis Set: AUG-CC-PVTZ
    Blend: AUG-CC-PVTZ
  Basis Set: (AUG-CC-PVTZ AUX)
    Blend: AUG-CC-PVTZ-JKFIT

    Orbital Energies [Eh]
    ---------------------

    Doubly Occupied:

       1A    -20.379121     2A    -20.312777     3A    -20.312005
       4A    -11.149225     5A    -11.106715     6A     -1.206074
       7A     -1.168329     8A     -1.087974     9A     -0.765578
      10A     -0.559596    11A     -0.493990    12A     -0.466808
      13A     -0.441823    14A     -0.395551    15A     -0.373832
      16A     -0.359246    17A     -0.277137    18A     -0.234369
      19A     -0.215370    20A     -0.214550

  @DF-RHF Final Energy:  -302.22860563888275

   => Energetics <=

    Nuclear Repulsion Energy =            170.5996144351082080
    One-Electron Energy =                -762.6162990816875435
    Two-Electron Energy =                 289.7880790076965241
    Total Energy =                       -302.2286056388827546
  Basis Set: (AUG-CC-PVTZ AUX)
    Blend: AUG-CC-PVTZ-RI
    Molecular point group: c1

    Geometry (in Angstrom), charge = -1, multiplicity = 1:

       Center              X                  Y                   Z               Mass
    ------------   -----------------  -----------------  -----------------  -----------------
         O            1.691740205011    -0.546465645609    -0.053195541463    15.994914619570
         O            0.376221905011     1.279815454391     0.014494458537    15.994914619570
         C            0.608486905011     0.026086454391     0.014422458537    12.000000000000
         C           -0.688695094989    -0.835137545609     0.014546458537    12.000000000000
         H           -0.680271094989    -1.489232545609     0.899840458537     1.007825032230
         H           -0.680211094989    -1.489906545609    -0.870251541463     1.007825032230
         O           -1.836340094989     0.005844454391     0.014228458537    15.994914619570
         H           -1.360502094989     0.880822454391     0.013881458537     1.007825032230

  Basis Set: AUG-CC-PVTZ
    Blend: AUG-CC-PVTZ
  Basis Set: (AUG-CC-PVTZ AUX)
    Blend: AUG-CC-PVTZ-JKFIT
	 Reference Energy          =    -302.2286056388827546 [Eh]
	 Singles Energy            =      -0.0000000000000000 [Eh]
	 Same-Spin Energy          =      -0.2927696165236444 [Eh]
	 Opposite-Spin Energy      =      -0.8627834000590225 [Eh]
	 Correlation Energy        =      -1.1555530165826671 [Eh]
	 Total Energy              =    -303.3841586554653986 [Eh]

	 ================> DF-SCS-MP2 Energies <==================
	-----------------------------------------------------------
	 SCS Same-Spin Scale       =       0.3333333333333333 [-]
	 SCS Opposite-Spin Scale   =       1.2000000000000000 [-]
	 SCS Same-Spin Energy      =      -0.0975898721745481 [Eh]
	 SCS Opposite-Spin Energy  =      -1.0353400800708270 [Eh]
	 SCS Correlation Energy    =      -1.1329299522453751 [Eh]
	 SCS Total Energy          =    -303.3615355911281313 [Eh]
	-----------------------------------------------------------

  Dipole Moment: [D]
     X:    -2.1684      Y:    -1.3981      Z:     0.0827     Total:     2.5814

*** Psi4 exiting successfully. Buy a developer a beer!
