                               Psi4 1.3.2 release

  ==> Input File <==

--------------------------------------------------------------------------
#psi4
#
memory 32 gb

molecule  {
-1 1
  O        1.7349457    -0.6084846     0.0672654
  O        0.4095020     1.3165580     0.0001130
  C        0.6417670     0.0628290     0.0000410
  C       -0.6554150    -0.7983950     0.0001650
  H       -0.6469910    -1.4524900     0.8854590
  H       -0.6469310    -1.4531640    -0.8846330
  O       -1.8030600     0.0425870    -0.0001530
  H       -1.3272220     0.9175650    -0.0005000
units angstrom
no_reorient  #important for SAPT in psi4, default
symmetry c1  #important for SAPT in psi4, default
}

set PROPERTIES_ORIGIN ["COM"]
properties('MP2/aug-cc-pvtz', properties = ['dipole'])
--------------------------------------------------------------------------

    Molecular point group: c1
  Charge       = -1
  Multiplicity = 1
  Basis Set: AUG-CC-PVTZ
    Blend: AUG-CC-PVTZ
  Basis Set: (AUG-CC-PVTZ AUX)
    Blend: AUG-CC-PVTZ-JKFIT

    Orbital Energies [Eh]
    ---------------------

    Doubly Occupied:

       1A    -20.381002     2A    -20.328367     3A    -20.313505
       4A    -11.162178     5A    -11.107362     6A     -1.201475
       7A     -1.157525     8A     -1.083924     9A     -0.765676
      10A     -0.562832    11A     -0.495553    12A     -0.466563
      13A     -0.440723    14A     -0.394220    15A     -0.367873
      16A     -0.351897    17A     -0.278772    18A     -0.242478
      19A     -0.216675    20A     -0.213910

  @DF-RHF Final Energy:  -302.22266220928105

   => Energetics <=

    Nuclear Repulsion Energy =            169.0570941812528645
    One-Electron Energy =                -759.4944931893051034
    Two-Electron Energy =                 288.2147367987711846
    Total Energy =                       -302.2226622092810544
  Basis Set: (AUG-CC-PVTZ AUX)
    Blend: AUG-CC-PVTZ-RI
    Molecular point group: c1

    Geometry (in Angstrom), charge = -1, multiplicity = 1:

       Center              X                  Y                   Z               Mass
    ------------   -----------------  -----------------  -----------------  -----------------
         O            1.699549091277    -0.624167030035     0.052892773917    15.994914619570
         O            0.374105391277     1.300875569965    -0.014259626083    15.994914619570
         C            0.606370391277     0.047146569965    -0.014331626083    12.000000000000
         C           -0.690811608723    -0.814077430035    -0.014207626083    12.000000000000
         H           -0.682387608723    -1.468172430035     0.871086373917     1.007825032230
         H           -0.682327608723    -1.468846430035    -0.899005626083     1.007825032230
         O           -1.838456608723     0.026904569965    -0.014525626083    15.994914619570
         H           -1.362618608723     0.901882569965    -0.014872626083     1.007825032230

  Basis Set: AUG-CC-PVTZ
    Blend: AUG-CC-PVTZ
  Basis Set: (AUG-CC-PVTZ AUX)
    Blend: AUG-CC-PVTZ-JKFIT
	 Reference Energy          =    -302.2226622092810544 [Eh]
	 Singles Energy            =      -0.0000000000000000 [Eh]
	 Same-Spin Energy          =      -0.2939124834376760 [Eh]
	 Opposite-Spin Energy      =      -0.8658410760264074 [Eh]
	 Correlation Energy        =      -1.1597535594640833 [Eh]
	 Total Energy              =    -303.3824157687451475 [Eh]

	 ================> DF-SCS-MP2 Energies <==================
	-----------------------------------------------------------
	 SCS Same-Spin Scale       =       0.3333333333333333 [-]
	 SCS Opposite-Spin Scale   =       1.2000000000000000 [-]
	 SCS Same-Spin Energy      =      -0.0979708278125587 [Eh]
	 SCS Opposite-Spin Energy  =      -1.0390092912316888 [Eh]
	 SCS Correlation Energy    =      -1.1369801190442475 [Eh]
	 SCS Total Energy          =    -303.3596423283253216 [Eh]
	-----------------------------------------------------------

  Dipole Moment: [D]
     X:    -2.3969      Y:    -1.0388      Z:    -0.0898     Total:     2.6138

*** Psi4 exiting successfully. Buy a developer a beer!
