                               Psi4 1.3.2 release

  ==> Input File <==

--------------------------------------------------------------------------
#psi4
#
memory 32 gb

molecule  {
-1 1
  O        1.7034977    -0.4123680    -0.2020894
  O        0.4095020     1.3165580     0.0001130
  C        0.6417670     0.0628290     0.0000410
  C       -0.6554150    -0.7983950     0.0001650
  H       -0.6469910    -1.4524900     0.8854590
  H       -0.6469310    -1.4531640    -0.8846330
  O       -1.8030600     0.0425870    -0.0001530
  H       -1.3272220     0.9175650    -0.0005000
units angstrom
no_reorient  #important for SAPT in psi4, default
symmetry c1  #important for SAPT in psi4, default
}

set PROPERTIES_ORIGIN ["COM"]
properties('MP2/aug-cc-pvtz', properties = ['dipole'])
--------------------------------------------------------------------------

    Molecular point group: c1
  Charge       = -1
  Multiplicity = 1
  Basis Set: AUG-CC-PVTZ
    Blend: AUG-CC-PVTZ
  Basis Set: (AUG-CC-PVTZ AUX)
    Blend: AUG-CC-PVTZ-JKFIT

    Orbital Energies [Eh]
    ---------------------

    Doubly Occupied:

       1A    -20.377718     2A    -20.309458     3A    -20.298128
       4A    -11.137439     5A    -11.106922     6A     -1.220263
       7A     -1.175440     8A     -1.082773     9A     -0.765946
      10A     -0.557434    11A     -0.493795    12A     -0.467608
      13A     -0.442077    14A     -0.396063    15A     -0.379027
      16A     -0.367390    17A     -0.276151    18A     -0.225443
      19A     -0.212888    20A     -0.210528

  @DF-RHF Final Energy:  -302.22174062585270

   => Energetics <=

    Nuclear Repulsion Energy =            172.0645152446491863
    One-Electron Energy =                -765.5675310064003725
    Two-Electron Energy =                 291.2812751358984542
    Total Energy =                       -302.2217406258527035
  Basis Set: (AUG-CC-PVTZ AUX)
    Blend: AUG-CC-PVTZ-RI
    Molecular point group: c1

    Geometry (in Angstrom), charge = -1, multiplicity = 1:

       Center              X                  Y                   Z               Mass
    ------------   -----------------  -----------------  -----------------  -----------------
         O            1.674807130721    -0.469870757409    -0.159024226755    15.994914619570
         O            0.380811430721     1.259055242591     0.043178173245    15.994914619570
         C            0.613076430721     0.005326242591     0.043106173245    12.000000000000
         C           -0.684105569279    -0.855897757409     0.043230173245    12.000000000000
         H           -0.675681569279    -1.509992757409     0.928524173245     1.007825032230
         H           -0.675621569279    -1.510666757409    -0.841567826755     1.007825032230
         O           -1.831750569279    -0.014915757409     0.042912173245    15.994914619570
         H           -1.355912569279     0.860062242591     0.042565173245     1.007825032230

  Basis Set: AUG-CC-PVTZ
    Blend: AUG-CC-PVTZ
  Basis Set: (AUG-CC-PVTZ AUX)
    Blend: AUG-CC-PVTZ-JKFIT
	 Reference Energy          =    -302.2217406258527035 [Eh]
	 Singles Energy            =      -0.0000000000000000 [Eh]
	 Same-Spin Energy          =      -0.2920474696404267 [Eh]
	 Opposite-Spin Energy      =      -0.8607213580555269 [Eh]
	 Correlation Energy        =      -1.1527688276959536 [Eh]
	 Total Energy              =    -303.3745094535486828 [Eh]

	 ================> DF-SCS-MP2 Energies <==================
	-----------------------------------------------------------
	 SCS Same-Spin Scale       =       0.3333333333333333 [-]
	 SCS Opposite-Spin Scale   =       1.2000000000000000 [-]
	 SCS Same-Spin Energy      =      -0.0973491565468089 [Eh]
	 SCS Opposite-Spin Energy  =      -1.0328656296666321 [Eh]
	 SCS Correlation Energy    =      -1.1302147862134411 [Eh]
	 SCS Total Energy          =    -303.3519554120661610 [Eh]
	-----------------------------------------------------------

  Dipole Moment: [D]
     X:    -1.9598      Y:    -1.7240      Z:     0.2260     Total:     2.6199

*** Psi4 exiting successfully. Buy a developer a beer!
