                               Psi4 1.3.2 release

  ==> Input File <==

--------------------------------------------------------------------------
#psi4
#
memory 32 gb

molecule  {
-1 1
  O        1.7335552    -0.5836886     0.0335598
  O        0.4095020     1.3165580     0.0001130
  C        0.6417670     0.0628290     0.0000410
  C       -0.6554150    -0.7983950     0.0001650
  H       -0.6469910    -1.4524900     0.8854590
  H       -0.6469310    -1.4531640    -0.8846330
  O       -1.8030600     0.0425870    -0.0001530
  H       -1.3272220     0.9175650    -0.0005000
units angstrom
no_reorient  #important for SAPT in psi4, default
symmetry c1  #important for SAPT in psi4, default
}

set PROPERTIES_ORIGIN ["COM"]
properties('MP2/aug-cc-pvtz', properties = ['dipole'])
--------------------------------------------------------------------------

    Molecular point group: c1
  Charge       = -1
  Multiplicity = 1
  Basis Set: AUG-CC-PVTZ
    Blend: AUG-CC-PVTZ
  Basis Set: (AUG-CC-PVTZ AUX)
    Blend: AUG-CC-PVTZ-JKFIT

    Orbital Energies [Eh]
    ---------------------

    Doubly Occupied:

       1A    -20.380500     2A    -20.324419     3A    -20.313229
       4A    -11.158902     5A    -11.107139     6A     -1.201869
       7A     -1.159917     8A     -1.086196     9A     -0.765612
      10A     -0.561932    11A     -0.495004    12A     -0.466575
      13A     -0.441047    14A     -0.394678    15A     -0.369351
      16A     -0.353553    17A     -0.278312    18A     -0.240696
      19A     -0.216676    20A     -0.214230

  @DF-RHF Final Energy:  -302.22533950432256

   => Energetics <=

    Nuclear Repulsion Energy =            169.4462095133838204
    One-Electron Energy =                -760.2834234878844200
    Two-Electron Energy =                 288.6118744701780656
    Total Energy =                       -302.2253395043225623
  Basis Set: (AUG-CC-PVTZ AUX)
    Blend: AUG-CC-PVTZ-RI
    Molecular point group: c1

    Geometry (in Angstrom), charge = -1, multiplicity = 1:

       Center              X                  Y                   Z               Mass
    ------------   -----------------  -----------------  -----------------  -----------------
         O            1.698455104500    -0.604658582631     0.026374628861    15.994914619570
         O            0.374401904500     1.295588017369    -0.007072171139    15.994914619570
         C            0.606666904500     0.041859017369    -0.007144171139    12.000000000000
         C           -0.690515095500    -0.819364982631    -0.007020171139    12.000000000000
         H           -0.682091095500    -1.473459982631     0.878273828861     1.007825032230
         H           -0.682031095500    -1.474133982631    -0.891818171139     1.007825032230
         O           -1.838160095500     0.021617017369    -0.007338171139    15.994914619570
         H           -1.362322095500     0.896595017369    -0.007685171139     1.007825032230

  Basis Set: AUG-CC-PVTZ
    Blend: AUG-CC-PVTZ
  Basis Set: (AUG-CC-PVTZ AUX)
    Blend: AUG-CC-PVTZ-JKFIT
	 Reference Energy          =    -302.2253395043225623 [Eh]
	 Singles Energy            =      -0.0000000000000000 [Eh]
	 Same-Spin Energy          =      -0.2935943580857142 [Eh]
	 Opposite-Spin Energy      =      -0.8649956527181124 [Eh]
	 Correlation Energy        =      -1.1585900108038265 [Eh]
	 Total Energy              =    -303.3839295151263968 [Eh]

	 ================> DF-SCS-MP2 Energies <==================
	-----------------------------------------------------------
	 SCS Same-Spin Scale       =       0.3333333333333333 [-]
	 SCS Opposite-Spin Scale   =       1.2000000000000000 [-]
	 SCS Same-Spin Energy      =      -0.0978647860285714 [Eh]
	 SCS Opposite-Spin Energy  =      -1.0379947832617349 [Eh]
	 SCS Correlation Energy    =      -1.1358595692903062 [Eh]
	 SCS Total Energy          =    -303.3611990736128519 [Eh]
	-----------------------------------------------------------

  Dipole Moment: [D]
     X:    -2.3387      Y:    -1.1312      Z:    -0.0439     Total:     2.5983

*** Psi4 exiting successfully. Buy a developer a beer!
