                               Psi4 1.3.2 release

  ==> Input File <==

--------------------------------------------------------------------------
#psi4
#
memory 32 gb

molecule  {
-1 1
  O        1.7332255    -0.7081714     0.2017809
  O        0.4095020     1.3165580     0.0001130
  C        0.6417670     0.0628290     0.0000410
  C       -0.6554150    -0.7983950     0.0001650
  H       -0.6469910    -1.4524900     0.8854590
  H       -0.6469310    -1.4531640    -0.8846330
  O       -1.8030600     0.0425870    -0.0001530
  H       -1.3272220     0.9175650    -0.0005000
units angstrom
no_reorient  #important for SAPT in psi4, default
symmetry c1  #important for SAPT in psi4, default
}

set PROPERTIES_ORIGIN ["COM"]
properties('MP2/aug-cc-pvtz', properties = ['dipole'])
--------------------------------------------------------------------------

    Molecular point group: c1
  Charge       = -1
  Multiplicity = 1
  Basis Set: AUG-CC-PVTZ
    Blend: AUG-CC-PVTZ
  Basis Set: (AUG-CC-PVTZ AUX)
    Blend: AUG-CC-PVTZ-JKFIT

    Orbital Energies [Eh]
    ---------------------

    Doubly Occupied:

       1A    -20.383105     2A    -20.344181     3A    -20.314029
       4A    -11.174940     5A    -11.108507     6A     -1.202607
       7A     -1.153554     8A     -1.066077     9A     -0.766148
      10A     -0.566912    11A     -0.498734    12A     -0.466748
      13A     -0.439475    14A     -0.391439    15A     -0.362632
      16A     -0.346934    17A     -0.280809    18A     -0.247169
      19A     -0.214765    20A     -0.211652

  @DF-RHF Final Energy:  -302.20478070589172

   => Energetics <=

    Nuclear Repulsion Energy =            167.5018918336177762
    One-Electron Energy =                -756.3325117805173932
    Two-Electron Energy =                 286.6258392410078386
    Total Energy =                       -302.2047807058917215
  Basis Set: (AUG-CC-PVTZ AUX)
    Blend: AUG-CC-PVTZ-RI
    Molecular point group: c1

    Geometry (in Angstrom), charge = -1, multiplicity = 1:

       Center              X                  Y                   Z               Mass
    ------------   -----------------  -----------------  -----------------  -----------------
         O            1.698195710440    -0.702596401490     0.158723898158    15.994914619570
         O            0.374472210440     1.322132998510    -0.042944001842    15.994914619570
         C            0.606737210440     0.068403998510    -0.043016001842    12.000000000000
         C           -0.690444789560    -0.792820001490    -0.042892001842    12.000000000000
         H           -0.682020789560    -1.446915001490     0.842401998158     1.007825032230
         H           -0.681960789560    -1.447589001490    -0.927690001842     1.007825032230
         O           -1.838089789560     0.048161998510    -0.043210001842    15.994914619570
         H           -1.362251789560     0.923139998510    -0.043557001842     1.007825032230

  Basis Set: AUG-CC-PVTZ
    Blend: AUG-CC-PVTZ
  Basis Set: (AUG-CC-PVTZ AUX)
    Blend: AUG-CC-PVTZ-JKFIT
	 Reference Energy          =    -302.2047807058917215 [Eh]
	 Singles Energy            =      -0.0000000000000000 [Eh]
	 Same-Spin Energy          =      -0.2953204822177713 [Eh]
	 Opposite-Spin Energy      =      -0.8696442346647479 [Eh]
	 Correlation Energy        =      -1.1649647168825192 [Eh]
	 Total Energy              =    -303.3697454227742583 [Eh]

	 ================> DF-SCS-MP2 Energies <==================
	-----------------------------------------------------------
	 SCS Same-Spin Scale       =       0.3333333333333333 [-]
	 SCS Opposite-Spin Scale   =       1.2000000000000000 [-]
	 SCS Same-Spin Energy      =      -0.0984401607392571 [Eh]
	 SCS Opposite-Spin Energy  =      -1.0435730815976976 [Eh]
	 SCS Correlation Energy    =      -1.1420132423369547 [Eh]
	 SCS Total Energy          =    -303.3467939482286511 [Eh]
	-----------------------------------------------------------

  Dipole Moment: [D]
     X:    -2.6321      Y:    -0.6548      Z:    -0.2910     Total:     2.7279

*** Psi4 exiting successfully. Buy a developer a beer!
