                               Psi4 1.3.2 release

  ==> Input File <==

--------------------------------------------------------------------------
#psi4
#
memory 32 gb

molecule  {
-1 1
  O        1.7157034    -0.4608399    -0.1349155
  O        0.4095020     1.3165580     0.0001130
  C        0.6417670     0.0628290     0.0000410
  C       -0.6554150    -0.7983950     0.0001650
  H       -0.6469910    -1.4524900     0.8854590
  H       -0.6469310    -1.4531640    -0.8846330
  O       -1.8030600     0.0425870    -0.0001530
  H       -1.3272220     0.9175650    -0.0005000
units angstrom
no_reorient  #important for SAPT in psi4, default
symmetry c1  #important for SAPT in psi4, default
}

set PROPERTIES_ORIGIN ["COM"]
properties('MP2/aug-cc-pvtz', properties = ['dipole'])
--------------------------------------------------------------------------

    Molecular point group: c1
  Charge       = -1
  Multiplicity = 1
  Basis Set: AUG-CC-PVTZ
    Blend: AUG-CC-PVTZ
  Basis Set: (AUG-CC-PVTZ AUX)
    Blend: AUG-CC-PVTZ-JKFIT

    Orbital Energies [Eh]
    ---------------------

    Doubly Occupied:

       1A    -20.378346     2A    -20.310858     3A    -20.305293
       4A    -11.143108     5A    -11.106693     6A     -1.212110
       7A     -1.172771     8A     -1.086099     9A     -0.765700
      10A     -0.558373    11A     -0.493773    12A     -0.467140
      13A     -0.442075    14A     -0.395846    15A     -0.376619
      16A     -0.363353    17A     -0.276556    18A     -0.229747
      19A     -0.214130    20A     -0.213392

  @DF-RHF Final Energy:  -302.22673556432881

   => Energetics <=

    Nuclear Repulsion Energy =            171.3463188136765325
    One-Electron Energy =                -764.1221439729116582
    Two-Electron Energy =                 290.5490895949063770
    Total Energy =                       -302.2267355643288056
  Basis Set: (AUG-CC-PVTZ AUX)
    Blend: AUG-CC-PVTZ-RI
    Molecular point group: c1

    Geometry (in Angstrom), charge = -1, multiplicity = 1:

       Center              X                  Y                   Z               Mass
    ------------   -----------------  -----------------  -----------------  -----------------
         O            1.684410060890    -0.508006404759    -0.106174634279    15.994914619570
         O            0.378208660890     1.269391495241     0.028853865721    15.994914619570
         C            0.610473660890     0.015662495241     0.028781865721    12.000000000000
         C           -0.686708339110    -0.845561504759     0.028905865721    12.000000000000
         H           -0.678284339110    -1.499656504759     0.914199865721     1.007825032230
         H           -0.678224339110    -1.500330504759    -0.855892134279     1.007825032230
         O           -1.834353339110    -0.004579504759     0.028587865721    15.994914619570
         H           -1.358515339110     0.870398495241     0.028240865721     1.007825032230

  Basis Set: AUG-CC-PVTZ
    Blend: AUG-CC-PVTZ
  Basis Set: (AUG-CC-PVTZ AUX)
    Blend: AUG-CC-PVTZ-JKFIT
	 Reference Energy          =    -302.2267355643288056 [Eh]
	 Singles Energy            =      -0.0000000000000000 [Eh]
	 Same-Spin Energy          =      -0.2923492687538223 [Eh]
	 Opposite-Spin Energy      =      -0.8616144872721281 [Eh]
	 Correlation Energy        =      -1.1539637560259504 [Eh]
	 Total Energy              =    -303.3806993203547790 [Eh]

	 ================> DF-SCS-MP2 Energies <==================
	-----------------------------------------------------------
	 SCS Same-Spin Scale       =       0.3333333333333333 [-]
	 SCS Opposite-Spin Scale   =       1.2000000000000000 [-]
	 SCS Same-Spin Energy      =      -0.0974497562512741 [Eh]
	 SCS Opposite-Spin Energy  =      -1.0339373847265536 [Eh]
	 SCS Correlation Energy    =      -1.1313871409778278 [Eh]
	 SCS Total Energy          =    -303.3581227053066414 [Eh]
	-----------------------------------------------------------

  Dipole Moment: [D]
     X:    -2.0606      Y:    -1.5659      Z:     0.1579     Total:     2.5929

*** Psi4 exiting successfully. Buy a developer a beer!
