                               Psi4 1.3.2 release

  ==> Input File <==

--------------------------------------------------------------------------
#psi4
#
memory 32 gb

molecule  {
-1 1
  O        1.7285917    -0.5343003    -0.0338717
  O        0.4095020     1.3165580     0.0001130
  C        0.6417670     0.0628290     0.0000410
  C       -0.6554150    -0.7983950     0.0001650
  H       -0.6469910    -1.4524900     0.8854590
  H       -0.6469310    -1.4531640    -0.8846330
  O       -1.8030600     0.0425870    -0.0001530
  H       -1.3272220     0.9175650    -0.0005000
units angstrom
no_reorient  #important for SAPT in psi4, default
symmetry c1  #important for SAPT in psi4, default
}

set PROPERTIES_ORIGIN ["COM"]
properties('MP2/aug-cc-pvtz', properties = ['dipole'])
--------------------------------------------------------------------------

    Molecular point group: c1
  Charge       = -1
  Multiplicity = 1
  Basis Set: AUG-CC-PVTZ
    Blend: AUG-CC-PVTZ
  Basis Set: (AUG-CC-PVTZ AUX)
    Blend: AUG-CC-PVTZ-JKFIT

    Orbital Energies [Eh]
    ---------------------

    Doubly Occupied:

       1A    -20.379556     2A    -20.316613     3A    -20.312480
       4A    -11.152404     5A    -11.106809     6A     -1.204068
       7A     -1.165560     8A     -1.088115     9A     -0.765562
      10A     -0.560310    11A     -0.494226    12A     -0.466696
      13A     -0.441609    14A     -0.395332    15A     -0.372354
      16A     -0.357254    17A     -0.277491    18A     -0.236607
      19A     -0.216026    20A     -0.214556

  @DF-RHF Final Energy:  -302.22832599162797

   => Energetics <=

    Nuclear Repulsion Energy =            170.2184944032560168
    One-Electron Energy =                -761.8463849702783364
    Two-Electron Energy =                 289.3995645753943222
    Total Energy =                       -302.2283259916279690
  Basis Set: (AUG-CC-PVTZ AUX)
    Blend: AUG-CC-PVTZ-RI
    Molecular point group: c1

    Geometry (in Angstrom), charge = -1, multiplicity = 1:

       Center              X                  Y                   Z               Mass
    ------------   -----------------  -----------------  -----------------  -----------------
         O            1.694550031961    -0.565801950397    -0.026677632434    15.994914619570
         O            0.375460331961     1.285056349603     0.007307067566    15.994914619570
         C            0.607725331961     0.031327349603     0.007235067566    12.000000000000
         C           -0.689456668039    -0.829896650397     0.007359067566    12.000000000000
         H           -0.681032668039    -1.483991650397     0.892653067566     1.007825032230
         H           -0.680972668039    -1.484665650397    -0.877438932434     1.007825032230
         O           -1.837101668039     0.011085349603     0.007041067566    15.994914619570
         H           -1.361263668039     0.886063349603     0.006694067566     1.007825032230

  Basis Set: AUG-CC-PVTZ
    Blend: AUG-CC-PVTZ
  Basis Set: (AUG-CC-PVTZ AUX)
    Blend: AUG-CC-PVTZ-JKFIT
	 Reference Energy          =    -302.2283259916279690 [Eh]
	 Singles Energy            =      -0.0000000000000000 [Eh]
	 Same-Spin Energy          =      -0.2930205510751953 [Eh]
	 Opposite-Spin Energy      =      -0.8634630758297978 [Eh]
	 Correlation Energy        =      -1.1564836269049930 [Eh]
	 Total Energy              =    -303.3848096185329837 [Eh]

	 ================> DF-SCS-MP2 Energies <==================
	-----------------------------------------------------------
	 SCS Same-Spin Scale       =       0.3333333333333333 [-]
	 SCS Opposite-Spin Scale   =       1.2000000000000000 [-]
	 SCS Same-Spin Energy      =      -0.0976735170250651 [Eh]
	 SCS Opposite-Spin Energy  =      -1.0361556909957572 [Eh]
	 SCS Correlation Energy    =      -1.1338292080208223 [Eh]
	 SCS Total Energy          =    -303.3621551996487824 [Eh]
	-----------------------------------------------------------

  Dipole Moment: [D]
     X:    -2.2243      Y:    -1.3110      Z:     0.0423     Total:     2.5823

*** Psi4 exiting successfully. Buy a developer a beer!
