                               Psi4 1.3.2 release

  ==> Input File <==

--------------------------------------------------------------------------
#psi4
#
memory 32 gb

molecule  {
-1 1
  C        1.3468810    -0.0622760     0.0000680
  C       -0.2128060     0.0024820    -0.0005800
  O       -0.8134880    -1.1094890     0.0001520
  O       -0.6853389     1.1759023    -0.2498500
  H        1.7383940     0.4614830     0.8803630
  H        1.7085910    -1.0953120     0.0003270
  H        1.7390990     0.4612900    -0.8800270
units angstrom
no_reorient  #important for SAPT in psi4, default
symmetry c1  #important for SAPT in psi4, default
}

set PROPERTIES_ORIGIN ["COM"]
properties('MP2/aug-cc-pvtz', properties = ['dipole'])
--------------------------------------------------------------------------

    Molecular point group: c1
  Charge       = -1
  Multiplicity = 1
  Basis Set: AUG-CC-PVTZ
    Blend: AUG-CC-PVTZ
  Basis Set: (AUG-CC-PVTZ AUX)
    Blend: AUG-CC-PVTZ-JKFIT

    Orbital Energies [Eh]
    ---------------------

    Doubly Occupied:

       1A    -20.294334     2A    -20.285999     3A    -11.139288
       4A    -11.049006     5A     -1.150571     6A     -1.052288
       7A     -0.789738     8A     -0.512713     9A     -0.413726
      10A     -0.408630    11A     -0.407578    12A     -0.356827
      13A     -0.312274    14A     -0.203541    15A     -0.192622
      16A     -0.186900

  @DF-RHF Final Energy:  -227.32079747664292

   => Energetics <=

    Nuclear Repulsion Energy =            110.6480227266185210
    One-Electron Energy =                -538.4255676799903085
    Two-Electron Energy =                 200.4567474767288502
    Total Energy =                       -227.3207974766429231
  Basis Set: (AUG-CC-PVTZ AUX)
    Blend: AUG-CC-PVTZ-RI
    Molecular point group: c1

    Geometry (in Angstrom), charge = -1, multiplicity = 1:

       Center              X                  Y                   Z               Mass
    ------------   -----------------  -----------------  -----------------  -----------------
         C            1.433946841820    -0.065171244416     0.067838717937    12.000000000000
         C           -0.125740158180    -0.000413244416     0.067190717937    12.000000000000
         O           -0.726422158180    -1.112384244416     0.067922717937    15.994914619570
         O           -0.598273058180     1.173007055584    -0.182079282063    15.994914619570
         H            1.825459841820     0.458587755584     0.948133717937     1.007825032230
         H            1.795656841820    -1.098207244416     0.068097717937     1.007825032230
         H            1.826164841820     0.458394755584    -0.812256282063     1.007825032230

  Basis Set: AUG-CC-PVTZ
    Blend: AUG-CC-PVTZ
  Basis Set: (AUG-CC-PVTZ AUX)
    Blend: AUG-CC-PVTZ-JKFIT
	 Reference Energy          =    -227.3207974766429231 [Eh]
	 Singles Energy            =      -0.0000000000000000 [Eh]
	 Same-Spin Energy          =      -0.2235740003420170 [Eh]
	 Opposite-Spin Energy      =      -0.6772525566341318 [Eh]
	 Correlation Energy        =      -0.9008265569761488 [Eh]
	 Total Energy              =    -228.2216240336190651 [Eh]

	 ================> DF-SCS-MP2 Energies <==================
	-----------------------------------------------------------
	 SCS Same-Spin Scale       =       0.3333333333333333 [-]
	 SCS Opposite-Spin Scale   =       1.2000000000000000 [-]
	 SCS Same-Spin Energy      =      -0.0745246667806723 [Eh]
	 SCS Opposite-Spin Energy  =      -0.8127030679609580 [Eh]
	 SCS Correlation Energy    =      -0.8872277347416304 [Eh]
	 SCS Total Energy          =    -228.2080252113845518 [Eh]
	-----------------------------------------------------------

  Dipole Moment: [D]
     X:     3.2875      Y:    -0.3185      Z:     0.2821     Total:     3.3149

*** Psi4 exiting successfully. Buy a developer a beer!
