                               Psi4 1.3.2 release

  ==> Input File <==

--------------------------------------------------------------------------
#psi4
#
memory 32 gb

molecule  {
-1 1
  C        1.3468810    -0.0622760     0.0000680
  C       -0.2128060     0.0024820    -0.0005800
  O       -0.8134880    -1.1094890     0.0001520
  O       -0.6853330     1.1759021    -0.0998500
  H        1.7383940     0.4614830     0.8803630
  H        1.7085910    -1.0953120     0.0003270
  H        1.7390990     0.4612900    -0.8800270
units angstrom
no_reorient  #important for SAPT in psi4, default
symmetry c1  #important for SAPT in psi4, default
}

set PROPERTIES_ORIGIN ["COM"]
properties('MP2/aug-cc-pvtz', properties = ['dipole'])
--------------------------------------------------------------------------

    Molecular point group: c1
  Charge       = -1
  Multiplicity = 1
  Basis Set: AUG-CC-PVTZ
    Blend: AUG-CC-PVTZ
  Basis Set: (AUG-CC-PVTZ AUX)
    Blend: AUG-CC-PVTZ-JKFIT

    Orbital Energies [Eh]
    ---------------------

    Doubly Occupied:

       1A    -20.290607     2A    -20.286789     3A    -11.135850
       4A    -11.047041     5A     -1.154911     6A     -1.058037
       7A     -0.788518     8A     -0.511228     9A     -0.413922
      10A     -0.410725    11A     -0.407677    12A     -0.358524
      13A     -0.314449    14A     -0.203869    15A     -0.192025
      16A     -0.188497

  @DF-RHF Final Energy:  -227.32611168017928

   => Energetics <=

    Nuclear Repulsion Energy =            111.0986741111016585
    One-Electron Energy =                -539.3242346794851301
    Two-Electron Energy =                 200.8994488882041765
    Total Energy =                       -227.3261116801792809
  Basis Set: (AUG-CC-PVTZ AUX)
    Blend: AUG-CC-PVTZ-RI
    Molecular point group: c1

    Geometry (in Angstrom), charge = -1, multiplicity = 1:

       Center              X                  Y                   Z               Mass
    ------------   -----------------  -----------------  -----------------  -----------------
         C            1.433945242689    -0.065171190209     0.027182848554    12.000000000000
         C           -0.125741757311    -0.000413190209     0.026534848554    12.000000000000
         O           -0.726423757311    -1.112384190209     0.027266848554    15.994914619570
         O           -0.598268757311     1.173006909791    -0.072735151446    15.994914619570
         H            1.825458242689     0.458587809791     0.907477848554     1.007825032230
         H            1.795655242689    -1.098207190209     0.027441848554     1.007825032230
         H            1.826163242689     0.458394809791    -0.852912151446     1.007825032230

  Basis Set: AUG-CC-PVTZ
    Blend: AUG-CC-PVTZ
  Basis Set: (AUG-CC-PVTZ AUX)
    Blend: AUG-CC-PVTZ-JKFIT
	 Reference Energy          =    -227.3261116801792809 [Eh]
	 Singles Energy            =      -0.0000000000000000 [Eh]
	 Same-Spin Energy          =      -0.2230785453678655 [Eh]
	 Opposite-Spin Energy      =      -0.6759291163285281 [Eh]
	 Correlation Energy        =      -0.8990076616963936 [Eh]
	 Total Energy              =    -228.2251193418756827 [Eh]

	 ================> DF-SCS-MP2 Energies <==================
	-----------------------------------------------------------
	 SCS Same-Spin Scale       =       0.3333333333333333 [-]
	 SCS Opposite-Spin Scale   =       1.2000000000000000 [-]
	 SCS Same-Spin Energy      =      -0.0743595151226218 [Eh]
	 SCS Opposite-Spin Energy  =      -0.8111149395942338 [Eh]
	 SCS Correlation Energy    =      -0.8854744547168556 [Eh]
	 SCS Total Energy          =    -228.2115861348961232 [Eh]
	-----------------------------------------------------------

  Dipole Moment: [D]
     X:     3.2471      Y:    -0.1977      Z:     0.1077     Total:     3.2549

*** Psi4 exiting successfully. Buy a developer a beer!
