                               Psi4 1.3.2 release

  ==> Input File <==

--------------------------------------------------------------------------
#psi4
#
memory 32 gb

molecule  {
-1 1
  C        1.3468810    -0.0622760     0.0000680
  C       -0.2128060     0.0024820    -0.0005800
  O       -0.8134880    -1.1094890     0.0001520
  O       -0.6853349     1.1759022    -0.1498500
  H        1.7383940     0.4614830     0.8803630
  H        1.7085910    -1.0953120     0.0003270
  H        1.7390990     0.4612900    -0.8800270
units angstrom
no_reorient  #important for SAPT in psi4, default
symmetry c1  #important for SAPT in psi4, default
}

set PROPERTIES_ORIGIN ["COM"]
properties('MP2/aug-cc-pvtz', properties = ['dipole'])
--------------------------------------------------------------------------

    Molecular point group: c1
  Charge       = -1
  Multiplicity = 1
  Basis Set: AUG-CC-PVTZ
    Blend: AUG-CC-PVTZ
  Basis Set: (AUG-CC-PVTZ AUX)
    Blend: AUG-CC-PVTZ-JKFIT

    Orbital Energies [Eh]
    ---------------------

    Doubly Occupied:

       1A    -20.291499     2A    -20.286599     3A    -11.136685
       4A    -11.047518     5A     -1.153746     6A     -1.056744
       7A     -0.788810     8A     -0.511574     9A     -0.413850
      10A     -0.410195    11A     -0.407638    12A     -0.358140
      13A     -0.313902    14A     -0.203781    15A     -0.192206
      16A     -0.188124

  @DF-RHF Final Energy:  -227.32489738798284

   => Energetics <=

    Nuclear Repulsion Energy =            110.9899440970868767
    One-Electron Energy =                -539.1076576521202242
    Two-Electron Energy =                 200.7928161670504892
    Total Energy =                       -227.3248973879828441
  Basis Set: (AUG-CC-PVTZ AUX)
    Blend: AUG-CC-PVTZ-RI
    Molecular point group: c1

    Geometry (in Angstrom), charge = -1, multiplicity = 1:

       Center              X                  Y                   Z               Mass
    ------------   -----------------  -----------------  -----------------  -----------------
         C            1.433945757663    -0.065171217312     0.040734805015    12.000000000000
         C           -0.125741242337    -0.000413217312     0.040086805015    12.000000000000
         O           -0.726423242337    -1.112384217312     0.040818805015    15.994914619570
         O           -0.598270142337     1.173006982688    -0.109183194985    15.994914619570
         H            1.825458757663     0.458587782688     0.921029805015     1.007825032230
         H            1.795655757663    -1.098207217312     0.040993805015     1.007825032230
         H            1.826163757663     0.458394782688    -0.839360194985     1.007825032230

  Basis Set: AUG-CC-PVTZ
    Blend: AUG-CC-PVTZ
  Basis Set: (AUG-CC-PVTZ AUX)
    Blend: AUG-CC-PVTZ-JKFIT
	 Reference Energy          =    -227.3248973879828441 [Eh]
	 Singles Energy            =      -0.0000000000000000 [Eh]
	 Same-Spin Energy          =      -0.2231976427854924 [Eh]
	 Opposite-Spin Energy      =      -0.6762456191408650 [Eh]
	 Correlation Energy        =      -0.8994432619263574 [Eh]
	 Total Energy              =    -228.2243406499092089 [Eh]

	 ================> DF-SCS-MP2 Energies <==================
	-----------------------------------------------------------
	 SCS Same-Spin Scale       =       0.3333333333333333 [-]
	 SCS Opposite-Spin Scale   =       1.2000000000000000 [-]
	 SCS Same-Spin Energy      =      -0.0743992142618308 [Eh]
	 SCS Opposite-Spin Energy  =      -0.8114947429690380 [Eh]
	 SCS Correlation Energy    =      -0.8858939572308688 [Eh]
	 SCS Total Energy          =    -228.2107913452137211 [Eh]
	-----------------------------------------------------------

  Dipole Moment: [D]
     X:     3.2569      Y:    -0.2268      Z:     0.1636     Total:     3.2689

*** Psi4 exiting successfully. Buy a developer a beer!
