                               Psi4 1.3.2 release

  ==> Input File <==

--------------------------------------------------------------------------
#psi4
#
memory 32 gb

molecule  {
-1 1
  C        1.3468810    -0.0622760     0.0000680
  C       -0.2128060     0.0024820    -0.0005800
  O       -0.8134880    -1.1094890     0.0001520
  O       -0.6853369     1.1759023    -0.1998500
  H        1.7383940     0.4614830     0.8803630
  H        1.7085910    -1.0953120     0.0003270
  H        1.7390990     0.4612900    -0.8800270
units angstrom
no_reorient  #important for SAPT in psi4, default
symmetry c1  #important for SAPT in psi4, default
}

set PROPERTIES_ORIGIN ["COM"]
properties('MP2/aug-cc-pvtz', properties = ['dipole'])
--------------------------------------------------------------------------

    Molecular point group: c1
  Charge       = -1
  Multiplicity = 1
  Basis Set: AUG-CC-PVTZ
    Blend: AUG-CC-PVTZ
  Basis Set: (AUG-CC-PVTZ AUX)
    Blend: AUG-CC-PVTZ-JKFIT

    Orbital Energies [Eh]
    ---------------------

    Doubly Occupied:

       1A    -20.292743     2A    -20.286335     3A    -11.137837
       4A    -11.048176     5A     -1.152255     6A     -1.054852
       7A     -0.789218     8A     -0.512066     9A     -0.413778
      10A     -0.409484    11A     -0.407601    12A     -0.357581
      13A     -0.313167    14A     -0.203667    15A     -0.192419
      16A     -0.187594

  @DF-RHF Final Energy:  -227.32314070901862

   => Energetics <=

    Nuclear Repulsion Energy =            110.8391973906356327
    One-Electron Energy =                -538.8071280168202293
    Two-Electron Energy =                 200.6447899171660083
    Total Energy =                       -227.3231407090186167
  Basis Set: (AUG-CC-PVTZ AUX)
    Blend: AUG-CC-PVTZ-RI
    Molecular point group: c1

    Geometry (in Angstrom), charge = -1, multiplicity = 1:

       Center              X                  Y                   Z               Mass
    ------------   -----------------  -----------------  -----------------  -----------------
         C            1.433946299742    -0.065171244416     0.054286761476    12.000000000000
         C           -0.125740700258    -0.000413244416     0.053638761476    12.000000000000
         O           -0.726422700258    -1.112384244416     0.054370761476    15.994914619570
         O           -0.598271600258     1.173007055584    -0.145631238524    15.994914619570
         H            1.825459299742     0.458587755584     0.934581761476     1.007825032230
         H            1.795656299742    -1.098207244416     0.054545761476     1.007825032230
         H            1.826164299742     0.458394755584    -0.825808238524     1.007825032230

  Basis Set: AUG-CC-PVTZ
    Blend: AUG-CC-PVTZ
  Basis Set: (AUG-CC-PVTZ AUX)
    Blend: AUG-CC-PVTZ-JKFIT
	 Reference Energy          =    -227.3231407090186167 [Eh]
	 Singles Energy            =      -0.0000000000000000 [Eh]
	 Same-Spin Energy          =      -0.2233633210359683 [Eh]
	 Opposite-Spin Energy      =      -0.6766875715413430 [Eh]
	 Correlation Energy        =      -0.9000508925773113 [Eh]
	 Total Energy              =    -228.2231916015959143 [Eh]

	 ================> DF-SCS-MP2 Energies <==================
	-----------------------------------------------------------
	 SCS Same-Spin Scale       =       0.3333333333333333 [-]
	 SCS Opposite-Spin Scale   =       1.2000000000000000 [-]
	 SCS Same-Spin Energy      =      -0.0744544403453228 [Eh]
	 SCS Opposite-Spin Energy  =      -0.8120250858496115 [Eh]
	 SCS Correlation Energy    =      -0.8864795261949343 [Eh]
	 SCS Total Energy          =    -228.2096202352135492 [Eh]
	-----------------------------------------------------------

  Dipole Moment: [D]
     X:     3.2704      Y:    -0.2672      Z:     0.2215     Total:     3.2888

*** Psi4 exiting successfully. Buy a developer a beer!
