                               Psi4 1.3.2 release

  ==> Input File <==

--------------------------------------------------------------------------
#psi4
#
memory 32 gb

molecule  {
-1 1
  C        1.3468810    -0.0622760     0.0000680
  C       -0.2128060     0.0024820    -0.0005800
  O       -0.8134880    -1.1094890     0.0001520
  O       -0.6853409     1.1759024    -0.2998500
  H        1.7383940     0.4614830     0.8803630
  H        1.7085910    -1.0953120     0.0003270
  H        1.7390990     0.4612900    -0.8800270
units angstrom
no_reorient  #important for SAPT in psi4, default
symmetry c1  #important for SAPT in psi4, default
}

set PROPERTIES_ORIGIN ["COM"]
properties('MP2/aug-cc-pvtz', properties = ['dipole'])
--------------------------------------------------------------------------

    Molecular point group: c1
  Charge       = -1
  Multiplicity = 1
  Basis Set: AUG-CC-PVTZ
    Blend: AUG-CC-PVTZ
  Basis Set: (AUG-CC-PVTZ AUX)
    Blend: AUG-CC-PVTZ-JKFIT

    Orbital Energies [Eh]
    ---------------------

    Doubly Occupied:

       1A    -20.296261     2A    -20.285595     3A    -11.141015
       4A    -11.049995     5A     -1.148842     6A     -1.048983
       7A     -0.790367     8A     -0.513519     9A     -0.413712
      10A     -0.407688    11A     -0.407583    12A     -0.355856
      13A     -0.311263    14A     -0.203420    15A     -0.192760
      16A     -0.186039

  @DF-RHF Final Energy:  -227.31782012657555

   => Energetics <=

    Nuclear Repulsion Energy =            110.4183621018793673
    One-Electron Energy =                -537.9665647117169556
    Two-Electron Energy =                 200.2303824832620194
    Total Energy =                       -227.3178201265755547
  Basis Set: (AUG-CC-PVTZ AUX)
    Blend: AUG-CC-PVTZ-RI
    Molecular point group: c1

    Geometry (in Angstrom), charge = -1, multiplicity = 1:

       Center              X                  Y                   Z               Mass
    ------------   -----------------  -----------------  -----------------  -----------------
         C            1.433947383898    -0.065171271520     0.081390674398    12.000000000000
         C           -0.125739616102    -0.000413271520     0.080742674398    12.000000000000
         O           -0.726421616102    -1.112384271520     0.081474674398    15.994914619570
         O           -0.598274516102     1.173007128480    -0.218527325602    15.994914619570
         H            1.825460383898     0.458587728480     0.961685674398     1.007825032230
         H            1.795657383898    -1.098207271520     0.081649674398     1.007825032230
         H            1.826165383898     0.458394728480    -0.798704325602     1.007825032230

  Basis Set: AUG-CC-PVTZ
    Blend: AUG-CC-PVTZ
  Basis Set: (AUG-CC-PVTZ AUX)
    Blend: AUG-CC-PVTZ-JKFIT
	 Reference Energy          =    -227.3178201265755547 [Eh]
	 Singles Energy            =      -0.0000000000000000 [Eh]
	 Same-Spin Energy          =      -0.2238275023811341 [Eh]
	 Opposite-Spin Energy      =      -0.6779371827224744 [Eh]
	 Correlation Energy        =      -0.9017646851036085 [Eh]
	 Total Energy              =    -228.2195848116791694 [Eh]

	 ================> DF-SCS-MP2 Energies <==================
	-----------------------------------------------------------
	 SCS Same-Spin Scale       =       0.3333333333333333 [-]
	 SCS Opposite-Spin Scale   =       1.2000000000000000 [-]
	 SCS Same-Spin Energy      =      -0.0746091674603780 [Eh]
	 SCS Opposite-Spin Energy  =      -0.8135246192669693 [Eh]
	 SCS Correlation Energy    =      -0.8881337867273473 [Eh]
	 SCS Total Energy          =    -228.2059539133028920 [Eh]
	-----------------------------------------------------------

  Dipole Moment: [D]
     X:     3.3078      Y:    -0.3802      Z:     0.3459     Total:     3.3475

*** Psi4 exiting successfully. Buy a developer a beer!
