                               Psi4 1.3.2 release

  ==> Input File <==

--------------------------------------------------------------------------
#psi4
#
memory 32 gb

molecule  {
-1 1
  C        1.3468810    -0.0622760     0.0000680
  C       -0.2128060     0.0024820    -0.0005800
  O       -0.8134880    -1.1094890     0.0001520
  O       -0.6853310     1.1759021    -0.0498500
  H        1.7383940     0.4614830     0.8803630
  H        1.7085910    -1.0953120     0.0003270
  H        1.7390990     0.4612900    -0.8800270
units angstrom
no_reorient  #important for SAPT in psi4, default
symmetry c1  #important for SAPT in psi4, default
}

set PROPERTIES_ORIGIN ["COM"]
properties('MP2/aug-cc-pvtz', properties = ['dipole'])
--------------------------------------------------------------------------

    Molecular point group: c1
  Charge       = -1
  Multiplicity = 1
  Basis Set: AUG-CC-PVTZ
    Blend: AUG-CC-PVTZ
  Basis Set: (AUG-CC-PVTZ AUX)
    Blend: AUG-CC-PVTZ-JKFIT

    Orbital Energies [Eh]
    ---------------------

    Doubly Occupied:

       1A    -20.290072     2A    -20.286903     3A    -11.135346
       4A    -11.046753     5A     -1.155649     6A     -1.058784
       7A     -0.788342     8A     -0.511023     9A     -0.413975
      10A     -0.411049    11A     -0.407705    12A     -0.358746
      13A     -0.314785    14A     -0.203924    15A     -0.191905
      16A     -0.188717

  @DF-RHF Final Energy:  -227.32681932421042

   => Energetics <=

    Nuclear Repulsion Energy =            111.1642156478898755
    One-Electron Energy =                -539.4547124321903766
    Two-Electron Energy =                 200.9636774600900821
    Total Energy =                       -227.3268193242104189
  Basis Set: (AUG-CC-PVTZ AUX)
    Blend: AUG-CC-PVTZ-RI
    Molecular point group: c1

    Geometry (in Angstrom), charge = -1, multiplicity = 1:

       Center              X                  Y                   Z               Mass
    ------------   -----------------  -----------------  -----------------  -----------------
         C            1.433944700611    -0.065171190209     0.013630892093    12.000000000000
         C           -0.125742299389    -0.000413190209     0.012982892093    12.000000000000
         O           -0.726424299389    -1.112384190209     0.013714892093    15.994914619570
         O           -0.598267299389     1.173006909791    -0.036287107907    15.994914619570
         H            1.825457700611     0.458587809791     0.893925892093     1.007825032230
         H            1.795654700611    -1.098207190209     0.013889892093     1.007825032230
         H            1.826162700611     0.458394809791    -0.866464107907     1.007825032230

  Basis Set: AUG-CC-PVTZ
    Blend: AUG-CC-PVTZ
  Basis Set: (AUG-CC-PVTZ AUX)
    Blend: AUG-CC-PVTZ-JKFIT
	 Reference Energy          =    -227.3268193242104189 [Eh]
	 Singles Energy            =      -0.0000000000000000 [Eh]
	 Same-Spin Energy          =      -0.2230070913245524 [Eh]
	 Opposite-Spin Energy      =      -0.6757396507793256 [Eh]
	 Correlation Energy        =      -0.8987467421038779 [Eh]
	 Total Energy              =    -228.2255660663142862 [Eh]

	 ================> DF-SCS-MP2 Energies <==================
	-----------------------------------------------------------
	 SCS Same-Spin Scale       =       0.3333333333333333 [-]
	 SCS Opposite-Spin Scale   =       1.2000000000000000 [-]
	 SCS Same-Spin Energy      =      -0.0743356971081841 [Eh]
	 SCS Opposite-Spin Energy  =      -0.8108875809351908 [Eh]
	 SCS Correlation Energy    =      -0.8852232780433749 [Eh]
	 SCS Total Energy          =    -228.2120426022538027 [Eh]
	-----------------------------------------------------------

  Dipole Moment: [D]
     X:     3.2412      Y:    -0.1802      Z:     0.0532     Total:     3.2466

*** Psi4 exiting successfully. Buy a developer a beer!
