                               Psi4 1.3.2 release

  ==> Input File <==

--------------------------------------------------------------------------
#psi4
#
memory 32 gb

molecule  {
0 1
  C       -1.1592290    -0.8823630    -0.2326730
  C       -1.3415107     0.5546272     0.2579965
  C       -0.1845300     1.4451040    -0.2326700
  C        1.1592310     0.8823580     0.2326770
  C        1.3437590    -0.5627420    -0.2326830
  C        0.1845330    -1.4451010     0.2326800
  H       -1.2023750    -0.9152160    -1.3301180
  H       -1.9819560    -1.5085900     0.1331310
  H       -2.2974530     0.9621300    -0.1331460
  H       -1.3937950     0.5836920     1.3301120
  H       -0.1913930     1.4989040    -1.3301140
  H       -0.3154970     2.4707180     0.1331400
  H        1.9819570     1.5085850    -0.1331240
  H        1.2023830     0.9151940     1.3301230
  H        1.3937660    -0.5836850    -1.3301290
  H        2.2974540    -0.9621310     0.1331110
  H        0.3155000    -2.4707190    -0.1331130
  H        0.1914070    -1.4988810     1.3301270
units angstrom
no_reorient  #important for SAPT in psi4, default
symmetry c1  #important for SAPT in psi4, default
}

set PROPERTIES_ORIGIN ["COM"]
properties('MP2/aug-cc-pvtz', properties = ['dipole'])
--------------------------------------------------------------------------

    Molecular point group: c1
  Charge       = 0
  Multiplicity = 1
  Basis Set: AUG-CC-PVTZ
    Blend: AUG-CC-PVTZ
  Basis Set: (AUG-CC-PVTZ AUX)
    Blend: AUG-CC-PVTZ-JKFIT

    Orbital Energies [Eh]
    ---------------------

    Doubly Occupied:

       1A    -11.212656     2A    -11.212393     3A    -11.212193
       4A    -11.211642     5A    -11.211468     6A    -11.211255
       7A     -1.110816     8A     -0.998083     9A     -0.996807
      10A     -0.824327    11A     -0.822889    12A     -0.749651
      13A     -0.644605    14A     -0.601462    15A     -0.595055
      16A     -0.593596    17A     -0.522696    18A     -0.519823
      19A     -0.508619    20A     -0.482577    21A     -0.477958
      22A     -0.451138    23A     -0.422846    24A     -0.421132

  @DF-RHF Final Energy:  -234.28596112722670

   => Energetics <=

    Nuclear Repulsion Energy =            256.1669599721935811
    One-Electron Energy =                -822.8744686528611965
    Two-Electron Energy =                 332.4215475534409165
    Total Energy =                       -234.2859611272266989
  Basis Set: (AUG-CC-PVTZ AUX)
    Blend: AUG-CC-PVTZ-RI
    Molecular point group: c1

    Geometry (in Angstrom), charge = 0, multiplicity = 1:

       Center              X                  Y                   Z               Mass
    ------------   -----------------  -----------------  -----------------  -----------------
         C           -1.159550516593    -0.881204763889    -0.236287174139    12.000000000000
         C           -1.341832216593     0.555785436111     0.254382325861    12.000000000000
         C           -0.184851516593     1.446262236111    -0.236284174139    12.000000000000
         C            1.158909483407     0.883516236111     0.229062825861    12.000000000000
         C            1.343437483407    -0.561583763889    -0.236297174139    12.000000000000
         C            0.184211483407    -1.443942763889     0.229065825861    12.000000000000
         H           -1.202696516593    -0.914057763889    -1.333732174139     1.007825032230
         H           -1.982277516593    -1.507431763889     0.129516825861     1.007825032230
         H           -2.297774516593     0.963288236111    -0.136760174139     1.007825032230
         H           -1.394116516593     0.584850236111     1.326497825861     1.007825032230
         H           -0.191714516593     1.500062236111    -1.333728174139     1.007825032230
         H           -0.315818516593     2.471876236111     0.129525825861     1.007825032230
         H            1.981635483407     1.509743236111    -0.136738174139     1.007825032230
         H            1.202061483407     0.916352236111     1.326508825861     1.007825032230
         H            1.393444483407    -0.582526763889    -1.333743174139     1.007825032230
         H            2.297132483407    -0.960972763889     0.129496825861     1.007825032230
         H            0.315178483407    -2.469560763889    -0.136727174139     1.007825032230
         H            0.191085483407    -1.497722763889     1.326512825861     1.007825032230

  Basis Set: AUG-CC-PVTZ
    Blend: AUG-CC-PVTZ
  Basis Set: (AUG-CC-PVTZ AUX)
    Blend: AUG-CC-PVTZ-JKFIT
	 Reference Energy          =    -234.2859611272266989 [Eh]
	 Singles Energy            =      -0.0000000000000000 [Eh]
	 Same-Spin Energy          =      -0.2537143178868565 [Eh]
	 Opposite-Spin Energy      =      -0.9208506765409485 [Eh]
	 Correlation Energy        =      -1.1745649944278052 [Eh]
	 Total Energy              =    -235.4605261216545102 [Eh]

	 ================> DF-SCS-MP2 Energies <==================
	-----------------------------------------------------------
	 SCS Same-Spin Scale       =       0.3333333333333333 [-]
	 SCS Opposite-Spin Scale   =       1.2000000000000000 [-]
	 SCS Same-Spin Energy      =      -0.0845714392956188 [Eh]
	 SCS Opposite-Spin Energy  =      -1.1050208118491383 [Eh]
	 SCS Correlation Energy    =      -1.1895922511447572 [Eh]
	 SCS Total Energy          =    -235.4755533783714441 [Eh]
	-----------------------------------------------------------

  Dipole Moment: [D]
     X:     0.0010      Y:    -0.0021      Z:     0.0136     Total:     0.0138

*** Psi4 exiting successfully. Buy a developer a beer!
