                               Psi4 1.3.2 release

  ==> Input File <==

--------------------------------------------------------------------------
#psi4
#
memory 32 gb

molecule  {
0 1
  C       -1.1592290    -0.8823630    -0.2326730
  C       -1.3437640     0.5627420     0.2326680
  C       -0.1845300     1.4451040    -0.2326700
  C        1.1592310     0.8823580     0.2326770
  C        1.3437590    -0.5627420    -0.2326830
  C        0.1845330    -1.4451010     0.2326800
  H       -1.1108587    -0.8455570    -1.3297747
  H       -1.9819560    -1.5085900     0.1331310
  H       -2.2974530     0.9621300    -0.1331460
  H       -1.3937950     0.5836920     1.3301120
  H       -0.1913930     1.4989040    -1.3301140
  H       -0.3154970     2.4707180     0.1331400
  H        1.9819570     1.5085850    -0.1331240
  H        1.2023830     0.9151940     1.3301230
  H        1.3937660    -0.5836850    -1.3301290
  H        2.2974540    -0.9621310     0.1331110
  H        0.3155000    -2.4707190    -0.1331130
  H        0.1914070    -1.4988810     1.3301270
units angstrom
no_reorient  #important for SAPT in psi4, default
symmetry c1  #important for SAPT in psi4, default
}

set PROPERTIES_ORIGIN ["COM"]
properties('MP2/aug-cc-pvtz', properties = ['dipole'])
--------------------------------------------------------------------------

    Molecular point group: c1
  Charge       = 0
  Multiplicity = 1
  Basis Set: AUG-CC-PVTZ
    Blend: AUG-CC-PVTZ
  Basis Set: (AUG-CC-PVTZ AUX)
    Blend: AUG-CC-PVTZ-JKFIT

    Orbital Energies [Eh]
    ---------------------

    Doubly Occupied:

       1A    -11.212782     2A    -11.212557     3A    -11.212440
       4A    -11.211904     5A    -11.211439     6A    -11.211261
       7A     -1.112066     8A     -0.998318     9A     -0.998147
      10A     -0.823987    11A     -0.822703    12A     -0.748109
      13A     -0.645728    14A     -0.604770    15A     -0.594039
      16A     -0.593395    17A     -0.524512    18A     -0.522946
      19A     -0.510690    20A     -0.477562    21A     -0.474685
      22A     -0.448676    23A     -0.424112    24A     -0.424067

  @DF-RHF Final Energy:  -234.28517714550142

   => Energetics <=

    Nuclear Repulsion Energy =            256.3907030996626872
    One-Electron Energy =                -823.3099722339630944
    Two-Electron Energy =                 332.6340919887990140
    Total Energy =                       -234.2851771455013932
  Basis Set: (AUG-CC-PVTZ AUX)
    Blend: AUG-CC-PVTZ-RI
    Molecular point group: c1

    Geometry (in Angstrom), charge = 0, multiplicity = 1:

       Center              X                  Y                   Z               Mass
    ------------   -----------------  -----------------  -----------------  -----------------
         C           -1.160325754960    -0.883197556269    -0.232676971588    12.000000000000
         C           -1.344860754960     0.561907443731     0.232664028412    12.000000000000
         C           -0.185626754960     1.444269443731    -0.232673971588    12.000000000000
         C            1.158134245040     0.881523443731     0.232673028412    12.000000000000
         C            1.342662245040    -0.563576556269    -0.232686971588    12.000000000000
         C            0.183436245040    -1.445935556269     0.232676028412    12.000000000000
         H           -1.111955454960    -0.846391556269    -1.329778671588     1.007825032230
         H           -1.983052754960    -1.509424556269     0.133127028412     1.007825032230
         H           -2.298549754960     0.961295443731    -0.133149971588     1.007825032230
         H           -1.394891754960     0.582857443731     1.330108028412     1.007825032230
         H           -0.192489754960     1.498069443731    -1.330117971588     1.007825032230
         H           -0.316593754960     2.469883443731     0.133136028412     1.007825032230
         H            1.980860245040     1.507750443731    -0.133127971588     1.007825032230
         H            1.201286245040     0.914359443731     1.330119028412     1.007825032230
         H            1.392669245040    -0.584519556269    -1.330132971588     1.007825032230
         H            2.296357245040    -0.962965556269     0.133107028412     1.007825032230
         H            0.314403245040    -2.471553556269    -0.133116971588     1.007825032230
         H            0.190310245040    -1.499715556269     1.330123028412     1.007825032230

  Basis Set: AUG-CC-PVTZ
    Blend: AUG-CC-PVTZ
  Basis Set: (AUG-CC-PVTZ AUX)
    Blend: AUG-CC-PVTZ-JKFIT
	 Reference Energy          =    -234.2851771455014216 [Eh]
	 Singles Energy            =      -0.0000000000000000 [Eh]
	 Same-Spin Energy          =      -0.2539374793403463 [Eh]
	 Opposite-Spin Energy      =      -0.9211709985028600 [Eh]
	 Correlation Energy        =      -1.1751084778432064 [Eh]
	 Total Energy              =    -235.4602856233446175 [Eh]

	 ================> DF-SCS-MP2 Energies <==================
	-----------------------------------------------------------
	 SCS Same-Spin Scale       =       0.3333333333333333 [-]
	 SCS Opposite-Spin Scale   =       1.2000000000000000 [-]
	 SCS Same-Spin Energy      =      -0.0846458264467821 [Eh]
	 SCS Opposite-Spin Energy  =      -1.1054051982034319 [Eh]
	 SCS Correlation Energy    =      -1.1900510246502141 [Eh]
	 SCS Total Energy          =    -235.4752281701516381 [Eh]
	-----------------------------------------------------------

  Dipole Moment: [D]
     X:     0.0207      Y:     0.0158      Z:     0.0160     Total:     0.0306

*** Psi4 exiting successfully. Buy a developer a beer!
