                               Psi4 1.3.2 release

  ==> Input File <==

--------------------------------------------------------------------------
#psi4
#
memory 32 gb

molecule  {
0 1
  C       -1.1592290    -0.8823630    -0.2326730
  C       -1.2477801     0.5561640     0.2789154
  C       -0.1845300     1.4451040    -0.2326700
  C        1.1592310     0.8823580     0.2326770
  C        1.3437590    -0.5627420    -0.2326830
  C        0.1845330    -1.4451010     0.2326800
  H       -1.2023750    -0.9152160    -1.3301180
  H       -1.9819560    -1.5085900     0.1331310
  H       -2.2974530     0.9621300    -0.1331460
  H       -1.3937950     0.5836920     1.3301120
  H       -0.1913930     1.4989040    -1.3301140
  H       -0.3154970     2.4707180     0.1331400
  H        1.9819570     1.5085850    -0.1331240
  H        1.2023830     0.9151940     1.3301230
  H        1.3937660    -0.5836850    -1.3301290
  H        2.2974540    -0.9621310     0.1331110
  H        0.3155000    -2.4707190    -0.1331130
  H        0.1914070    -1.4988810     1.3301270
units angstrom
no_reorient  #important for SAPT in psi4, default
symmetry c1  #important for SAPT in psi4, default
}

set PROPERTIES_ORIGIN ["COM"]
properties('MP2/aug-cc-pvtz', properties = ['dipole'])
--------------------------------------------------------------------------

    Molecular point group: c1
  Charge       = 0
  Multiplicity = 1
  Basis Set: AUG-CC-PVTZ
    Blend: AUG-CC-PVTZ
  Basis Set: (AUG-CC-PVTZ AUX)
    Blend: AUG-CC-PVTZ-JKFIT

    Orbital Energies [Eh]
    ---------------------

    Doubly Occupied:

       1A    -11.215728     2A    -11.213212     3A    -11.212594
       4A    -11.211507     5A    -11.210867     6A    -11.210736
       7A     -1.117828     8A     -1.003451     9A     -0.996789
      10A     -0.826009    11A     -0.820022    12A     -0.752273
      13A     -0.648503    14A     -0.599285    15A     -0.597511
      16A     -0.592838    17A     -0.529686    18A     -0.514454
      19A     -0.509985    20A     -0.484258    21A     -0.480768
      22A     -0.452999    23A     -0.428726    24A     -0.404993

  @DF-RHF Final Energy:  -234.27426056071218

   => Energetics <=

    Nuclear Repulsion Energy =            257.3105720408233879
    One-Electron Energy =                -825.0996217229052263
    Two-Electron Energy =                 333.5147891213697449
    Total Energy =                       -234.2742605607121504
  Basis Set: (AUG-CC-PVTZ AUX)
    Blend: AUG-CC-PVTZ-RI
    Molecular point group: c1

    Geometry (in Angstrom), charge = 0, multiplicity = 1:

       Center              X                  Y                   Z               Mass
    ------------   -----------------  -----------------  -----------------  -----------------
         C           -1.172925650757    -0.881424061601    -0.239272251521    12.000000000000
         C           -1.261476750757     0.557102938399     0.272316148479    12.000000000000
         C           -0.198226650757     1.446042938399    -0.239269251521    12.000000000000
         C            1.145534349243     0.883296938399     0.226077748479    12.000000000000
         C            1.330062349243    -0.561803061601    -0.239282251521    12.000000000000
         C            0.170836349243    -1.444162061601     0.226080748479    12.000000000000
         H           -1.216071650757    -0.914277061601    -1.336717251521     1.007825032230
         H           -1.995652650757    -1.507651061601     0.126531748479     1.007825032230
         H           -2.311149650757     0.963068938399    -0.139745251521     1.007825032230
         H           -1.407491650757     0.584630938399     1.323512748479     1.007825032230
         H           -0.205089650757     1.499842938399    -1.336713251521     1.007825032230
         H           -0.329193650757     2.471656938399     0.126540748479     1.007825032230
         H            1.968260349243     1.509523938399    -0.139723251521     1.007825032230
         H            1.188686349243     0.916132938399     1.323523748479     1.007825032230
         H            1.380069349243    -0.582746061601    -1.336728251521     1.007825032230
         H            2.283757349243    -0.961192061601     0.126511748479     1.007825032230
         H            0.301803349243    -2.469780061601    -0.139712251521     1.007825032230
         H            0.177710349243    -1.497942061601     1.323527748479     1.007825032230

  Basis Set: AUG-CC-PVTZ
    Blend: AUG-CC-PVTZ
  Basis Set: (AUG-CC-PVTZ AUX)
    Blend: AUG-CC-PVTZ-JKFIT
	 Reference Energy          =    -234.2742605607121789 [Eh]
	 Singles Energy            =      -0.0000000000000000 [Eh]
	 Same-Spin Energy          =      -0.2544717323707330 [Eh]
	 Opposite-Spin Energy      =      -0.9219843118430550 [Eh]
	 Correlation Energy        =      -1.1764560442137879 [Eh]
	 Total Energy              =    -235.4507166049259581 [Eh]

	 ================> DF-SCS-MP2 Energies <==================
	-----------------------------------------------------------
	 SCS Same-Spin Scale       =       0.3333333333333333 [-]
	 SCS Opposite-Spin Scale   =       1.2000000000000000 [-]
	 SCS Same-Spin Energy      =      -0.0848239107902443 [Eh]
	 SCS Opposite-Spin Energy  =      -1.1063811742116658 [Eh]
	 SCS Correlation Energy    =      -1.1912050850019100 [Eh]
	 SCS Total Energy          =    -235.4654656457140902 [Eh]
	-----------------------------------------------------------

  Dipole Moment: [D]
     X:     0.0606      Y:    -0.0158      Z:     0.0264     Total:     0.0679

*** Psi4 exiting successfully. Buy a developer a beer!
