                               Psi4 1.3.2 release

  ==> Input File <==

--------------------------------------------------------------------------
#psi4
#
memory 32 gb

molecule  {
0 1
  C       -1.1592290    -0.8823630    -0.2326730
  C       -1.1995971     0.5502435     0.3011181
  C       -0.1845300     1.4451040    -0.2326700
  C        1.1592310     0.8823580     0.2326770
  C        1.3437590    -0.5627420    -0.2326830
  C        0.1845330    -1.4451010     0.2326800
  H       -1.2023750    -0.9152160    -1.3301180
  H       -1.9819560    -1.5085900     0.1331310
  H       -2.2974530     0.9621300    -0.1331460
  H       -1.3937950     0.5836920     1.3301120
  H       -0.1913930     1.4989040    -1.3301140
  H       -0.3154970     2.4707180     0.1331400
  H        1.9819570     1.5085850    -0.1331240
  H        1.2023830     0.9151940     1.3301230
  H        1.3937660    -0.5836850    -1.3301290
  H        2.2974540    -0.9621310     0.1331110
  H        0.3155000    -2.4707190    -0.1331130
  H        0.1914070    -1.4988810     1.3301270
units angstrom
no_reorient  #important for SAPT in psi4, default
symmetry c1  #important for SAPT in psi4, default
}

set PROPERTIES_ORIGIN ["COM"]
properties('MP2/aug-cc-pvtz', properties = ['dipole'])
--------------------------------------------------------------------------

    Molecular point group: c1
  Charge       = 0
  Multiplicity = 1
  Basis Set: AUG-CC-PVTZ
    Blend: AUG-CC-PVTZ
  Basis Set: (AUG-CC-PVTZ AUX)
    Blend: AUG-CC-PVTZ-JKFIT

    Orbital Energies [Eh]
    ---------------------

    Doubly Occupied:

       1A    -11.218777     2A    -11.214365     3A    -11.213011
       4A    -11.211523     5A    -11.210881     6A    -11.210502
       7A     -1.121835     8A     -1.006488     9A     -0.996569
      10A     -0.827110    11A     -0.818918    12A     -0.754925
      13A     -0.651582    14A     -0.601429    15A     -0.599394
      16A     -0.590361    17A     -0.534653    18A     -0.514017
      19A     -0.508502    20A     -0.485197    21A     -0.482394
      22A     -0.454605    23A     -0.430186    24A     -0.393066

  @DF-RHF Final Energy:  -234.26063808853598

   => Energetics <=

    Nuclear Repulsion Energy =            257.8661762361567185
    One-Electron Energy =                -826.1530433408087220
    Two-Electron Energy =                 334.0262290161159626
    Total Energy =                       -234.2606380885359840
  Basis Set: (AUG-CC-PVTZ AUX)
    Blend: AUG-CC-PVTZ-RI
    Molecular point group: c1

    Geometry (in Angstrom), charge = 0, multiplicity = 1:

       Center              X                  Y                   Z               Mass
    ------------   -----------------  -----------------  -----------------  -----------------
         C           -1.179801250501    -0.880579220303    -0.242440524116    12.000000000000
         C           -1.220169350501     0.552027279697     0.291350575884    12.000000000000
         C           -0.205102250501     1.446887779697    -0.242437524116    12.000000000000
         C            1.138658749499     0.884141779697     0.222909475884    12.000000000000
         C            1.323186749499    -0.560958220303    -0.242450524116    12.000000000000
         C            0.163960749499    -1.443317220303     0.222912475884    12.000000000000
         H           -1.222947250501    -0.913432220303    -1.339885524116     1.007825032230
         H           -2.002528250501    -1.506806220303     0.123363475884     1.007825032230
         H           -2.318025250501     0.963913779697    -0.142913524116     1.007825032230
         H           -1.414367250501     0.585475779697     1.320344475884     1.007825032230
         H           -0.211965250501     1.500687779697    -1.339881524116     1.007825032230
         H           -0.336069250501     2.472501779697     0.123372475884     1.007825032230
         H            1.961384749499     1.510368779697    -0.142891524116     1.007825032230
         H            1.181810749499     0.916977779697     1.320355475884     1.007825032230
         H            1.373193749499    -0.581901220303    -1.339896524116     1.007825032230
         H            2.276881749499    -0.960347220303     0.123343475884     1.007825032230
         H            0.294927749499    -2.468935220303    -0.142880524116     1.007825032230
         H            0.170834749499    -1.497097220303     1.320359475884     1.007825032230

  Basis Set: AUG-CC-PVTZ
    Blend: AUG-CC-PVTZ
  Basis Set: (AUG-CC-PVTZ AUX)
    Blend: AUG-CC-PVTZ-JKFIT
	 Reference Energy          =    -234.2606380885359840 [Eh]
	 Singles Energy            =      -0.0000000000000000 [Eh]
	 Same-Spin Energy          =      -0.2550263107713769 [Eh]
	 Opposite-Spin Energy      =      -0.9230577808853024 [Eh]
	 Correlation Energy        =      -1.1780840916566793 [Eh]
	 Total Energy              =    -235.4387221801926557 [Eh]

	 ================> DF-SCS-MP2 Energies <==================
	-----------------------------------------------------------
	 SCS Same-Spin Scale       =       0.3333333333333333 [-]
	 SCS Opposite-Spin Scale   =       1.2000000000000000 [-]
	 SCS Same-Spin Energy      =      -0.0850087702571256 [Eh]
	 SCS Opposite-Spin Energy  =      -1.1076693370623629 [Eh]
	 SCS Correlation Energy    =      -1.1926781073194885 [Eh]
	 SCS Total Energy          =    -235.4533161958554786 [Eh]
	-----------------------------------------------------------

  Dipole Moment: [D]
     X:     0.1140      Y:    -0.0324      Z:     0.0372     Total:     0.1242

*** Psi4 exiting successfully. Buy a developer a beer!
