                               Psi4 1.3.2 release

  ==> Input File <==

--------------------------------------------------------------------------
#psi4
#
memory 32 gb

molecule  {
0 1
  C       -1.1592290    -0.8823630    -0.2326730
  C       -1.3437640     0.5627420     0.2326680
  C       -0.1845300     1.4451040    -0.2326700
  C        1.1592310     0.8823580     0.2326770
  C        1.3437590    -0.5627420    -0.2326830
  C        0.1845330    -1.4451010     0.2326800
  H       -1.1984483    -0.9122261    -1.2302399
  H       -1.9819560    -1.5085900     0.1331310
  H       -2.2974530     0.9621300    -0.1331460
  H       -1.3937950     0.5836920     1.3301120
  H       -0.1913930     1.4989040    -1.3301140
  H       -0.3154970     2.4707180     0.1331400
  H        1.9819570     1.5085850    -0.1331240
  H        1.2023830     0.9151940     1.3301230
  H        1.3937660    -0.5836850    -1.3301290
  H        2.2974540    -0.9621310     0.1331110
  H        0.3155000    -2.4707190    -0.1331130
  H        0.1914070    -1.4988810     1.3301270
units angstrom
no_reorient  #important for SAPT in psi4, default
symmetry c1  #important for SAPT in psi4, default
}

set PROPERTIES_ORIGIN ["COM"]
properties('MP2/aug-cc-pvtz', properties = ['dipole'])
--------------------------------------------------------------------------

    Molecular point group: c1
  Charge       = 0
  Multiplicity = 1
  Basis Set: AUG-CC-PVTZ
    Blend: AUG-CC-PVTZ
  Basis Set: (AUG-CC-PVTZ AUX)
    Blend: AUG-CC-PVTZ-JKFIT

    Orbital Energies [Eh]
    ---------------------

    Doubly Occupied:

       1A    -11.212411     2A    -11.212070     3A    -11.211583
       4A    -11.210932     5A    -11.210920     6A    -11.199050
       7A     -1.112518     8A     -1.001663     9A     -0.997557
      10A     -0.829776    11A     -0.823325    12A     -0.753489
      13A     -0.645308    14A     -0.603155    15A     -0.600145
      16A     -0.592851    17A     -0.522445    18A     -0.522219
      19A     -0.509847    20A     -0.485418    21A     -0.477124
      22A     -0.450456    23A     -0.423372    24A     -0.423257

  @DF-RHF Final Energy:  -234.28089242549453

   => Energetics <=

    Nuclear Repulsion Energy =            256.6881125217085469
    One-Electron Energy =                -823.8762289942801544
    Two-Electron Energy =                 332.9072240470771362
    Total Energy =                       -234.2808924254945282
  Basis Set: (AUG-CC-PVTZ AUX)
    Blend: AUG-CC-PVTZ-RI
    Molecular point group: c1

    Geometry (in Angstrom), charge = 0, multiplicity = 1:

       Center              X                  Y                   Z               Mass
    ------------   -----------------  -----------------  -----------------  -----------------
         C           -1.159276035646    -0.882398559106    -0.233869848391    12.000000000000
         C           -1.343811035646     0.562706440894     0.231471151609    12.000000000000
         C           -0.184577035646     1.445068440894    -0.233866848391    12.000000000000
         C            1.159183964354     0.882322440894     0.231480151609    12.000000000000
         C            1.343711964354    -0.562777559106    -0.233879848391    12.000000000000
         C            0.184485964354    -1.445136559106     0.231483151609    12.000000000000
         H           -1.198495335646    -0.912261659106    -1.231436748391     1.007825032230
         H           -1.982003035646    -1.508625559106     0.131934151609     1.007825032230
         H           -2.297500035646     0.962094440894    -0.134342848391     1.007825032230
         H           -1.393842035646     0.583656440894     1.328915151609     1.007825032230
         H           -0.191440035646     1.498868440894    -1.331310848391     1.007825032230
         H           -0.315544035646     2.470682440894     0.131943151609     1.007825032230
         H            1.981909964354     1.508549440894    -0.134320848391     1.007825032230
         H            1.202335964354     0.915158440894     1.328926151609     1.007825032230
         H            1.393718964354    -0.583720559106    -1.331325848391     1.007825032230
         H            2.297406964354    -0.962166559106     0.131914151609     1.007825032230
         H            0.315452964354    -2.470754559106    -0.134309848391     1.007825032230
         H            0.191359964354    -1.498916559106     1.328930151609     1.007825032230

  Basis Set: AUG-CC-PVTZ
    Blend: AUG-CC-PVTZ
  Basis Set: (AUG-CC-PVTZ AUX)
    Blend: AUG-CC-PVTZ-JKFIT
	 Reference Energy          =    -234.2808924254945282 [Eh]
	 Singles Energy            =      -0.0000000000000000 [Eh]
	 Same-Spin Energy          =      -0.2537504557007160 [Eh]
	 Opposite-Spin Energy      =      -0.9203931375934866 [Eh]
	 Correlation Energy        =      -1.1741435932942026 [Eh]
	 Total Energy              =    -235.4550360187887179 [Eh]

	 ================> DF-SCS-MP2 Energies <==================
	-----------------------------------------------------------
	 SCS Same-Spin Scale       =       0.3333333333333333 [-]
	 SCS Opposite-Spin Scale   =       1.2000000000000000 [-]
	 SCS Same-Spin Energy      =      -0.0845834852335720 [Eh]
	 SCS Opposite-Spin Energy  =      -1.1044717651121838 [Eh]
	 SCS Correlation Energy    =      -1.1890552503457559 [Eh]
	 SCS Total Energy          =    -235.4699476758402739 [Eh]
	-----------------------------------------------------------

  Dipole Moment: [D]
     X:    -0.0134      Y:    -0.0102      Z:    -0.0675     Total:     0.0696

*** Psi4 exiting successfully. Buy a developer a beer!
