                               Psi4 1.3.2 release

  ==> Input File <==

--------------------------------------------------------------------------
#psi4
#
memory 32 gb

molecule  {
0 1
  C       -1.1592290    -0.8823630    -0.2326730
  C       -1.3294256     0.5075413     0.3822442
  C       -0.1845300     1.4451040    -0.2326700
  C        1.1592310     0.8823580     0.2326770
  C        1.3437590    -0.5627420    -0.2326830
  C        0.1845330    -1.4451010     0.2326800
  H       -1.2023750    -0.9152160    -1.3301180
  H       -1.9819560    -1.5085900     0.1331310
  H       -2.2974530     0.9621300    -0.1331460
  H       -1.3937950     0.5836920     1.3301120
  H       -0.1913930     1.4989040    -1.3301140
  H       -0.3154970     2.4707180     0.1331400
  H        1.9819570     1.5085850    -0.1331240
  H        1.2023830     0.9151940     1.3301230
  H        1.3937660    -0.5836850    -1.3301290
  H        2.2974540    -0.9621310     0.1331110
  H        0.3155000    -2.4707190    -0.1331130
  H        0.1914070    -1.4988810     1.3301270
units angstrom
no_reorient  #important for SAPT in psi4, default
symmetry c1  #important for SAPT in psi4, default
}

set PROPERTIES_ORIGIN ["COM"]
properties('MP2/aug-cc-pvtz', properties = ['dipole'])
--------------------------------------------------------------------------

    Molecular point group: c1
  Charge       = 0
  Multiplicity = 1
  Basis Set: AUG-CC-PVTZ
    Blend: AUG-CC-PVTZ
  Basis Set: (AUG-CC-PVTZ AUX)
    Blend: AUG-CC-PVTZ-JKFIT

    Orbital Energies [Eh]
    ---------------------

    Doubly Occupied:

       1A    -11.215629     2A    -11.213829     3A    -11.211920
       4A    -11.211848     5A    -11.210928     6A    -11.210312
       7A     -1.109355     8A     -0.999471     9A     -0.991773
      10A     -0.831362    11A     -0.818763    12A     -0.759284
      13A     -0.641746    14A     -0.606682    15A     -0.596783
      16A     -0.592106    17A     -0.522837    18A     -0.513253
      19A     -0.505227    20A     -0.497001    21A     -0.480356
      22A     -0.455967    23A     -0.415909    24A     -0.403841

  @DF-RHF Final Energy:  -234.25516108531326

   => Energetics <=

    Nuclear Repulsion Energy =            255.9522237262756619
    One-Electron Energy =                -822.3824059046843331
    Two-Electron Energy =                 332.1750210930954381
    Total Energy =                       -234.2551610853132615
  Basis Set: (AUG-CC-PVTZ AUX)
    Blend: AUG-CC-PVTZ-RI
    Molecular point group: c1

    Geometry (in Angstrom), charge = 0, multiplicity = 1:

       Center              X                  Y                   Z               Mass
    ------------   -----------------  -----------------  -----------------  -----------------
         C           -1.161275031681    -0.874485717710    -0.254017026044    12.000000000000
         C           -1.331471631681     0.515418582290     0.360900173956    12.000000000000
         C           -0.186576031681     1.452981282290    -0.254014026044    12.000000000000
         C            1.157184968319     0.890235282290     0.211332973956    12.000000000000
         C            1.341712968319    -0.554864717710    -0.254027026044    12.000000000000
         C            0.182486968319    -1.437223717710     0.211335973956    12.000000000000
         H           -1.204421031681    -0.907338717710    -1.351462026044     1.007825032230
         H           -1.984002031681    -1.500712717710     0.111786973956     1.007825032230
         H           -2.299499031681     0.970007282290    -0.154490026044     1.007825032230
         H           -1.395841031681     0.591569282290     1.308767973956     1.007825032230
         H           -0.193439031681     1.506781282290    -1.351458026044     1.007825032230
         H           -0.317543031681     2.478595282290     0.111795973956     1.007825032230
         H            1.979910968319     1.516462282290    -0.154468026044     1.007825032230
         H            1.200336968319     0.923071282290     1.308778973956     1.007825032230
         H            1.391719968319    -0.575807717710    -1.351473026044     1.007825032230
         H            2.295407968319    -0.954253717710     0.111766973956     1.007825032230
         H            0.313453968319    -2.462841717710    -0.154457026044     1.007825032230
         H            0.189360968319    -1.491003717710     1.308782973956     1.007825032230

  Basis Set: AUG-CC-PVTZ
    Blend: AUG-CC-PVTZ
  Basis Set: (AUG-CC-PVTZ AUX)
    Blend: AUG-CC-PVTZ-JKFIT
	 Reference Energy          =    -234.2551610853132615 [Eh]
	 Singles Energy            =      -0.0000000000000000 [Eh]
	 Same-Spin Energy          =      -0.2539280944275049 [Eh]
	 Opposite-Spin Energy      =      -0.9221885938151859 [Eh]
	 Correlation Energy        =      -1.1761166882426908 [Eh]
	 Total Energy              =    -235.4312777735559621 [Eh]

	 ================> DF-SCS-MP2 Energies <==================
	-----------------------------------------------------------
	 SCS Same-Spin Scale       =       0.3333333333333333 [-]
	 SCS Opposite-Spin Scale   =       1.2000000000000000 [-]
	 SCS Same-Spin Energy      =      -0.0846426981425016 [Eh]
	 SCS Opposite-Spin Energy  =      -1.1066263125782230 [Eh]
	 SCS Correlation Energy    =      -1.1912690107207247 [Eh]
	 SCS Total Energy          =    -235.4464300960339926 [Eh]
	-----------------------------------------------------------

  Dipole Moment: [D]
     X:     0.0374      Y:    -0.0280      Z:     0.0422     Total:     0.0629

*** Psi4 exiting successfully. Buy a developer a beer!
