                               Psi4 1.4a3.dev225

  ==> Input File <==

--------------------------------------------------------------------------
#psi4
#
memory 32 gb

molecule  {
0 1
  C        1.4254670     0.3007170     0.2326930
  C        0.4841198     1.3494052    -0.2174771
  C       -0.9731630     1.0841320     0.2326920
  C       -1.4254670    -0.3007180    -0.2326930
  C       -0.4523040    -1.3848490     0.2326940
  C        0.9731620    -1.0841320    -0.2326940
  H        1.4785550     0.3119140     1.3301460
  H        2.4371320     0.5141410    -0.1331240
  H        0.7733080     2.3676870     0.1331270
  H        0.4691510     1.4364260    -1.3301450
  H       -1.0094080     1.1245070     1.3301450
  H       -1.6638220     1.8535490    -0.1331270
  H       -2.4371330    -0.5141380     0.1331220
  H       -1.4785520    -0.3119200    -1.3301460
  H       -0.4691470    -1.4364190     1.3301470
  H       -0.7733090    -2.3676890    -0.1331180
  H        1.6638250    -1.8535490     0.1331190
  H        1.0094000    -1.1245050    -1.3301470
units angstrom
no_reorient  #important for SAPT in psi4, default
symmetry c1  #important for SAPT in psi4, default
}

set PROPERTIES_ORIGIN ["COM"]
properties('MP2/aug-cc-pvtz', properties = ['dipole'])
--------------------------------------------------------------------------

    Molecular point group: c1
  Charge       = 0
  Multiplicity = 1
  Basis Set: AUG-CC-PVTZ
    Blend: AUG-CC-PVTZ
  Basis Set: (AUG-CC-PVTZ AUX)
    Blend: AUG-CC-PVTZ-JKFIT

    Orbital Energies [Eh]
    ---------------------

    Doubly Occupied:

       1A    -11.213967     2A    -11.213020     3A    -11.212750
       4A    -11.212184     5A    -11.211497     6A    -11.210342
       7A     -1.114179     8A     -1.003435     9A     -0.995558
      10A     -0.826652    11A     -0.821158    12A     -0.747036
      13A     -0.647513    14A     -0.602479    15A     -0.594083
      16A     -0.591709    17A     -0.528098    18A     -0.520625
      19A     -0.513260    20A     -0.478084    21A     -0.474326
      22A     -0.446911    23A     -0.428997    24A     -0.418627

  @DF-RHF Final Energy:  -234.28375317486737

   => Energetics <=

    Nuclear Repulsion Energy =            256.6276459507225809
    One-Electron Energy =                -823.7698151909013404
    Two-Electron Energy =                 332.8584160653113599
    Total Energy =                       -234.2837531748673996
  Basis Set: (AUG-CC-PVTZ AUX)
    Blend: AUG-CC-PVTZ-RI
    Molecular point group: c1

    Geometry (in Angstrom), charge = 0, multiplicity = 1:

       Center              X                  Y                   Z               Mass
    ------------   -----------------  -----------------  -----------------  -----------------
         C            1.420927103548     0.305774840899     0.230521881865    12.000000000000
         C            0.479579903548     1.354463040899    -0.219648218135    12.000000000000
         C           -0.977702896452     1.089189840899     0.230520881865    12.000000000000
         C           -1.430006896452    -0.295660159101    -0.234864118135    12.000000000000
         C           -0.456843896452    -1.379791159101     0.230522881865    12.000000000000
         C            0.968622103548    -1.079074159101    -0.234865118135    12.000000000000
         H            1.474015103548     0.316971840899     1.327974881865     1.007825032230
         H            2.432592103548     0.519198840899    -0.135295118135     1.007825032230
         H            0.768768103548     2.372744840899     0.130955881865     1.007825032230
         H            0.464611103548     1.441483840899    -1.332316118135     1.007825032230
         H           -1.013947896452     1.129564840899     1.327973881865     1.007825032230
         H           -1.668361896452     1.858606840899    -0.135298118135     1.007825032230
         H           -2.441672896452    -0.509080159101     0.130950881865     1.007825032230
         H           -1.483091896452    -0.306862159101    -1.332317118135     1.007825032230
         H           -0.473686896452    -1.431361159101     1.327975881865     1.007825032230
         H           -0.777848896452    -2.362631159101    -0.135289118135     1.007825032230
         H            1.659285103548    -1.848491159101     0.130947881865     1.007825032230
         H            1.004860103548    -1.119447159101    -1.332318118135     1.007825032230

  Basis Set: AUG-CC-PVTZ
    Blend: AUG-CC-PVTZ
  Basis Set: (AUG-CC-PVTZ AUX)
    Blend: AUG-CC-PVTZ-JKFIT
	 Reference Energy          =    -234.2837531748673712 [Eh]
	 Singles Energy            =      -0.0000000000000000 [Eh]
	 Same-Spin Energy          =      -0.2540786007907916 [Eh]
	 Opposite-Spin Energy      =      -0.9212680479146172 [Eh]
	 Correlation Energy        =      -1.1753466487054089 [Eh]
	 Total Energy              =    -235.4590998235727852 [Eh]

	 ================> DF-SCS-MP2 Energies <==================
	-----------------------------------------------------------
	 SCS Same-Spin Scale       =       0.3333333333333333 [-]
	 SCS Opposite-Spin Scale   =       1.2000000000000000 [-]
	 SCS Same-Spin Energy      =      -0.0846928669302639 [Eh]
	 SCS Opposite-Spin Energy  =      -1.1055216574975406 [Eh]
	 SCS Correlation Energy    =      -1.1902145244278044 [Eh]
	 SCS Total Energy          =    -235.4739676992951729 [Eh]
	-----------------------------------------------------------

  Dipole Moment: [D]
     X:     0.0066      Y:    -0.0147      Z:     0.0094     Total:     0.0186

*** Psi4 exiting successfully. Buy a developer a beer!
