                               Psi4 1.3.2 release

  ==> Input File <==

--------------------------------------------------------------------------
#psi4
#
memory 32 gb

molecule  {
0 1
  C       -1.1592290    -0.8823630    -0.2326730
  C       -1.3437640     0.5627420     0.2326680
  C       -0.1845300     1.4451040    -0.2326700
  C        1.1592310     0.8823580     0.2326770
  C        1.3437590    -0.5627420    -0.2326830
  C        0.1845330    -1.4451010     0.2326800
  H       -1.2063017    -0.9182059    -1.4299961
  H       -1.9819560    -1.5085900     0.1331310
  H       -2.2974530     0.9621300    -0.1331460
  H       -1.3937950     0.5836920     1.3301120
  H       -0.1913930     1.4989040    -1.3301140
  H       -0.3154970     2.4707180     0.1331400
  H        1.9819570     1.5085850    -0.1331240
  H        1.2023830     0.9151940     1.3301230
  H        1.3937660    -0.5836850    -1.3301290
  H        2.2974540    -0.9621310     0.1331110
  H        0.3155000    -2.4707190    -0.1331130
  H        0.1914070    -1.4988810     1.3301270
units angstrom
no_reorient  #important for SAPT in psi4, default
symmetry c1  #important for SAPT in psi4, default
}

set PROPERTIES_ORIGIN ["COM"]
properties('MP2/aug-cc-pvtz', properties = ['dipole'])
--------------------------------------------------------------------------

    Molecular point group: c1
  Charge       = 0
  Multiplicity = 1
  Basis Set: AUG-CC-PVTZ
    Blend: AUG-CC-PVTZ
  Basis Set: (AUG-CC-PVTZ AUX)
    Blend: AUG-CC-PVTZ-JKFIT

    Orbital Energies [Eh]
    ---------------------

    Doubly Occupied:

       1A    -11.224584     2A    -11.213555     3A    -11.213536
       4A    -11.212721     5A    -11.212242     6A    -11.211872
       7A     -1.110819     8A     -0.998687     9A     -0.995921
      10A     -0.824735    11A     -0.820362    12A     -0.743292
      13A     -0.646543    14A     -0.603276    15A     -0.593630
      16A     -0.586441    17A     -0.523902    18A     -0.523502
      19A     -0.511704    20A     -0.478064    21A     -0.470014
      22A     -0.444810    23A     -0.425004    24A     -0.424858

  @DF-RHF Final Energy:  -234.28040733047666

   => Energetics <=

    Nuclear Repulsion Energy =            255.7780656714920156
    One-Electron Energy =                -822.0888013336040103
    Two-Electron Energy =                 332.0303283316353031
    Total Energy =                       -234.2804073304766348
  Basis Set: (AUG-CC-PVTZ AUX)
    Blend: AUG-CC-PVTZ-RI
    Molecular point group: c1

    Geometry (in Angstrom), charge = 0, multiplicity = 1:

       Center              X                  Y                   Z               Mass
    ------------   -----------------  -----------------  -----------------  -----------------
         C           -1.159181916416    -0.882326894073    -0.231475866214    12.000000000000
         C           -1.343716916416     0.562778105927     0.233865133786    12.000000000000
         C           -0.184482916416     1.445140105927    -0.231472866214    12.000000000000
         C            1.159278083584     0.882394105927     0.233874133786    12.000000000000
         C            1.343806083584    -0.562705894073    -0.231485866214    12.000000000000
         C            0.184580083584    -1.445064894073     0.233877133786    12.000000000000
         H           -1.206254616416    -0.918169794073    -1.428798966214     1.007825032230
         H           -1.981908916416    -1.508553894073     0.134328133786     1.007825032230
         H           -2.297405916416     0.962166105927    -0.131948866214     1.007825032230
         H           -1.393747916416     0.583728105927     1.331309133786     1.007825032230
         H           -0.191345916416     1.498940105927    -1.328916866214     1.007825032230
         H           -0.315449916416     2.470754105927     0.134337133786     1.007825032230
         H            1.982004083584     1.508621105927    -0.131926866214     1.007825032230
         H            1.202430083584     0.915230105927     1.331320133786     1.007825032230
         H            1.393813083584    -0.583648894073    -1.328931866214     1.007825032230
         H            2.297501083584    -0.962094894073     0.134308133786     1.007825032230
         H            0.315547083584    -2.470682894073    -0.131915866214     1.007825032230
         H            0.191454083584    -1.498844894073     1.331324133786     1.007825032230

  Basis Set: AUG-CC-PVTZ
    Blend: AUG-CC-PVTZ
  Basis Set: (AUG-CC-PVTZ AUX)
    Blend: AUG-CC-PVTZ-JKFIT
	 Reference Energy          =    -234.2804073304766632 [Eh]
	 Singles Energy            =      -0.0000000000000000 [Eh]
	 Same-Spin Energy          =      -0.2537799076010228 [Eh]
	 Opposite-Spin Energy      =      -0.9215722093723689 [Eh]
	 Correlation Energy        =      -1.1753521169733916 [Eh]
	 Total Energy              =    -235.4557594474500490 [Eh]

	 ================> DF-SCS-MP2 Energies <==================
	-----------------------------------------------------------
	 SCS Same-Spin Scale       =       0.3333333333333333 [-]
	 SCS Opposite-Spin Scale   =       1.2000000000000000 [-]
	 SCS Same-Spin Energy      =      -0.0845933025336743 [Eh]
	 SCS Opposite-Spin Energy  =      -1.1058866512468426 [Eh]
	 SCS Correlation Energy    =      -1.1904799537805169 [Eh]
	 SCS Total Energy          =    -235.4708872842571736 [Eh]
	-----------------------------------------------------------

  Dipole Moment: [D]
     X:     0.0178      Y:     0.0135      Z:     0.0872     Total:     0.0901

*** Psi4 exiting successfully. Buy a developer a beer!
