                               Psi4 1.3.2 release

  ==> Input File <==

--------------------------------------------------------------------------
#psi4
#
memory 32 gb

molecule  {
0 1
  C       -1.1592290    -0.8823630    -0.2326730
  C       -1.4859091     0.5594076     0.1591195
  C       -0.1845300     1.4451040    -0.2326700
  C        1.1592310     0.8823580     0.2326770
  C        1.3437590    -0.5627420    -0.2326830
  C        0.1845330    -1.4451010     0.2326800
  H       -1.2023750    -0.9152160    -1.3301180
  H       -1.9819560    -1.5085900     0.1331310
  H       -2.2974530     0.9621300    -0.1331460
  H       -1.3937950     0.5836920     1.3301120
  H       -0.1913930     1.4989040    -1.3301140
  H       -0.3154970     2.4707180     0.1331400
  H        1.9819570     1.5085850    -0.1331240
  H        1.2023830     0.9151940     1.3301230
  H        1.3937660    -0.5836850    -1.3301290
  H        2.2974540    -0.9621310     0.1331110
  H        0.3155000    -2.4707190    -0.1331130
  H        0.1914070    -1.4988810     1.3301270
units angstrom
no_reorient  #important for SAPT in psi4, default
symmetry c1  #important for SAPT in psi4, default
}

set PROPERTIES_ORIGIN ["COM"]
properties('MP2/aug-cc-pvtz', properties = ['dipole'])
--------------------------------------------------------------------------

    Molecular point group: c1
  Charge       = 0
  Multiplicity = 1
  Basis Set: AUG-CC-PVTZ
    Blend: AUG-CC-PVTZ
  Basis Set: (AUG-CC-PVTZ AUX)
    Blend: AUG-CC-PVTZ-JKFIT

    Orbital Energies [Eh]
    ---------------------

    Doubly Occupied:

       1A    -11.215831     2A    -11.215630     3A    -11.214295
       4A    -11.213738     5A    -11.212649     6A    -11.212565
       7A     -1.105010     8A     -1.002091     9A     -0.992210
      10A     -0.835686    11A     -0.821718    12A     -0.747064
      13A     -0.651378    14A     -0.613727    15A     -0.590306
      16A     -0.586299    17A     -0.540961    18A     -0.521771
      19A     -0.507857    20A     -0.473410    21A     -0.467832
      22A     -0.444163    23A     -0.433652    24A     -0.408307

  @DF-RHF Final Energy:  -234.25569031246710

   => Energetics <=

    Nuclear Repulsion Energy =            254.6340303657505331
    One-Electron Energy =                -819.7231390962299429
    Two-Electron Energy =                 330.8334184180123430
    Total Energy =                       -234.2556903124670953
  Basis Set: (AUG-CC-PVTZ AUX)
    Blend: AUG-CC-PVTZ-RI
    Molecular point group: c1

    Geometry (in Angstrom), charge = 0, multiplicity = 1:

       Center              X                  Y                   Z               Mass
    ------------   -----------------  -----------------  -----------------  -----------------
         C           -1.138945207623    -0.881886915623    -0.222177660910    12.000000000000
         C           -1.465625307623     0.559883684377     0.169614839090    12.000000000000
         C           -0.164246207623     1.445580084377    -0.222174660910    12.000000000000
         C            1.179514792377     0.882834084377     0.243172339090    12.000000000000
         C            1.364042792377    -0.562265915623    -0.222187660910    12.000000000000
         C            0.204816792377    -1.444624915623     0.243175339090    12.000000000000
         H           -1.182091207623    -0.914739915623    -1.319622660910     1.007825032230
         H           -1.961672207623    -1.508113915623     0.143626339090     1.007825032230
         H           -2.277169207623     0.962606084377    -0.122650660910     1.007825032230
         H           -1.373511207623     0.584168084377     1.340607339090     1.007825032230
         H           -0.171109207623     1.499380084377    -1.319618660910     1.007825032230
         H           -0.295213207623     2.471194084377     0.143635339090     1.007825032230
         H            2.002240792377     1.509061084377    -0.122628660910     1.007825032230
         H            1.222666792377     0.915670084377     1.340618339090     1.007825032230
         H            1.414049792377    -0.583208915623    -1.319633660910     1.007825032230
         H            2.317737792377    -0.961654915623     0.143606339090     1.007825032230
         H            0.335783792377    -2.470242915623    -0.122617660910     1.007825032230
         H            0.211690792377    -1.498404915623     1.340622339090     1.007825032230

  Basis Set: AUG-CC-PVTZ
    Blend: AUG-CC-PVTZ
  Basis Set: (AUG-CC-PVTZ AUX)
    Blend: AUG-CC-PVTZ-JKFIT
	 Reference Energy          =    -234.2556903124670953 [Eh]
	 Singles Energy            =      -0.0000000000000000 [Eh]
	 Same-Spin Energy          =      -0.2537299131912305 [Eh]
	 Opposite-Spin Energy      =      -0.9219974191579667 [Eh]
	 Correlation Energy        =      -1.1757273323491972 [Eh]
	 Total Energy              =    -235.4314176448162925 [Eh]

	 ================> DF-SCS-MP2 Energies <==================
	-----------------------------------------------------------
	 SCS Same-Spin Scale       =       0.3333333333333333 [-]
	 SCS Opposite-Spin Scale   =       1.2000000000000000 [-]
	 SCS Same-Spin Energy      =      -0.0845766377304102 [Eh]
	 SCS Opposite-Spin Energy  =      -1.1063969029895599 [Eh]
	 SCS Correlation Energy    =      -1.1909735407199702 [Eh]
	 SCS Total Energy          =    -235.4466638531870615 [Eh]
	-----------------------------------------------------------

  Dipole Moment: [D]
     X:     0.0185      Y:    -0.0231      Z:    -0.0568     Total:     0.0641

*** Psi4 exiting successfully. Buy a developer a beer!
