                               Psi4 1.3.2 release

  ==> Input File <==

--------------------------------------------------------------------------
#psi4
#
memory 32 gb

molecule  {
0 1
  C       -1.1592290    -0.8823630    -0.2326730
  C       -1.3196316     0.3737596     0.1718134
  C       -0.1845300     1.4451040    -0.2326700
  C        1.1592310     0.8823580     0.2326770
  C        1.3437590    -0.5627420    -0.2326830
  C        0.1845330    -1.4451010     0.2326800
  H       -1.2023750    -0.9152160    -1.3301180
  H       -1.9819560    -1.5085900     0.1331310
  H       -2.2974530     0.9621300    -0.1331460
  H       -1.3937950     0.5836920     1.3301120
  H       -0.1913930     1.4989040    -1.3301140
  H       -0.3154970     2.4707180     0.1331400
  H        1.9819570     1.5085850    -0.1331240
  H        1.2023830     0.9151940     1.3301230
  H        1.3937660    -0.5836850    -1.3301290
  H        2.2974540    -0.9621310     0.1331110
  H        0.3155000    -2.4707190    -0.1331130
  H        0.1914070    -1.4988810     1.3301270
units angstrom
no_reorient  #important for SAPT in psi4, default
symmetry c1  #important for SAPT in psi4, default
}

set PROPERTIES_ORIGIN ["COM"]
properties('MP2/aug-cc-pvtz', properties = ['dipole'])
--------------------------------------------------------------------------

    Molecular point group: c1
  Charge       = 0
  Multiplicity = 1
  Basis Set: AUG-CC-PVTZ
    Blend: AUG-CC-PVTZ
  Basis Set: (AUG-CC-PVTZ AUX)
    Blend: AUG-CC-PVTZ-JKFIT

    Orbital Energies [Eh]
    ---------------------

    Doubly Occupied:

       1A    -11.222159     2A    -11.216979     3A    -11.214494
       4A    -11.213318     5A    -11.210782     6A    -11.203907
       7A     -1.129825     8A     -1.023238     9A     -0.988624
      10A     -0.836453    11A     -0.811775    12A     -0.743875
      13A     -0.654832    14A     -0.608802    15A     -0.595550
      16A     -0.590379    17A     -0.552842    18A     -0.522226
      19A     -0.511411    20A     -0.480302    21A     -0.467430
      22A     -0.449270    23A     -0.417734    24A     -0.396643

  @DF-RHF Final Energy:  -234.23741634357265

   => Energetics <=

    Nuclear Repulsion Energy =            258.0224760173776417
    One-Electron Energy =                -826.3940811444695100
    Two-Electron Energy =                 334.1341887835192779
    Total Energy =                       -234.2374163435726473
  Basis Set: (AUG-CC-PVTZ AUX)
    Blend: AUG-CC-PVTZ-RI
    Molecular point group: c1

    Geometry (in Angstrom), charge = 0, multiplicity = 1:

       Center              X                  Y                   Z               Mass
    ------------   -----------------  -----------------  -----------------  -----------------
         C           -1.162672612236    -0.855395386633    -0.223989050312    12.000000000000
         C           -1.323075212236     0.400727213367     0.180497349688    12.000000000000
         C           -0.187973612236     1.472071613367    -0.223986050312    12.000000000000
         C            1.155787387764     0.909325613367     0.241360949688    12.000000000000
         C            1.340315387764    -0.535774386633    -0.223999050312    12.000000000000
         C            0.181089387764    -1.418133386633     0.241363949688    12.000000000000
         H           -1.205818612236    -0.888248386633    -1.321434050312     1.007825032230
         H           -1.985399612236    -1.481622386633     0.141814949688     1.007825032230
         H           -2.300896612236     0.989097613367    -0.124462050312     1.007825032230
         H           -1.397238612236     0.610659613367     1.338795949688     1.007825032230
         H           -0.194836612236     1.525871613367    -1.321430050312     1.007825032230
         H           -0.318940612236     2.497685613367     0.141823949688     1.007825032230
         H            1.978513387764     1.535552613367    -0.124440050312     1.007825032230
         H            1.198939387764     0.942161613367     1.338806949688     1.007825032230
         H            1.390322387764    -0.556717386633    -1.321445050312     1.007825032230
         H            2.294010387764    -0.935163386633     0.141794949688     1.007825032230
         H            0.312056387764    -2.443751386633    -0.124429050312     1.007825032230
         H            0.187963387764    -1.471913386633     1.338810949688     1.007825032230

  Basis Set: AUG-CC-PVTZ
    Blend: AUG-CC-PVTZ
  Basis Set: (AUG-CC-PVTZ AUX)
    Blend: AUG-CC-PVTZ-JKFIT
	 Reference Energy          =    -234.2374163435726473 [Eh]
	 Singles Energy            =      -0.0000000000000000 [Eh]
	 Same-Spin Energy          =      -0.2564046258161540 [Eh]
	 Opposite-Spin Energy      =      -0.9248316616655035 [Eh]
	 Correlation Energy        =      -1.1812362874816575 [Eh]
	 Total Energy              =    -235.4186526310543002 [Eh]

	 ================> DF-SCS-MP2 Energies <==================
	-----------------------------------------------------------
	 SCS Same-Spin Scale       =       0.3333333333333333 [-]
	 SCS Opposite-Spin Scale   =       1.2000000000000000 [-]
	 SCS Same-Spin Energy      =      -0.0854682086053847 [Eh]
	 SCS Opposite-Spin Energy  =      -1.1097979939986040 [Eh]
	 SCS Correlation Energy    =      -1.1952662026039886 [Eh]
	 SCS Total Energy          =    -235.4326825461766362 [Eh]
	-----------------------------------------------------------

  Dipole Moment: [D]
     X:     0.0594      Y:    -0.0928      Z:    -0.0554     Total:     0.1233

*** Psi4 exiting successfully. Buy a developer a beer!
