                               Psi4 1.3.2 release

  ==> Input File <==

--------------------------------------------------------------------------
#psi4
#
memory 32 gb

molecule  {
0 1
  C       -1.1592290    -0.8823630    -0.2326730
  C       -1.3198341     0.5617569     0.2444514
  C       -0.1845300     1.4451040    -0.2326700
  C        1.1592310     0.8823580     0.2326770
  C        1.3437590    -0.5627420    -0.2326830
  C        0.1845330    -1.4451010     0.2326800
  H       -1.2023750    -0.9152160    -1.3301180
  H       -1.9819560    -1.5085900     0.1331310
  H       -2.2974530     0.9621300    -0.1331460
  H       -1.3937950     0.5836920     1.3301120
  H       -0.1913930     1.4989040    -1.3301140
  H       -0.3154970     2.4707180     0.1331400
  H        1.9819570     1.5085850    -0.1331240
  H        1.2023830     0.9151940     1.3301230
  H        1.3937660    -0.5836850    -1.3301290
  H        2.2974540    -0.9621310     0.1331110
  H        0.3155000    -2.4707190    -0.1331130
  H        0.1914070    -1.4988810     1.3301270
units angstrom
no_reorient  #important for SAPT in psi4, default
symmetry c1  #important for SAPT in psi4, default
}

set PROPERTIES_ORIGIN ["COM"]
properties('MP2/aug-cc-pvtz', properties = ['dipole'])
--------------------------------------------------------------------------

    Molecular point group: c1
  Charge       = 0
  Multiplicity = 1
  Basis Set: AUG-CC-PVTZ
    Blend: AUG-CC-PVTZ
  Basis Set: (AUG-CC-PVTZ AUX)
    Blend: AUG-CC-PVTZ-JKFIT

    Orbital Energies [Eh]
    ---------------------

    Doubly Occupied:

       1A    -11.212919     2A    -11.212443     3A    -11.212258
       4A    -11.211855     5A    -11.211501     6A    -11.211308
       7A     -1.112744     8A     -0.999294     9A     -0.997619
      10A     -0.824427    11A     -0.822712    12A     -0.748852
      13A     -0.645980    14A     -0.601052    15A     -0.594184
      16A     -0.593749    17A     -0.524098    18A     -0.520088
      19A     -0.510767    20A     -0.479569    21A     -0.478311
      22A     -0.449961    23A     -0.425486    24A     -0.419912

  @DF-RHF Final Energy:  -234.28568417397980

   => Energetics <=

    Nuclear Repulsion Energy =            256.4808175103627832
    One-Electron Energy =                -823.4908264382899006
    Two-Electron Energy =                 332.7243247539473714
    Total Energy =                       -234.2856841739798028
  Basis Set: (AUG-CC-PVTZ AUX)
    Blend: AUG-CC-PVTZ-RI
    Molecular point group: c1

    Geometry (in Angstrom), charge = 0, multiplicity = 1:

       Center              X                  Y                   Z               Mass
    ------------   -----------------  -----------------  -----------------  -----------------
         C           -1.162643715967    -0.882222155157    -0.234354320516    12.000000000000
         C           -1.323248815967     0.561897744843     0.242770079484    12.000000000000
         C           -0.187944715967     1.445244844843    -0.234351320516    12.000000000000
         C            1.155816284033     0.882498844843     0.230995679484    12.000000000000
         C            1.340344284033    -0.562601155157    -0.234364320516    12.000000000000
         C            0.181118284033    -1.444960155157     0.230998679484    12.000000000000
         H           -1.205789715967    -0.915075155157    -1.331799320516     1.007825032230
         H           -1.985370715967    -1.508449155157     0.131449679484     1.007825032230
         H           -2.300867715967     0.962270844843    -0.134827320516     1.007825032230
         H           -1.397209715967     0.583832844843     1.328430679484     1.007825032230
         H           -0.194807715967     1.499044844843    -1.331795320516     1.007825032230
         H           -0.318911715967     2.470858844843     0.131458679484     1.007825032230
         H            1.978542284033     1.508725844843    -0.134805320516     1.007825032230
         H            1.198968284033     0.915334844843     1.328441679484     1.007825032230
         H            1.390351284033    -0.583544155157    -1.331810320516     1.007825032230
         H            2.294039284033    -0.961990155157     0.131429679484     1.007825032230
         H            0.312085284033    -2.470578155157    -0.134794320516     1.007825032230
         H            0.187992284033    -1.498740155157     1.328445679484     1.007825032230

  Basis Set: AUG-CC-PVTZ
    Blend: AUG-CC-PVTZ
  Basis Set: (AUG-CC-PVTZ AUX)
    Blend: AUG-CC-PVTZ-JKFIT
	 Reference Energy          =    -234.2856841739798028 [Eh]
	 Singles Energy            =      -0.0000000000000000 [Eh]
	 Same-Spin Energy          =      -0.2538860091791048 [Eh]
	 Opposite-Spin Energy      =      -0.9210147306404248 [Eh]
	 Correlation Energy        =      -1.1749007398195297 [Eh]
	 Total Energy              =    -235.4605849137993232 [Eh]

	 ================> DF-SCS-MP2 Energies <==================
	-----------------------------------------------------------
	 SCS Same-Spin Scale       =       0.3333333333333333 [-]
	 SCS Opposite-Spin Scale   =       1.2000000000000000 [-]
	 SCS Same-Spin Energy      =      -0.0846286697263682 [Eh]
	 SCS Opposite-Spin Energy  =      -1.1052176767685098 [Eh]
	 SCS Correlation Energy    =      -1.1898463464948781 [Eh]
	 SCS Total Energy          =    -235.4755305204746776 [Eh]
	-----------------------------------------------------------

  Dipole Moment: [D]
     X:     0.0094      Y:    -0.0017      Z:     0.0073     Total:     0.0120

*** Psi4 exiting successfully. Buy a developer a beer!
