                               Psi4 1.4a3.dev225

  ==> Input File <==

--------------------------------------------------------------------------
#psi4
#
memory 32 gb

molecule  {
0 1
  C        1.4254670     0.3007170     0.2326930
  C        0.4395777     1.3990265    -0.2387780
  C       -0.9731630     1.0841320     0.2326920
  C       -1.4254670    -0.3007180    -0.2326930
  C       -0.4523040    -1.3848490     0.2326940
  C        0.9731620    -1.0841320    -0.2326940
  H        1.4785550     0.3119140     1.3301460
  H        2.4371320     0.5141410    -0.1331240
  H        0.7733080     2.3676870     0.1331270
  H        0.4691510     1.4364260    -1.3301450
  H       -1.0094080     1.1245070     1.3301450
  H       -1.6638220     1.8535490    -0.1331270
  H       -2.4371330    -0.5141380     0.1331220
  H       -1.4785520    -0.3119200    -1.3301460
  H       -0.4691470    -1.4364190     1.3301470
  H       -0.7733090    -2.3676890    -0.1331180
  H        1.6638250    -1.8535490     0.1331190
  H        1.0094000    -1.1245050    -1.3301470
units angstrom
no_reorient  #important for SAPT in psi4, default
symmetry c1  #important for SAPT in psi4, default
}

set PROPERTIES_ORIGIN ["COM"]
properties('MP2/aug-cc-pvtz', properties = ['dipole'])
--------------------------------------------------------------------------

    Molecular point group: c1
  Charge       = 0
  Multiplicity = 1
  Basis Set: AUG-CC-PVTZ
    Blend: AUG-CC-PVTZ
  Basis Set: (AUG-CC-PVTZ AUX)
    Blend: AUG-CC-PVTZ-JKFIT

    Orbital Energies [Eh]
    ---------------------

    Doubly Occupied:

       1A    -11.212875     2A    -11.212586     3A    -11.212196
       4A    -11.211816     5A    -11.211610     6A    -11.211269
       7A     -1.110344     8A     -0.999027     9A     -0.996060
      10A     -0.824984    11A     -0.822941    12A     -0.748300
      13A     -0.645180    14A     -0.603207    15A     -0.593799
      16A     -0.592758    17A     -0.523799    18A     -0.521539
      19A     -0.509556    20A     -0.478651    21A     -0.477299
      22A     -0.449373    23A     -0.425898    24A     -0.421121

  @DF-RHF Final Energy:  -234.28645336271077

   => Energetics <=

    Nuclear Repulsion Energy =            256.0406255242017437
    One-Electron Energy =                -822.6217829970557887
    Two-Electron Energy =                 332.2947041101433570
    Total Energy =                       -234.2864533627107448
  Basis Set: (AUG-CC-PVTZ AUX)
    Blend: AUG-CC-PVTZ-RI
    Molecular point group: c1

    Geometry (in Angstrom), charge = 0, multiplicity = 1:

       Center              X                  Y                   Z               Mass
    ------------   -----------------  -----------------  -----------------  -----------------
         C            1.427283155504     0.298693999158     0.233561469740    12.000000000000
         C            0.441393855504     1.397003499158    -0.237909530260    12.000000000000
         C           -0.971346844496     1.082108999158     0.233560469740    12.000000000000
         C           -1.423650844496    -0.302741000842    -0.231824530260    12.000000000000
         C           -0.450487844496    -1.386872000842     0.233562469740    12.000000000000
         C            0.974978155504    -1.086155000842    -0.231825530260    12.000000000000
         H            1.480371155504     0.309890999158     1.331014469740     1.007825032230
         H            2.438948155504     0.512117999158    -0.132255530260     1.007825032230
         H            0.775124155504     2.365663999158     0.133995469740     1.007825032230
         H            0.470967155504     1.434402999158    -1.329276530260     1.007825032230
         H           -1.007591844496     1.122483999158     1.331013469740     1.007825032230
         H           -1.662005844496     1.851525999158    -0.132258530260     1.007825032230
         H           -2.435316844496    -0.516161000842     0.133990469740     1.007825032230
         H           -1.476735844496    -0.313943000842    -1.329277530260     1.007825032230
         H           -0.467330844496    -1.438442000842     1.331015469740     1.007825032230
         H           -0.771492844496    -2.369712000842    -0.132249530260     1.007825032230
         H            1.665641155504    -1.855572000842     0.133987469740     1.007825032230
         H            1.011216155504    -1.126528000842    -1.329278530260     1.007825032230

  Basis Set: AUG-CC-PVTZ
    Blend: AUG-CC-PVTZ
  Basis Set: (AUG-CC-PVTZ AUX)
    Blend: AUG-CC-PVTZ-JKFIT
	 Reference Energy          =    -234.2864533627107733 [Eh]
	 Singles Energy            =      -0.0000000000000000 [Eh]
	 Same-Spin Energy          =      -0.2536853049398820 [Eh]
	 Opposite-Spin Energy      =      -0.9208160531729266 [Eh]
	 Correlation Energy        =      -1.1745013581128085 [Eh]
	 Total Energy              =    -235.4609547208235938 [Eh]

	 ================> DF-SCS-MP2 Energies <==================
	-----------------------------------------------------------
	 SCS Same-Spin Scale       =       0.3333333333333333 [-]
	 SCS Opposite-Spin Scale   =       1.2000000000000000 [-]
	 SCS Same-Spin Energy      =      -0.0845617683132940 [Eh]
	 SCS Opposite-Spin Energy  =      -1.1049792638075118 [Eh]
	 SCS Correlation Energy    =      -1.1895410321208058 [Eh]
	 SCS Total Energy          =    -235.4759943948315879 [Eh]
	-----------------------------------------------------------

  Dipole Moment: [D]
     X:    -0.0027      Y:     0.0043      Z:    -0.0031     Total:     0.0060

*** Psi4 exiting successfully. Buy a developer a beer!
