                               Psi4 1.4a3.dev225

  ==> Input File <==

--------------------------------------------------------------------------
#psi4
#
memory 32 gb

molecule  {
0 1
  C        1.4254670     0.3007170     0.2326930
  C        0.4523040     1.3848490    -0.2326920
  C       -0.9731630     1.0841320     0.2326920
  C       -1.4254670    -0.3007180    -0.2326930
  C       -0.4523040    -1.3848490     0.2326940
  C        0.9731620    -1.0841320    -0.2326940
  H        1.4795213     0.3121178     1.3501216
  H        2.4371320     0.5141410    -0.1331240
  H        0.7733080     2.3676870     0.1331270
  H        0.4691510     1.4364260    -1.3301450
  H       -1.0094080     1.1245070     1.3301450
  H       -1.6638220     1.8535490    -0.1331270
  H       -2.4371330    -0.5141380     0.1331220
  H       -1.4785520    -0.3119200    -1.3301460
  H       -0.4691470    -1.4364190     1.3301470
  H       -0.7733090    -2.3676890    -0.1331180
  H        1.6638250    -1.8535490     0.1331190
  H        1.0094000    -1.1245050    -1.3301470
units angstrom
no_reorient  #important for SAPT in psi4, default
symmetry c1  #important for SAPT in psi4, default
}

set PROPERTIES_ORIGIN ["COM"]
properties('MP2/aug-cc-pvtz', properties = ['dipole'])
--------------------------------------------------------------------------

    Molecular point group: c1
  Charge       = 0
  Multiplicity = 1
  Basis Set: AUG-CC-PVTZ
    Blend: AUG-CC-PVTZ
  Basis Set: (AUG-CC-PVTZ AUX)
    Blend: AUG-CC-PVTZ-JKFIT

    Orbital Energies [Eh]
    ---------------------

    Doubly Occupied:

       1A    -11.214727     2A    -11.212684     3A    -11.212573
       4A    -11.212232     5A    -11.211921     6A    -11.211624
       7A     -1.111136     8A     -0.998144     9A     -0.997496
      10A     -0.824076    11A     -0.823057    12A     -0.746936
      13A     -0.645914    14A     -0.602860    15A     -0.593239
      16A     -0.591730    17A     -0.523058    18A     -0.522991
      19A     -0.510822    20A     -0.477615    21A     -0.475924
      22A     -0.448128    23A     -0.424183    24A     -0.424157

  @DF-RHF Final Energy:  -234.28616765511421

   => Energetics <=

    Nuclear Repulsion Energy =            256.1161443738365051
    One-Electron Energy =                -822.7701683996263000
    Two-Electron Energy =                 332.3678563706755540
    Total Energy =                       -234.2861676551142409
  Basis Set: (AUG-CC-PVTZ AUX)
    Blend: AUG-CC-PVTZ-RI
    Molecular point group: c1

    Geometry (in Angstrom), charge = 0, multiplicity = 1:

       Center              X                  Y                   Z               Mass
    ------------   -----------------  -----------------  -----------------  -----------------
         C            1.425455562056     0.300714652314     0.232453614007    12.000000000000
         C            0.452292562056     1.384846652314    -0.232931385993    12.000000000000
         C           -0.973174437944     1.084129652314     0.232452614007    12.000000000000
         C           -1.425478437944    -0.300720347686    -0.232932385993    12.000000000000
         C           -0.452315437944    -1.384851347686     0.232454614007    12.000000000000
         C            0.973150562056    -1.084134347686    -0.232933385993    12.000000000000
         H            1.479509862056     0.312115452314     1.349882214007     1.007825032230
         H            2.437120562056     0.514138652314    -0.133363385993     1.007825032230
         H            0.773296562056     2.367684652314     0.132887614007     1.007825032230
         H            0.469139562056     1.436423652314    -1.330384385993     1.007825032230
         H           -1.009419437944     1.124504652314     1.329905614007     1.007825032230
         H           -1.663833437944     1.853546652314    -0.133366385993     1.007825032230
         H           -2.437144437944    -0.514140347686     0.132882614007     1.007825032230
         H           -1.478563437944    -0.311922347686    -1.330385385993     1.007825032230
         H           -0.469158437944    -1.436421347686     1.329907614007     1.007825032230
         H           -0.773320437944    -2.367691347686    -0.133357385993     1.007825032230
         H            1.663813562056    -1.853551347686     0.132879614007     1.007825032230
         H            1.009388562056    -1.124507347686    -1.330386385993     1.007825032230

  Basis Set: AUG-CC-PVTZ
    Blend: AUG-CC-PVTZ
  Basis Set: (AUG-CC-PVTZ AUX)
    Blend: AUG-CC-PVTZ-JKFIT
	 Reference Energy          =    -234.2861676551142125 [Eh]
	 Singles Energy            =      -0.0000000000000000 [Eh]
	 Same-Spin Energy          =      -0.2537616269055619 [Eh]
	 Opposite-Spin Energy      =      -0.9209971339048946 [Eh]
	 Correlation Energy        =      -1.1747587608104564 [Eh]
	 Total Energy              =    -235.4609264159246607 [Eh]

	 ================> DF-SCS-MP2 Energies <==================
	-----------------------------------------------------------
	 SCS Same-Spin Scale       =       0.3333333333333333 [-]
	 SCS Opposite-Spin Scale   =       1.2000000000000000 [-]
	 SCS Same-Spin Energy      =      -0.0845872089685206 [Eh]
	 SCS Opposite-Spin Energy  =      -1.1051965606858734 [Eh]
	 SCS Correlation Energy    =      -1.1897837696543940 [Eh]
	 SCS Total Energy          =    -235.4759514247685956 [Eh]
	-----------------------------------------------------------

  Dipole Moment: [D]
     X:    -0.0039      Y:    -0.0008      Z:    -0.0159     Total:     0.0164

*** Psi4 exiting successfully. Buy a developer a beer!
