                               Psi4 1.3.2 release

  ==> Input File <==

--------------------------------------------------------------------------
#psi4
#
memory 32 gb

molecule  {
0 1
  C       -1.1592290    -0.8823630    -0.2326730
  C       -1.3437640     0.5627420     0.2326680
  C       -0.1845300     1.4451040    -0.2326700
  C        1.1592310     0.8823580     0.2326770
  C        1.3437590    -0.5627420    -0.2326830
  C        0.1845330    -1.4451010     0.2326800
  H       -1.1945216    -0.9092361    -1.1303617
  H       -1.9819560    -1.5085900     0.1331310
  H       -2.2974530     0.9621300    -0.1331460
  H       -1.3937950     0.5836920     1.3301120
  H       -0.1913930     1.4989040    -1.3301140
  H       -0.3154970     2.4707180     0.1331400
  H        1.9819570     1.5085850    -0.1331240
  H        1.2023830     0.9151940     1.3301230
  H        1.3937660    -0.5836850    -1.3301290
  H        2.2974540    -0.9621310     0.1331110
  H        0.3155000    -2.4707190    -0.1331130
  H        0.1914070    -1.4988810     1.3301270
units angstrom
no_reorient  #important for SAPT in psi4, default
symmetry c1  #important for SAPT in psi4, default
}

set PROPERTIES_ORIGIN ["COM"]
properties('MP2/aug-cc-pvtz', properties = ['dipole'])
--------------------------------------------------------------------------

    Molecular point group: c1
  Charge       = 0
  Multiplicity = 1
  Basis Set: AUG-CC-PVTZ
    Blend: AUG-CC-PVTZ
  Basis Set: (AUG-CC-PVTZ AUX)
    Blend: AUG-CC-PVTZ-JKFIT

    Orbital Energies [Eh]
    ---------------------

    Doubly Occupied:

       1A    -11.212325     2A    -11.211984     3A    -11.211462
       4A    -11.210186     5A    -11.210181     6A    -11.186084
       7A     -1.114750     8A     -1.007201     9A     -0.997230
      10A     -0.838415    11A     -0.822892    12A     -0.759263
      13A     -0.645092    14A     -0.609601    15A     -0.601495
      16A     -0.592666    17A     -0.522145    18A     -0.521904
      19A     -0.509320    20A     -0.492462    21A     -0.476877
      22A     -0.451364    23A     -0.422951    24A     -0.422756

  @DF-RHF Final Energy:  -234.25396057865422

   => Energetics <=

    Nuclear Repulsion Energy =            257.2357415180991893
    One-Electron Energy =                -824.8781932233779344
    Two-Electron Energy =                 333.3884911266245012
    Total Energy =                       -234.2539605786542438
  Basis Set: (AUG-CC-PVTZ AUX)
    Blend: AUG-CC-PVTZ-RI
    Molecular point group: c1

    Geometry (in Angstrom), charge = 0, multiplicity = 1:

       Center              X                  Y                   Z               Mass
    ------------   -----------------  -----------------  -----------------  -----------------
         C           -1.159323095260    -0.882434392820    -0.235066840678    12.000000000000
         C           -1.343858095260     0.562670607180     0.230274159322    12.000000000000
         C           -0.184624095260     1.445032607180    -0.235063840678    12.000000000000
         C            1.159136904740     0.882286607180     0.230283159322    12.000000000000
         C            1.343664904740    -0.562813392820    -0.235076840678    12.000000000000
         C            0.184438904740    -1.445172392820     0.230286159322    12.000000000000
         H           -1.194615695260    -0.909307492820    -1.132755540678     1.007825032230
         H           -1.982050095260    -1.508661392820     0.130737159322     1.007825032230
         H           -2.297547095260     0.962058607180    -0.135539840678     1.007825032230
         H           -1.393889095260     0.583620607180     1.327718159322     1.007825032230
         H           -0.191487095260     1.498832607180    -1.332507840678     1.007825032230
         H           -0.315591095260     2.470646607180     0.130746159322     1.007825032230
         H            1.981862904740     1.508513607180    -0.135517840678     1.007825032230
         H            1.202288904740     0.915122607180     1.327729159322     1.007825032230
         H            1.393671904740    -0.583756392820    -1.332522840678     1.007825032230
         H            2.297359904740    -0.962202392820     0.130717159322     1.007825032230
         H            0.315405904740    -2.470790392820    -0.135506840678     1.007825032230
         H            0.191312904740    -1.498952392820     1.327733159322     1.007825032230

  Basis Set: AUG-CC-PVTZ
    Blend: AUG-CC-PVTZ
  Basis Set: (AUG-CC-PVTZ AUX)
    Blend: AUG-CC-PVTZ-JKFIT
	 Reference Energy          =    -234.2539605786542154 [Eh]
	 Singles Energy            =      -0.0000000000000000 [Eh]
	 Same-Spin Energy          =      -0.2537925302076114 [Eh]
	 Opposite-Spin Energy      =      -0.9202664848156844 [Eh]
	 Correlation Energy        =      -1.1740590150232959 [Eh]
	 Total Energy              =    -235.4280195936775044 [Eh]

	 ================> DF-SCS-MP2 Energies <==================
	-----------------------------------------------------------
	 SCS Same-Spin Scale       =       0.3333333333333333 [-]
	 SCS Opposite-Spin Scale   =       1.2000000000000000 [-]
	 SCS Same-Spin Energy      =      -0.0845975100692038 [Eh]
	 SCS Opposite-Spin Energy  =      -1.1043197817788213 [Eh]
	 SCS Correlation Energy    =      -1.1889172918480251 [Eh]
	 SCS Total Energy          =    -235.4428778705022296 [Eh]
	-----------------------------------------------------------

  Dipole Moment: [D]
     X:    -0.0229      Y:    -0.0175      Z:    -0.1151     Total:     0.1187

*** Psi4 exiting successfully. Buy a developer a beer!
