                               Psi4 1.3.2 release

  ==> Input File <==

--------------------------------------------------------------------------
#psi4
#
memory 32 gb

molecule  {
0 1
  C       -1.1592290    -0.8823630    -0.2326730
  C       -1.3437640     0.5627420     0.2326680
  C       -0.1845300     1.4451040    -0.2326700
  C        1.1592310     0.8823580     0.2326770
  C        1.3437590    -0.5627420    -0.2326830
  C        0.1845330    -1.4451010     0.2326800
  H       -1.2023750    -0.9152160    -1.3301180
  H       -1.9819560    -1.5085900     0.1331310
  H       -2.2974530     0.9621300    -0.1331460
  H       -1.3937950     0.5836920     1.3301120
  H       -0.1913930     1.4989040    -1.3301140
  H       -0.3154970     2.4707180     0.1331400
  H        1.9819570     1.5085850    -0.1331240
  H        1.2023830     0.9151940     1.3301230
  H        1.3937660    -0.5836850    -1.3301290
  H        2.2974540    -0.9621310     0.1331110
  H        0.3155000    -2.4707190    -0.1331130
  H        0.1914070    -1.4988810     1.3301270
units angstrom
no_reorient  #important for SAPT in psi4, default
symmetry c1  #important for SAPT in psi4, default
}

set PROPERTIES_ORIGIN ["COM"]
properties('MP2/aug-cc-pvtz', properties = ['dipole'])
--------------------------------------------------------------------------

    Molecular point group: c1
  Charge       = 0
  Multiplicity = 1
  Basis Set: AUG-CC-PVTZ
    Blend: AUG-CC-PVTZ
  Basis Set: (AUG-CC-PVTZ AUX)
    Blend: AUG-CC-PVTZ-JKFIT

    Orbital Energies [Eh]
    ---------------------

    Doubly Occupied:

       1A    -11.212697     2A    -11.212409     3A    -11.212409
       4A    -11.211794     5A    -11.211794     6A    -11.211478
       7A     -1.111293     8A     -0.998034     9A     -0.998034
      10A     -0.823934    11A     -0.823934    12A     -0.747954
      13A     -0.645789    14A     -0.602786    15A     -0.593162
      16A     -0.593162    17A     -0.522888    18A     -0.522888
      19A     -0.510641    20A     -0.477513    21A     -0.477512
      22A     -0.448672    23A     -0.424010    24A     -0.424010

  @DF-RHF Final Energy:  -234.28667081483798

   => Energetics <=

    Nuclear Repulsion Energy =            256.2073780901957321
    One-Electron Energy =                -822.9505064240695447
    Two-Electron Energy =                 332.4564575190357800
    Total Energy =                       -234.2866708148379757
  Basis Set: (AUG-CC-PVTZ AUX)
    Blend: AUG-CC-PVTZ-RI
    Molecular point group: c1

    Geometry (in Angstrom), charge = 0, multiplicity = 1:

       Center              X                  Y                   Z               Mass
    ------------   -----------------  -----------------  -----------------  -----------------
         C           -1.159228976031    -0.882362726589    -0.232672857302    12.000000000000
         C           -1.343763976031     0.562742273411     0.232668142698    12.000000000000
         C           -0.184529976031     1.445104273411    -0.232669857302    12.000000000000
         C            1.159231023969     0.882358273411     0.232677142698    12.000000000000
         C            1.343759023969    -0.562741726589    -0.232682857302    12.000000000000
         C            0.184533023969    -1.445100726589     0.232680142698    12.000000000000
         H           -1.202374976031    -0.915215726589    -1.330117857302     1.007825032230
         H           -1.981955976031    -1.508589726589     0.133131142698     1.007825032230
         H           -2.297452976031     0.962130273411    -0.133145857302     1.007825032230
         H           -1.393794976031     0.583692273411     1.330112142698     1.007825032230
         H           -0.191392976031     1.498904273411    -1.330113857302     1.007825032230
         H           -0.315496976031     2.470718273411     0.133140142698     1.007825032230
         H            1.981957023969     1.508585273411    -0.133123857302     1.007825032230
         H            1.202383023969     0.915194273411     1.330123142698     1.007825032230
         H            1.393766023969    -0.583684726589    -1.330128857302     1.007825032230
         H            2.297454023969    -0.962130726589     0.133111142698     1.007825032230
         H            0.315500023969    -2.470718726589    -0.133112857302     1.007825032230
         H            0.191407023969    -1.498880726589     1.330127142698     1.007825032230

  Basis Set: AUG-CC-PVTZ
    Blend: AUG-CC-PVTZ
  Basis Set: (AUG-CC-PVTZ AUX)
    Blend: AUG-CC-PVTZ-JKFIT
	 Reference Energy          =    -234.2866708148379757 [Eh]
	 Singles Energy            =      -0.0000000000000000 [Eh]
	 Same-Spin Energy          =      -0.2537579968750062 [Eh]
	 Opposite-Spin Energy      =      -0.9208708222867050 [Eh]
	 Correlation Energy        =      -1.1746288191617111 [Eh]
	 Total Energy              =    -235.4612996339996869 [Eh]

	 ================> DF-SCS-MP2 Energies <==================
	-----------------------------------------------------------
	 SCS Same-Spin Scale       =       0.3333333333333333 [-]
	 SCS Opposite-Spin Scale   =       1.2000000000000000 [-]
	 SCS Same-Spin Energy      =      -0.0845859989583354 [Eh]
	 SCS Opposite-Spin Energy  =      -1.1050449867440459 [Eh]
	 SCS Correlation Energy    =      -1.1896309857023812 [Eh]
	 SCS Total Energy          =    -235.4763018005403694 [Eh]
	-----------------------------------------------------------

  Dipole Moment: [D]
     X:     0.0000      Y:    -0.0000      Z:    -0.0000     Total:     0.0000

*** Psi4 exiting successfully. Buy a developer a beer!
