                               Psi4 1.3.2 release

  ==> Input File <==

--------------------------------------------------------------------------
#psi4
#
memory 32 gb

molecule  {
0 1
  C       -1.1592290    -0.8823630    -0.2326730
  C       -1.3459611     0.5704166     0.2071978
  C       -0.1845300     1.4451040    -0.2326700
  C        1.1592310     0.8823580     0.2326770
  C        1.3437590    -0.5627420    -0.2326830
  C        0.1845330    -1.4451010     0.2326800
  H       -1.2023750    -0.9152160    -1.3301180
  H       -1.9819560    -1.5085900     0.1331310
  H       -2.2974530     0.9621300    -0.1331460
  H       -1.3937950     0.5836920     1.3301120
  H       -0.1913930     1.4989040    -1.3301140
  H       -0.3154970     2.4707180     0.1331400
  H        1.9819570     1.5085850    -0.1331240
  H        1.2023830     0.9151940     1.3301230
  H        1.3937660    -0.5836850    -1.3301290
  H        2.2974540    -0.9621310     0.1331110
  H        0.3155000    -2.4707190    -0.1331130
  H        0.1914070    -1.4988810     1.3301270
units angstrom
no_reorient  #important for SAPT in psi4, default
symmetry c1  #important for SAPT in psi4, default
}

set PROPERTIES_ORIGIN ["COM"]
properties('MP2/aug-cc-pvtz', properties = ['dipole'])
--------------------------------------------------------------------------

    Molecular point group: c1
  Charge       = 0
  Multiplicity = 1
  Basis Set: AUG-CC-PVTZ
    Blend: AUG-CC-PVTZ
  Basis Set: (AUG-CC-PVTZ AUX)
    Blend: AUG-CC-PVTZ-JKFIT

    Orbital Energies [Eh]
    ---------------------

    Doubly Occupied:

       1A    -11.213079     2A    -11.212808     3A    -11.212618
       4A    -11.212085     5A    -11.211877     6A    -11.211616
       7A     -1.111831     8A     -0.999314     9A     -0.998058
      10A     -0.825040    11A     -0.823783    12A     -0.746426
      13A     -0.647118    14A     -0.604102    15A     -0.592747
      16A     -0.591345    17A     -0.526016    18A     -0.523145
      19A     -0.512728    20A     -0.477083    21A     -0.473264
      22A     -0.445113    23A     -0.426691    24A     -0.425093

  @DF-RHF Final Energy:  -234.28582129452317

   => Energetics <=

    Nuclear Repulsion Energy =            256.2457846175891518
    One-Electron Energy =                -823.0172558879219196
    Two-Electron Energy =                 332.4856499758095651
    Total Energy =                       -234.2858212945232026
  Basis Set: (AUG-CC-PVTZ AUX)
    Blend: AUG-CC-PVTZ-RI
    Molecular point group: c1

    Geometry (in Angstrom), charge = 0, multiplicity = 1:

       Center              X                  Y                   Z               Mass
    ------------   -----------------  -----------------  -----------------  -----------------
         C           -1.158915455075    -0.883457873795    -0.229038320212    12.000000000000
         C           -1.345647555075     0.569321726205     0.210832479788    12.000000000000
         C           -0.184216455075     1.444009126205    -0.229035320212    12.000000000000
         C            1.159544544925     0.881263126205     0.236311679788    12.000000000000
         C            1.344072544925    -0.563836873795    -0.229048320212    12.000000000000
         C            0.184846544925    -1.446195873795     0.236314679788    12.000000000000
         H           -1.202061455075    -0.916310873795    -1.326483320212     1.007825032230
         H           -1.981642455075    -1.509684873795     0.136765679788     1.007825032230
         H           -2.297139455075     0.961035126205    -0.129511320212     1.007825032230
         H           -1.393481455075     0.582597126205     1.333746679788     1.007825032230
         H           -0.191079455075     1.497809126205    -1.326479320212     1.007825032230
         H           -0.315183455075     2.469623126205     0.136774679788     1.007825032230
         H            1.982270544925     1.507490126205    -0.129489320212     1.007825032230
         H            1.202696544925     0.914099126205     1.333757679788     1.007825032230
         H            1.394079544925    -0.584779873795    -1.326494320212     1.007825032230
         H            2.297767544925    -0.963225873795     0.136745679788     1.007825032230
         H            0.315813544925    -2.471813873795    -0.129478320212     1.007825032230
         H            0.191720544925    -1.499975873795     1.333761679788     1.007825032230

  Basis Set: AUG-CC-PVTZ
    Blend: AUG-CC-PVTZ
  Basis Set: (AUG-CC-PVTZ AUX)
    Blend: AUG-CC-PVTZ-JKFIT
	 Reference Energy          =    -234.2858212945231742 [Eh]
	 Singles Energy            =      -0.0000000000000000 [Eh]
	 Same-Spin Energy          =      -0.2538282419040344 [Eh]
	 Opposite-Spin Energy      =      -0.9209760601055106 [Eh]
	 Correlation Energy        =      -1.1748043020095449 [Eh]
	 Total Energy              =    -235.4606255965327080 [Eh]

	 ================> DF-SCS-MP2 Energies <==================
	-----------------------------------------------------------
	 SCS Same-Spin Scale       =       0.3333333333333333 [-]
	 SCS Opposite-Spin Scale   =       1.2000000000000000 [-]
	 SCS Same-Spin Energy      =      -0.0846094139680115 [Eh]
	 SCS Opposite-Spin Energy  =      -1.1051712721266127 [Eh]
	 SCS Correlation Energy    =      -1.1897806860946241 [Eh]
	 SCS Total Energy          =    -235.4756019806177960 [Eh]
	-----------------------------------------------------------

  Dipole Moment: [D]
     X:     0.0011      Y:     0.0012      Z:    -0.0164     Total:     0.0165

*** Psi4 exiting successfully. Buy a developer a beer!
