                               Psi4 1.4a3.dev225

  ==> Input File <==

--------------------------------------------------------------------------
#psi4
#
memory 32 gb

molecule  {
0 1
  C        1.4254670     0.3007170     0.2326930
  C        0.4204882     1.4202928    -0.2479069
  C       -0.9731630     1.0841320     0.2326920
  C       -1.4254670    -0.3007180    -0.2326930
  C       -0.4523040    -1.3848490     0.2326940
  C        0.9731620    -1.0841320    -0.2326940
  H        1.4785550     0.3119140     1.3301460
  H        2.4371320     0.5141410    -0.1331240
  H        0.7733080     2.3676870     0.1331270
  H        0.4691510     1.4364260    -1.3301450
  H       -1.0094080     1.1245070     1.3301450
  H       -1.6638220     1.8535490    -0.1331270
  H       -2.4371330    -0.5141380     0.1331220
  H       -1.4785520    -0.3119200    -1.3301460
  H       -0.4691470    -1.4364190     1.3301470
  H       -0.7733090    -2.3676890    -0.1331180
  H        1.6638250    -1.8535490     0.1331190
  H        1.0094000    -1.1245050    -1.3301470
units angstrom
no_reorient  #important for SAPT in psi4, default
symmetry c1  #important for SAPT in psi4, default
}

set PROPERTIES_ORIGIN ["COM"]
properties('MP2/aug-cc-pvtz', properties = ['dipole'])
--------------------------------------------------------------------------

    Molecular point group: c1
  Charge       = 0
  Multiplicity = 1
  Basis Set: AUG-CC-PVTZ
    Blend: AUG-CC-PVTZ
  Basis Set: (AUG-CC-PVTZ AUX)
    Blend: AUG-CC-PVTZ-JKFIT

    Orbital Energies [Eh]
    ---------------------

    Doubly Occupied:

       1A    -11.213552     2A    -11.212764     3A    -11.212090
       4A    -11.211553     5A    -11.211481     6A    -11.210805
       7A     -1.109127     8A     -1.000532     9A     -0.993313
      10A     -0.826501    11A     -0.821564    12A     -0.748800
      13A     -0.644364    14A     -0.604119    15A     -0.594782
      16A     -0.592161    17A     -0.525115    18A     -0.520159
      19A     -0.508314    20A     -0.480001    21A     -0.476965
      22A     -0.450286    23A     -0.428482    24A     -0.416028

  @DF-RHF Final Energy:  -234.28480109394923

   => Energetics <=

    Nuclear Repulsion Energy =            255.7958920276941797
    One-Electron Energy =                -822.1356744004483517
    Two-Electron Energy =                 332.0549812788049167
    Total Energy =                       -234.2848010939492269
  Basis Set: (AUG-CC-PVTZ AUX)
    Blend: AUG-CC-PVTZ-RI
    Molecular point group: c1

    Geometry (in Angstrom), charge = 0, multiplicity = 1:

       Center              X                  Y                   Z               Mass
    ------------   -----------------  -----------------  -----------------  -----------------
         C            1.430007181847     0.295659348620     0.234864142104    12.000000000000
         C            0.425028381847     1.415235148620    -0.245735757896    12.000000000000
         C           -0.968622818153     1.079074348620     0.234863142104    12.000000000000
         C           -1.420926818153    -0.305775651380    -0.230521857896    12.000000000000
         C           -0.447763818153    -1.389906651380     0.234865142104    12.000000000000
         C            0.977702181847    -1.089189651380    -0.230522857896    12.000000000000
         H            1.483095181847     0.306856348620     1.332317142104     1.007825032230
         H            2.441672181847     0.509083348620    -0.130952857896     1.007825032230
         H            0.777848181847     2.362629348620     0.135298142104     1.007825032230
         H            0.473691181847     1.431368348620    -1.327973857896     1.007825032230
         H           -1.004867818153     1.119449348620     1.332316142104     1.007825032230
         H           -1.659281818153     1.848491348620    -0.130955857896     1.007825032230
         H           -2.432592818153    -0.519195651380     0.135293142104     1.007825032230
         H           -1.474011818153    -0.316977651380    -1.327974857896     1.007825032230
         H           -0.464606818153    -1.441476651380     1.332318142104     1.007825032230
         H           -0.768768818153    -2.372746651380    -0.130946857896     1.007825032230
         H            1.668365181847    -1.858606651380     0.135290142104     1.007825032230
         H            1.013940181847    -1.129562651380    -1.327975857896     1.007825032230

  Basis Set: AUG-CC-PVTZ
    Blend: AUG-CC-PVTZ
  Basis Set: (AUG-CC-PVTZ AUX)
    Blend: AUG-CC-PVTZ-JKFIT
	 Reference Energy          =    -234.2848010939492269 [Eh]
	 Singles Energy            =      -0.0000000000000000 [Eh]
	 Same-Spin Energy          =      -0.2536350260502191 [Eh]
	 Opposite-Spin Energy      =      -0.9208432391847283 [Eh]
	 Correlation Energy        =      -1.1744782652349475 [Eh]
	 Total Energy              =    -235.4592793591841655 [Eh]

	 ================> DF-SCS-MP2 Energies <==================
	-----------------------------------------------------------
	 SCS Same-Spin Scale       =       0.3333333333333333 [-]
	 SCS Opposite-Spin Scale   =       1.2000000000000000 [-]
	 SCS Same-Spin Energy      =      -0.0845450086834064 [Eh]
	 SCS Opposite-Spin Energy  =      -1.1050118870216739 [Eh]
	 SCS Correlation Energy    =      -1.1895568957050802 [Eh]
	 SCS Total Energy          =    -235.4743579896542940 [Eh]
	-----------------------------------------------------------

  Dipole Moment: [D]
     X:    -0.0071      Y:     0.0091      Z:    -0.0072     Total:     0.0136

*** Psi4 exiting successfully. Buy a developer a beer!
