                               Psi4 1.3.2 release

  ==> Input File <==

--------------------------------------------------------------------------
#psi4
#
memory 32 gb

molecule  {
0 1
  C       -1.1592290    -0.8823630    -0.2326730
  C       -1.3522085     0.5907767     0.1300145
  C       -0.1845300     1.4451040    -0.2326700
  C        1.1592310     0.8823580     0.2326770
  C        1.3437590    -0.5627420    -0.2326830
  C        0.1845330    -1.4451010     0.2326800
  H       -1.2023750    -0.9152160    -1.3301180
  H       -1.9819560    -1.5085900     0.1331310
  H       -2.2974530     0.9621300    -0.1331460
  H       -1.3937950     0.5836920     1.3301120
  H       -0.1913930     1.4989040    -1.3301140
  H       -0.3154970     2.4707180     0.1331400
  H        1.9819570     1.5085850    -0.1331240
  H        1.2023830     0.9151940     1.3301230
  H        1.3937660    -0.5836850    -1.3301290
  H        2.2974540    -0.9621310     0.1331110
  H        0.3155000    -2.4707190    -0.1331130
  H        0.1914070    -1.4988810     1.3301270
units angstrom
no_reorient  #important for SAPT in psi4, default
symmetry c1  #important for SAPT in psi4, default
}

set PROPERTIES_ORIGIN ["COM"]
properties('MP2/aug-cc-pvtz', properties = ['dipole'])
--------------------------------------------------------------------------

    Molecular point group: c1
  Charge       = 0
  Multiplicity = 1
  Basis Set: AUG-CC-PVTZ
    Blend: AUG-CC-PVTZ
  Basis Set: (AUG-CC-PVTZ AUX)
    Blend: AUG-CC-PVTZ-JKFIT

    Orbital Energies [Eh]
    ---------------------

    Doubly Occupied:

       1A    -11.216430     2A    -11.214015     3A    -11.213708
       4A    -11.213134     5A    -11.212675     6A    -11.211826
       7A     -1.113787     8A     -1.003397     9A     -0.998560
      10A     -0.828662    11A     -0.824471    12A     -0.743064
      13A     -0.651693    14A     -0.607715    15A     -0.591700
      16A     -0.586740    17A     -0.535464    18A     -0.524449
      19A     -0.518933    20A     -0.475914    21A     -0.466455
      22A     -0.433697    23A     -0.429993    24A     -0.425330

  @DF-RHF Final Energy:  -234.27504529354113

   => Energetics <=

    Nuclear Repulsion Energy =            256.3435042458451107
    One-Electron Energy =                -823.1534734941918714
    Two-Electron Energy =                 332.5349239548056630
    Total Energy =                       -234.2750452935410976
  Basis Set: (AUG-CC-PVTZ AUX)
    Blend: AUG-CC-PVTZ-RI
    Molecular point group: c1

    Geometry (in Angstrom), charge = 0, multiplicity = 1:

       Center              X                  Y                   Z               Mass
    ------------   -----------------  -----------------  -----------------  -----------------
         C           -1.158023965923    -0.886363211743    -0.218024446486    12.000000000000
         C           -1.351003465923     0.586776488257     0.144663053514    12.000000000000
         C           -0.183324965923     1.441103788257    -0.218021446486    12.000000000000
         C            1.160436034077     0.878357788257     0.247325553514    12.000000000000
         C            1.344964034077    -0.566742211743    -0.218034446486    12.000000000000
         C            0.185738034077    -1.449101211743     0.247328553514    12.000000000000
         H           -1.201169965923    -0.919216211743    -1.315469446486     1.007825032230
         H           -1.980750965923    -1.512590211743     0.147779553514     1.007825032230
         H           -2.296247965923     0.958129788257    -0.118497446486     1.007825032230
         H           -1.392589965923     0.579691788257     1.344760553514     1.007825032230
         H           -0.190187965923     1.494903788257    -1.315465446486     1.007825032230
         H           -0.314291965923     2.466717788257     0.147788553514     1.007825032230
         H            1.983162034077     1.504584788257    -0.118475446486     1.007825032230
         H            1.203588034077     0.911193788257     1.344771553514     1.007825032230
         H            1.394971034077    -0.587685211743    -1.315480446486     1.007825032230
         H            2.298659034077    -0.966131211743     0.147759553514     1.007825032230
         H            0.316705034077    -2.474719211743    -0.118464446486     1.007825032230
         H            0.192612034077    -1.502881211743     1.344775553514     1.007825032230

  Basis Set: AUG-CC-PVTZ
    Blend: AUG-CC-PVTZ
  Basis Set: (AUG-CC-PVTZ AUX)
    Blend: AUG-CC-PVTZ-JKFIT
	 Reference Energy          =    -234.2750452935411261 [Eh]
	 Singles Energy            =      -0.0000000000000000 [Eh]
	 Same-Spin Energy          =      -0.2541895265601087 [Eh]
	 Opposite-Spin Energy      =      -0.9217488343636498 [Eh]
	 Correlation Energy        =      -1.1759383609237586 [Eh]
	 Total Energy              =    -235.4509836544648920 [Eh]

	 ================> DF-SCS-MP2 Energies <==================
	-----------------------------------------------------------
	 SCS Same-Spin Scale       =       0.3333333333333333 [-]
	 SCS Opposite-Spin Scale   =       1.2000000000000000 [-]
	 SCS Same-Spin Energy      =      -0.0847298421867029 [Eh]
	 SCS Opposite-Spin Energy  =      -1.1060986012363798 [Eh]
	 SCS Correlation Energy    =      -1.1908284434230827 [Eh]
	 SCS Total Energy          =    -235.4658737369641983 [Eh]
	-----------------------------------------------------------

  Dipole Moment: [D]
     X:     0.0168      Y:     0.0000      Z:    -0.0823     Total:     0.0840

*** Psi4 exiting successfully. Buy a developer a beer!
