                               Psi4 1.3.2 release

  ==> Input File <==

--------------------------------------------------------------------------
#psi4
#
memory 32 gb

molecule  {
0 1
  C       -1.1592290    -0.8823630    -0.2326730
  C       -1.3344205     0.5276669     0.3330544
  C       -0.1845300     1.4451040    -0.2326700
  C        1.1592310     0.8823580     0.2326770
  C        1.3437590    -0.5627420    -0.2326830
  C        0.1845330    -1.4451010     0.2326800
  H       -1.2023750    -0.9152160    -1.3301180
  H       -1.9819560    -1.5085900     0.1331310
  H       -2.2974530     0.9621300    -0.1331460
  H       -1.3937950     0.5836920     1.3301120
  H       -0.1913930     1.4989040    -1.3301140
  H       -0.3154970     2.4707180     0.1331400
  H        1.9819570     1.5085850    -0.1331240
  H        1.2023830     0.9151940     1.3301230
  H        1.3937660    -0.5836850    -1.3301290
  H        2.2974540    -0.9621310     0.1331110
  H        0.3155000    -2.4707190    -0.1331130
  H        0.1914070    -1.4988810     1.3301270
units angstrom
no_reorient  #important for SAPT in psi4, default
symmetry c1  #important for SAPT in psi4, default
}

set PROPERTIES_ORIGIN ["COM"]
properties('MP2/aug-cc-pvtz', properties = ['dipole'])
--------------------------------------------------------------------------

    Molecular point group: c1
  Charge       = 0
  Multiplicity = 1
  Basis Set: AUG-CC-PVTZ
    Blend: AUG-CC-PVTZ
  Basis Set: (AUG-CC-PVTZ AUX)
    Blend: AUG-CC-PVTZ-JKFIT

    Orbital Energies [Eh]
    ---------------------

    Doubly Occupied:

       1A    -11.214110     2A    -11.212832     3A    -11.211921
       4A    -11.211169     5A    -11.211077     6A    -11.210688
       7A     -1.109752     8A     -0.998683     9A     -0.993531
      10A     -0.827362    11A     -0.820176    12A     -0.755395
      13A     -0.642184    14A     -0.602266    15A     -0.596681
      16A     -0.594460    17A     -0.522500    18A     -0.511415
      19A     -0.504936    20A     -0.497256    21A     -0.479370
      22A     -0.454809    23A     -0.418920    24A     -0.411316

  @DF-RHF Final Energy:  -234.27336418655659

   => Energetics <=

    Nuclear Repulsion Energy =            256.0387762920408932
    One-Electron Energy =                -822.5986566346065274
    Two-Electron Energy =                 332.2865161560090428
    Total Energy =                       -234.2733641865565914
  Basis Set: (AUG-CC-PVTZ AUX)
    Blend: AUG-CC-PVTZ-RI
    Molecular point group: c1

    Geometry (in Angstrom), charge = 0, multiplicity = 1:

       Center              X                  Y                   Z               Mass
    ------------   -----------------  -----------------  -----------------  -----------------
         C           -1.160562271305    -0.877357593065    -0.246997758329    12.000000000000
         C           -1.335753771305     0.532672306935     0.318729641671    12.000000000000
         C           -0.185863271305     1.450109406935    -0.246994758329    12.000000000000
         C            1.157897728695     0.887363406935     0.218352241671    12.000000000000
         C            1.342425728695    -0.557736593065    -0.247007758329    12.000000000000
         C            0.183199728695    -1.440095593065     0.218355241671    12.000000000000
         H           -1.203708271305    -0.910210593065    -1.344442758329     1.007825032230
         H           -1.983289271305    -1.503584593065     0.118806241671     1.007825032230
         H           -2.298786271305     0.967135406935    -0.147470758329     1.007825032230
         H           -1.395128271305     0.588697406935     1.315787241671     1.007825032230
         H           -0.192726271305     1.503909406935    -1.344438758329     1.007825032230
         H           -0.316830271305     2.475723406935     0.118815241671     1.007825032230
         H            1.980623728695     1.513590406935    -0.147448758329     1.007825032230
         H            1.201049728695     0.920199406935     1.315798241671     1.007825032230
         H            1.392432728695    -0.578679593065    -1.344453758329     1.007825032230
         H            2.296120728695    -0.957125593065     0.118786241671     1.007825032230
         H            0.314166728695    -2.465713593065    -0.147437758329     1.007825032230
         H            0.190073728695    -1.493875593065     1.315802241671     1.007825032230

  Basis Set: AUG-CC-PVTZ
    Blend: AUG-CC-PVTZ
  Basis Set: (AUG-CC-PVTZ AUX)
    Blend: AUG-CC-PVTZ-JKFIT
	 Reference Energy          =    -234.2733641865565914 [Eh]
	 Singles Energy            =      -0.0000000000000000 [Eh]
	 Same-Spin Energy          =      -0.2537523269427423 [Eh]
	 Opposite-Spin Energy      =      -0.9213512400449029 [Eh]
	 Correlation Energy        =      -1.1751035669876453 [Eh]
	 Total Energy              =    -235.4484677535442358 [Eh]

	 ================> DF-SCS-MP2 Energies <==================
	-----------------------------------------------------------
	 SCS Same-Spin Scale       =       0.3333333333333333 [-]
	 SCS Opposite-Spin Scale   =       1.2000000000000000 [-]
	 SCS Same-Spin Energy      =      -0.0845841089809141 [Eh]
	 SCS Opposite-Spin Energy  =      -1.1056214880538835 [Eh]
	 SCS Correlation Energy    =      -1.1902055970347976 [Eh]
	 SCS Total Energy          =    -235.4635697835913959 [Eh]
	-----------------------------------------------------------

  Dipole Moment: [D]
     X:     0.0166      Y:    -0.0144      Z:     0.0384     Total:     0.0442

*** Psi4 exiting successfully. Buy a developer a beer!
