                               Psi4 1.4a3.dev225

  ==> Input File <==

--------------------------------------------------------------------------
#psi4
#
memory 32 gb

molecule  {
0 1
  C        1.4254670     0.3007170     0.2326930
  C        0.4523040     1.3848490    -0.2326920
  C       -0.9731630     1.0841320     0.2326920
  C       -1.4254670    -0.3007180    -0.2326930
  C       -0.4523040    -1.3848490     0.2326940
  C        0.9731620    -1.0841320    -0.2326940
  H        1.4809707     0.3124235     1.3800850
  H        2.4371320     0.5141410    -0.1331240
  H        0.7733080     2.3676870     0.1331270
  H        0.4691510     1.4364260    -1.3301450
  H       -1.0094080     1.1245070     1.3301450
  H       -1.6638220     1.8535490    -0.1331270
  H       -2.4371330    -0.5141380     0.1331220
  H       -1.4785520    -0.3119200    -1.3301460
  H       -0.4691470    -1.4364190     1.3301470
  H       -0.7733090    -2.3676890    -0.1331180
  H        1.6638250    -1.8535490     0.1331190
  H        1.0094000    -1.1245050    -1.3301470
units angstrom
no_reorient  #important for SAPT in psi4, default
symmetry c1  #important for SAPT in psi4, default
}

set PROPERTIES_ORIGIN ["COM"]
properties('MP2/aug-cc-pvtz', properties = ['dipole'])
--------------------------------------------------------------------------

    Molecular point group: c1
  Charge       = 0
  Multiplicity = 1
  Basis Set: AUG-CC-PVTZ
    Blend: AUG-CC-PVTZ
  Basis Set: (AUG-CC-PVTZ AUX)
    Blend: AUG-CC-PVTZ-JKFIT

    Orbital Energies [Eh]
    ---------------------

    Doubly Occupied:

       1A    -11.218455     2A    -11.212911     3A    -11.212892
       4A    -11.212492     5A    -11.212062     6A    -11.211721
       7A     -1.110966     8A     -0.998331     9A     -0.996805
      10A     -0.824307    11A     -0.821902    12A     -0.745486
      13A     -0.646128    14A     -0.602997    15A     -0.593372
      16A     -0.589657    17A     -0.523348    18A     -0.523167
      19A     -0.511128    20A     -0.477772    21A     -0.473592
      22A     -0.447118    23A     -0.424471    24A     -0.424403

  @DF-RHF Final Energy:  -234.28464238975067

   => Energetics <=

    Nuclear Repulsion Energy =            255.9853960205102510
    One-Electron Energy =                -822.5091092940341468
    Two-Electron Energy =                 332.2390708837731950
    Total Energy =                       -234.2846423897506725
  Basis Set: (AUG-CC-PVTZ AUX)
    Blend: AUG-CC-PVTZ-RI
    Molecular point group: c1

    Geometry (in Angstrom), charge = 0, multiplicity = 1:

       Center              X                  Y                   Z               Mass
    ------------   -----------------  -----------------  -----------------  -----------------
         C            1.425438191693     0.300710988647     0.232094517040    12.000000000000
         C            0.452275191693     1.384842988647    -0.233290482960    12.000000000000
         C           -0.973191808307     1.084125988647     0.232093517040    12.000000000000
         C           -1.425495808307    -0.300724011353    -0.233291482960    12.000000000000
         C           -0.452332808307    -1.384855011353     0.232095517040    12.000000000000
         C            0.973133191693    -1.084138011353    -0.233292482960    12.000000000000
         H            1.480941891693     0.312417488647     1.379486517040     1.007825032230
         H            2.437103191693     0.514134988647    -0.133722482960     1.007825032230
         H            0.773279191693     2.367680988647     0.132528517040     1.007825032230
         H            0.469122191693     1.436419988647    -1.330743482960     1.007825032230
         H           -1.009436808307     1.124500988647     1.329546517040     1.007825032230
         H           -1.663850808307     1.853542988647    -0.133725482960     1.007825032230
         H           -2.437161808307    -0.514144011353     0.132523517040     1.007825032230
         H           -1.478580808307    -0.311926011353    -1.330744482960     1.007825032230
         H           -0.469175808307    -1.436425011353     1.329548517040     1.007825032230
         H           -0.773337808307    -2.367695011353    -0.133716482960     1.007825032230
         H            1.663796191693    -1.853555011353     0.132520517040     1.007825032230
         H            1.009371191693    -1.124511011353    -1.330745482960     1.007825032230

  Basis Set: AUG-CC-PVTZ
    Blend: AUG-CC-PVTZ
  Basis Set: (AUG-CC-PVTZ AUX)
    Blend: AUG-CC-PVTZ-JKFIT
	 Reference Energy          =    -234.2846423897506725 [Eh]
	 Singles Energy            =      -0.0000000000000000 [Eh]
	 Same-Spin Energy          =      -0.2537685409692322 [Eh]
	 Opposite-Spin Energy      =      -0.9212011800272388 [Eh]
	 Correlation Energy        =      -1.1749697209964711 [Eh]
	 Total Energy              =    -235.4596121107471447 [Eh]

	 ================> DF-SCS-MP2 Energies <==================
	-----------------------------------------------------------
	 SCS Same-Spin Scale       =       0.3333333333333333 [-]
	 SCS Opposite-Spin Scale   =       1.2000000000000000 [-]
	 SCS Same-Spin Energy      =      -0.0845895136564107 [Eh]
	 SCS Opposite-Spin Energy  =      -1.1054414160326866 [Eh]
	 SCS Correlation Energy    =      -1.1900309296890974 [Eh]
	 SCS Total Energy          =    -235.4746733194397734 [Eh]
	-----------------------------------------------------------

  Dipole Moment: [D]
     X:    -0.0102      Y:    -0.0022      Z:    -0.0412     Total:     0.0425

*** Psi4 exiting successfully. Buy a developer a beer!
