                               Psi4 1.3.2 release

  ==> Input File <==

--------------------------------------------------------------------------
#psi4
#
memory 32 gb

molecule  {
0 1
  C       -1.1592290    -0.8823630    -0.2326730
  C       -1.3560806     0.6021099     0.0779935
  C       -0.1845300     1.4451040    -0.2326700
  C        1.1592310     0.8823580     0.2326770
  C        1.3437590    -0.5627420    -0.2326830
  C        0.1845330    -1.4451010     0.2326800
  H       -1.2023750    -0.9152160    -1.3301180
  H       -1.9819560    -1.5085900     0.1331310
  H       -2.2974530     0.9621300    -0.1331460
  H       -1.3937950     0.5836920     1.3301120
  H       -0.1913930     1.4989040    -1.3301140
  H       -0.3154970     2.4707180     0.1331400
  H        1.9819570     1.5085850    -0.1331240
  H        1.2023830     0.9151940     1.3301230
  H        1.3937660    -0.5836850    -1.3301290
  H        2.2974540    -0.9621310     0.1331110
  H        0.3155000    -2.4707190    -0.1331130
  H        0.1914070    -1.4988810     1.3301270
units angstrom
no_reorient  #important for SAPT in psi4, default
symmetry c1  #important for SAPT in psi4, default
}

set PROPERTIES_ORIGIN ["COM"]
properties('MP2/aug-cc-pvtz', properties = ['dipole'])
--------------------------------------------------------------------------

    Molecular point group: c1
  Charge       = 0
  Multiplicity = 1
  Basis Set: AUG-CC-PVTZ
    Blend: AUG-CC-PVTZ
  Basis Set: (AUG-CC-PVTZ AUX)
    Blend: AUG-CC-PVTZ-JKFIT

    Orbital Energies [Eh]
    ---------------------

    Doubly Occupied:

       1A    -11.219886     2A    -11.215026     3A    -11.214767
       4A    -11.214129     5A    -11.213303     6A    -11.212473
       7A     -1.115360     8A     -1.006245     9A     -0.999237
      10A     -0.831272    11A     -0.825627    12A     -0.741924
      13A     -0.654936    14A     -0.609813    15A     -0.591224
      16A     -0.584574    17A     -0.541441    18A     -0.526318
      19A     -0.522298    20A     -0.475260    21A     -0.465018
      22A     -0.437455    23A     -0.430461    24A     -0.411260

  @DF-RHF Final Energy:  -234.26213646160991

   => Energetics <=

    Nuclear Repulsion Energy =            256.3885771306186712
    One-Electron Energy =                -823.1828153288382737
    Two-Electron Energy =                 332.5321017366096612
    Total Energy =                       -234.2621364616098845
  Basis Set: (AUG-CC-PVTZ AUX)
    Blend: AUG-CC-PVTZ-RI
    Molecular point group: c1

    Geometry (in Angstrom), charge = 0, multiplicity = 1:

       Center              X                  Y                   Z               Mass
    ------------   -----------------  -----------------  -----------------  -----------------
         C           -1.157471426443    -0.887980432485    -0.210601173251    12.000000000000
         C           -1.354323026443     0.596492467515     0.100065326749    12.000000000000
         C           -0.182772426443     1.439486567515    -0.210598173251    12.000000000000
         C            1.160988573557     0.876740567515     0.254748826749    12.000000000000
         C            1.345516573557    -0.568359432485    -0.210611173251    12.000000000000
         C            0.186290573557    -1.450718432485     0.254751826749    12.000000000000
         H           -1.200617426443    -0.920833432485    -1.308046173251     1.007825032230
         H           -1.980198426443    -1.514207432485     0.155202826749     1.007825032230
         H           -2.295695426443     0.956512567515    -0.111074173251     1.007825032230
         H           -1.392037426443     0.578074567515     1.352183826749     1.007825032230
         H           -0.189635426443     1.493286567515    -1.308042173251     1.007825032230
         H           -0.313739426443     2.465100567515     0.155211826749     1.007825032230
         H            1.983714573557     1.502967567515    -0.111052173251     1.007825032230
         H            1.204140573557     0.909576567515     1.352194826749     1.007825032230
         H            1.395523573557    -0.589302432485    -1.308057173251     1.007825032230
         H            2.299211573557    -0.967748432485     0.155182826749     1.007825032230
         H            0.317257573557    -2.476336432485    -0.111041173251     1.007825032230
         H            0.193164573557    -1.504498432485     1.352198826749     1.007825032230

  Basis Set: AUG-CC-PVTZ
    Blend: AUG-CC-PVTZ
  Basis Set: (AUG-CC-PVTZ AUX)
    Blend: AUG-CC-PVTZ-JKFIT
	 Reference Energy          =    -234.2621364616099129 [Eh]
	 Singles Energy            =      -0.0000000000000000 [Eh]
	 Same-Spin Energy          =      -0.2545478566981433 [Eh]
	 Opposite-Spin Energy      =      -0.9225985817819768 [Eh]
	 Correlation Energy        =      -1.1771464384801202 [Eh]
	 Total Energy              =    -235.4392829000900349 [Eh]

	 ================> DF-SCS-MP2 Energies <==================
	-----------------------------------------------------------
	 SCS Same-Spin Scale       =       0.3333333333333333 [-]
	 SCS Opposite-Spin Scale   =       1.2000000000000000 [-]
	 SCS Same-Spin Energy      =      -0.0848492855660478 [Eh]
	 SCS Opposite-Spin Energy  =      -1.1071182981383723 [Eh]
	 SCS Correlation Energy    =      -1.1919675837044201 [Eh]
	 SCS Total Energy          =    -235.4541040453143239 [Eh]
	-----------------------------------------------------------

  Dipole Moment: [D]
     X:     0.0369      Y:    -0.0043      Z:    -0.1396     Total:     0.1445

*** Psi4 exiting successfully. Buy a developer a beer!
