                               Psi4 1.4a3.dev225

  ==> Input File <==

--------------------------------------------------------------------------
#psi4
#
memory 32 gb

molecule  {
0 1
  C        1.4254670     0.3007170     0.2326930
  C        0.4523040     1.3848490    -0.2326920
  C       -0.9731630     1.0841320     0.2326920
  C       -1.4254670    -0.3007180    -0.2326930
  C       -0.4523040    -1.3848490     0.2326940
  C        0.9731620    -1.0841320    -0.2326940
  H        1.4761393     0.3114045     1.2802070
  H        2.4371320     0.5141410    -0.1331240
  H        0.7733080     2.3676870     0.1331270
  H        0.4691510     1.4364260    -1.3301450
  H       -1.0094080     1.1245070     1.3301450
  H       -1.6638220     1.8535490    -0.1331270
  H       -2.4371330    -0.5141380     0.1331220
  H       -1.4785520    -0.3119200    -1.3301460
  H       -0.4691470    -1.4364190     1.3301470
  H       -0.7733090    -2.3676890    -0.1331180
  H        1.6638250    -1.8535490     0.1331190
  H        1.0094000    -1.1245050    -1.3301470
units angstrom
no_reorient  #important for SAPT in psi4, default
symmetry c1  #important for SAPT in psi4, default
}

set PROPERTIES_ORIGIN ["COM"]
properties('MP2/aug-cc-pvtz', properties = ['dipole'])
--------------------------------------------------------------------------

    Molecular point group: c1
  Charge       = 0
  Multiplicity = 1
  Basis Set: AUG-CC-PVTZ
    Blend: AUG-CC-PVTZ
  Basis Set: (AUG-CC-PVTZ AUX)
    Blend: AUG-CC-PVTZ-JKFIT

    Orbital Energies [Eh]
    ---------------------

    Doubly Occupied:

       1A    -11.212493     2A    -11.212178     3A    -11.211752
       4A    -11.211382     5A    -11.211325     6A    -11.205598
       7A     -1.111790     8A     -0.999629     9A     -0.997769
      10A     -0.826529    11A     -0.823604    12A     -0.750644
      13A     -0.645511    14A     -0.602696    15A     -0.596821
      16A     -0.592986    17A     -0.522642    18A     -0.522504
      19A     -0.510200    20A     -0.481527    21A     -0.477304
      22A     -0.449735    23A     -0.423658    24A     -0.423596

  @DF-RHF Final Energy:  -234.28574424921766

   => Energetics <=

    Nuclear Repulsion Energy =            256.4388322692596489
    One-Electron Energy =                -823.4014079249012639
    Two-Electron Energy =                 332.6768314064239007
    Total Energy =                       -234.2857442492176574
  Basis Set: (AUG-CC-PVTZ AUX)
    Blend: AUG-CC-PVTZ-RI
    Molecular point group: c1

    Geometry (in Angstrom), charge = 0, multiplicity = 1:

       Center              X                  Y                   Z               Mass
    ------------   -----------------  -----------------  -----------------  -----------------
         C            1.425496093703     0.300723200872     0.233291506929    12.000000000000
         C            0.452333093703     1.384855200872    -0.232093493071    12.000000000000
         C           -0.973133906297     1.084138200872     0.233290506929    12.000000000000
         C           -1.425437906297    -0.300711799128    -0.232094493071    12.000000000000
         C           -0.452274906297    -1.384842799128     0.233292506929    12.000000000000
         C            0.973191093703    -1.084125799128    -0.232095493071    12.000000000000
         H            1.476168393703     0.311410700872     1.280805506929     1.007825032230
         H            2.437161093703     0.514147200872    -0.132525493071     1.007825032230
         H            0.773337093703     2.367693200872     0.133725506929     1.007825032230
         H            0.469180093703     1.436432200872    -1.329546493071     1.007825032230
         H           -1.009378906297     1.124513200872     1.330743506929     1.007825032230
         H           -1.663792906297     1.853555200872    -0.132528493071     1.007825032230
         H           -2.437103906297    -0.514131799128     0.133720506929     1.007825032230
         H           -1.478522906297    -0.311913799128    -1.329547493071     1.007825032230
         H           -0.469117906297    -1.436412799128     1.330745506929     1.007825032230
         H           -0.773279906297    -2.367682799128    -0.132519493071     1.007825032230
         H            1.663854093703    -1.853542799128     0.133717506929     1.007825032230
         H            1.009429093703    -1.124498799128    -1.329548493071     1.007825032230

  Basis Set: AUG-CC-PVTZ
    Blend: AUG-CC-PVTZ
  Basis Set: (AUG-CC-PVTZ AUX)
    Blend: AUG-CC-PVTZ-JKFIT
	 Reference Energy          =    -234.2857442492176574 [Eh]
	 Singles Energy            =      -0.0000000000000000 [Eh]
	 Same-Spin Energy          =      -0.2537494356940940 [Eh]
	 Opposite-Spin Energy      =      -0.9205953450421253 [Eh]
	 Correlation Energy        =      -1.1743447807362193 [Eh]
	 Total Energy              =    -235.4600890299538776 [Eh]

	 ================> DF-SCS-MP2 Energies <==================
	-----------------------------------------------------------
	 SCS Same-Spin Scale       =       0.3333333333333333 [-]
	 SCS Opposite-Spin Scale   =       1.2000000000000000 [-]
	 SCS Same-Spin Energy      =      -0.0845831452313646 [Eh]
	 SCS Opposite-Spin Energy  =      -1.1047144140505503 [Eh]
	 SCS Correlation Energy    =      -1.1892975592819148 [Eh]
	 SCS Total Energy          =    -235.4750418084995829 [Eh]
	-----------------------------------------------------------

  Dipole Moment: [D]
     X:     0.0089      Y:     0.0019      Z:     0.0363     Total:     0.0374

*** Psi4 exiting successfully. Buy a developer a beer!
