                               Psi4 1.4a3.dev225

  ==> Input File <==

--------------------------------------------------------------------------
#psi4
#
memory 32 gb

molecule  {
0 1
  C        1.4254670     0.3007170     0.2326930
  C        0.4650303     1.3706715    -0.2266060
  C       -0.9731630     1.0841320     0.2326920
  C       -1.4254670    -0.3007180    -0.2326930
  C       -0.4523040    -1.3848490     0.2326940
  C        0.9731620    -1.0841320    -0.2326940
  H        1.4785550     0.3119140     1.3301460
  H        2.4371320     0.5141410    -0.1331240
  H        0.7733080     2.3676870     0.1331270
  H        0.4691510     1.4364260    -1.3301450
  H       -1.0094080     1.1245070     1.3301450
  H       -1.6638220     1.8535490    -0.1331270
  H       -2.4371330    -0.5141380     0.1331220
  H       -1.4785520    -0.3119200    -1.3301460
  H       -0.4691470    -1.4364190     1.3301470
  H       -0.7733090    -2.3676890    -0.1331180
  H        1.6638250    -1.8535490     0.1331190
  H        1.0094000    -1.1245050    -1.3301470
units angstrom
no_reorient  #important for SAPT in psi4, default
symmetry c1  #important for SAPT in psi4, default
}

set PROPERTIES_ORIGIN ["COM"]
properties('MP2/aug-cc-pvtz', properties = ['dipole'])
--------------------------------------------------------------------------

    Molecular point group: c1
  Charge       = 0
  Multiplicity = 1
  Basis Set: AUG-CC-PVTZ
    Blend: AUG-CC-PVTZ
  Basis Set: (AUG-CC-PVTZ AUX)
    Blend: AUG-CC-PVTZ-JKFIT

    Orbital Energies [Eh]
    ---------------------

    Doubly Occupied:

       1A    -11.212993     2A    -11.212604     3A    -11.212446
       4A    -11.212035     5A    -11.211619     6A    -11.211267
       7A     -1.112343     8A     -1.000107     9A     -0.997035
      10A     -0.824979    11A     -0.822847    12A     -0.747594
      13A     -0.646439    14A     -0.602527    15A     -0.593549
      16A     -0.592547    17A     -0.524639    18A     -0.521958
      19A     -0.511750    20A     -0.477740    21A     -0.476270
      22A     -0.447948    23A     -0.426419    24A     -0.421965

  @DF-RHF Final Energy:  -234.28612256883406

   => Energetics <=

    Nuclear Repulsion Energy =            256.3727511300968445
    One-Electron Energy =                -823.2745071571741846
    Two-Electron Energy =                 332.6156334582432805
    Total Energy =                       -234.2861225688340596
  Basis Set: (AUG-CC-PVTZ AUX)
    Blend: AUG-CC-PVTZ-RI
    Molecular point group: c1

    Geometry (in Angstrom), charge = 0, multiplicity = 1:

       Center              X                  Y                   Z               Mass
    ------------   -----------------  -----------------  -----------------  -----------------
         C            1.423651129892     0.302740190361     0.231824554229    12.000000000000
         C            0.463214429892     1.372694690361    -0.227474445771    12.000000000000
         C           -0.974978870108     1.086155190361     0.231823554229    12.000000000000
         C           -1.427282870108    -0.298694809639    -0.233561445771    12.000000000000
         C           -0.454119870108    -1.382825809639     0.231825554229    12.000000000000
         C            0.971346129892    -1.082108809639    -0.233562445771    12.000000000000
         H            1.476739129892     0.313937190361     1.329277554229     1.007825032230
         H            2.435316129892     0.516164190361    -0.133992445771     1.007825032230
         H            0.771492129892     2.369710190361     0.132258554229     1.007825032230
         H            0.467335129892     1.438449190361    -1.331013445771     1.007825032230
         H           -1.011223870108     1.126530190361     1.329276554229     1.007825032230
         H           -1.665637870108     1.855572190361    -0.133995445771     1.007825032230
         H           -2.438948870108    -0.512114809639     0.132253554229     1.007825032230
         H           -1.480367870108    -0.309896809639    -1.331014445771     1.007825032230
         H           -0.470962870108    -1.434395809639     1.329278554229     1.007825032230
         H           -0.775124870108    -2.365665809639    -0.133986445771     1.007825032230
         H            1.662009129892    -1.851525809639     0.132250554229     1.007825032230
         H            1.007584129892    -1.122481809639    -1.331015445771     1.007825032230

  Basis Set: AUG-CC-PVTZ
    Blend: AUG-CC-PVTZ
  Basis Set: (AUG-CC-PVTZ AUX)
    Blend: AUG-CC-PVTZ-JKFIT
	 Reference Energy          =    -234.2861225688340596 [Eh]
	 Singles Energy            =      -0.0000000000000000 [Eh]
	 Same-Spin Energy          =      -0.2538610931832747 [Eh]
	 Opposite-Spin Energy      =      -0.9209843786751440 [Eh]
	 Correlation Energy        =      -1.1748454718584187 [Eh]
	 Total Energy              =    -235.4609680406924781 [Eh]

	 ================> DF-SCS-MP2 Energies <==================
	-----------------------------------------------------------
	 SCS Same-Spin Scale       =       0.3333333333333333 [-]
	 SCS Opposite-Spin Scale   =       1.2000000000000000 [-]
	 SCS Same-Spin Energy      =      -0.0846203643944249 [Eh]
	 SCS Opposite-Spin Energy  =      -1.1051812544101729 [Eh]
	 SCS Correlation Energy    =      -1.1898016188045977 [Eh]
	 SCS Total Energy          =    -235.4759241876386682 [Eh]
	-----------------------------------------------------------

  Dipole Moment: [D]
     X:     0.0027      Y:    -0.0052      Z:     0.0035     Total:     0.0068

*** Psi4 exiting successfully. Buy a developer a beer!
