                               Psi4 1.3.2 release

  ==> Input File <==

--------------------------------------------------------------------------
#psi4
#
memory 32 gb

molecule  {
0 1
  C       -1.1592290    -0.8823630    -0.2326730
  C       -1.3437640     0.5627420     0.2326680
  C       -0.1845300     1.4451040    -0.2326700
  C        1.1592310     0.8823580     0.2326770
  C        1.3437590    -0.5627420    -0.2326830
  C        0.1845330    -1.4451010     0.2326800
  H       -1.2176088    -0.9268114    -1.3290044
  H       -1.9819560    -1.5085900     0.1331310
  H       -2.2974530     0.9621300    -0.1331460
  H       -1.3937950     0.5836920     1.3301120
  H       -0.1913930     1.4989040    -1.3301140
  H       -0.3154970     2.4707180     0.1331400
  H        1.9819570     1.5085850    -0.1331240
  H        1.2023830     0.9151940     1.3301230
  H        1.3937660    -0.5836850    -1.3301290
  H        2.2974540    -0.9621310     0.1331110
  H        0.3155000    -2.4707190    -0.1331130
  H        0.1914070    -1.4988810     1.3301270
units angstrom
no_reorient  #important for SAPT in psi4, default
symmetry c1  #important for SAPT in psi4, default
}

set PROPERTIES_ORIGIN ["COM"]
properties('MP2/aug-cc-pvtz', properties = ['dipole'])
--------------------------------------------------------------------------

    Molecular point group: c1
  Charge       = 0
  Multiplicity = 1
  Basis Set: AUG-CC-PVTZ
    Blend: AUG-CC-PVTZ
  Basis Set: (AUG-CC-PVTZ AUX)
    Blend: AUG-CC-PVTZ-JKFIT

    Orbital Energies [Eh]
    ---------------------

    Doubly Occupied:

       1A    -11.212713     2A    -11.212450     3A    -11.212397
       4A    -11.211820     5A    -11.211780     6A    -11.211483
       7A     -1.111186     8A     -0.998022     9A     -0.998003
      10A     -0.824161    11A     -0.823929    12A     -0.747951
      13A     -0.645874    14A     -0.602589    15A     -0.593130
      16A     -0.592862    17A     -0.522886    18A     -0.522711
      19A     -0.510637    20A     -0.477830    21A     -0.477508
      22A     -0.448618    23A     -0.424004    24A     -0.423926

  @DF-RHF Final Energy:  -234.28665444338810

   => Energetics <=

    Nuclear Repulsion Energy =            256.1789619426411377
    One-Electron Energy =                -822.8942907213344142
    Two-Electron Energy =                 332.4286743353051179
    Total Energy =                       -234.2866544433881018
  Basis Set: (AUG-CC-PVTZ AUX)
    Blend: AUG-CC-PVTZ-RI
    Molecular point group: c1

    Geometry (in Angstrom), charge = 0, multiplicity = 1:

       Center              X                  Y                   Z               Mass
    ------------   -----------------  -----------------  -----------------  -----------------
         C           -1.159046406250    -0.882223761286    -0.232686203264    12.000000000000
         C           -1.343581406250     0.562881238714     0.232654796736    12.000000000000
         C           -0.184347406250     1.445243238714    -0.232683203264    12.000000000000
         C            1.159413593750     0.882497238714     0.232663796736    12.000000000000
         C            1.343941593750    -0.562602761286    -0.232696203264    12.000000000000
         C            0.184715593750    -1.444961761286     0.232666796736    12.000000000000
         H           -1.217426206250    -0.926672161286    -1.329017603264     1.007825032230
         H           -1.981773406250    -1.508450761286     0.133117796736     1.007825032230
         H           -2.297270406250     0.962269238714    -0.133159203264     1.007825032230
         H           -1.393612406250     0.583831238714     1.330098796736     1.007825032230
         H           -0.191210406250     1.499043238714    -1.330127203264     1.007825032230
         H           -0.315314406250     2.470857238714     0.133126796736     1.007825032230
         H            1.982139593750     1.508724238714    -0.133137203264     1.007825032230
         H            1.202565593750     0.915333238714     1.330109796736     1.007825032230
         H            1.393948593750    -0.583545761286    -1.330142203264     1.007825032230
         H            2.297636593750    -0.961991761286     0.133097796736     1.007825032230
         H            0.315682593750    -2.470579761286    -0.133126203264     1.007825032230
         H            0.191589593750    -1.498741761286     1.330113796736     1.007825032230

  Basis Set: AUG-CC-PVTZ
    Blend: AUG-CC-PVTZ
  Basis Set: (AUG-CC-PVTZ AUX)
    Blend: AUG-CC-PVTZ-JKFIT
	 Reference Energy          =    -234.2866544433881018 [Eh]
	 Singles Energy            =      -0.0000000000000000 [Eh]
	 Same-Spin Energy          =      -0.2537424263906944 [Eh]
	 Opposite-Spin Energy      =      -0.9208427185998966 [Eh]
	 Correlation Energy        =      -1.1745851449905911 [Eh]
	 Total Energy              =    -235.4612395883787030 [Eh]

	 ================> DF-SCS-MP2 Energies <==================
	-----------------------------------------------------------
	 SCS Same-Spin Scale       =       0.3333333333333333 [-]
	 SCS Opposite-Spin Scale   =       1.2000000000000000 [-]
	 SCS Same-Spin Energy      =      -0.0845808087968981 [Eh]
	 SCS Opposite-Spin Energy  =      -1.1050112623198760 [Eh]
	 SCS Correlation Energy    =      -1.1895920711167742 [Eh]
	 SCS Total Energy          =    -235.4762465145048793 [Eh]
	-----------------------------------------------------------

  Dipole Moment: [D]
     X:    -0.0037      Y:    -0.0028      Z:    -0.0021     Total:     0.0052

*** Psi4 exiting successfully. Buy a developer a beer!
