                               Psi4 1.3.2 release

  ==> Input File <==

--------------------------------------------------------------------------
#psi4
#
memory 32 gb

molecule  {
0 1
  C       -1.1592290    -0.8823630    -0.2326730
  C       -1.4388489     0.5622796     0.1841535
  C       -0.1845300     1.4451040    -0.2326700
  C        1.1592310     0.8823580     0.2326770
  C        1.3437590    -0.5627420    -0.2326830
  C        0.1845330    -1.4451010     0.2326800
  H       -1.2023750    -0.9152160    -1.3301180
  H       -1.9819560    -1.5085900     0.1331310
  H       -2.2974530     0.9621300    -0.1331460
  H       -1.3937950     0.5836920     1.3301120
  H       -0.1913930     1.4989040    -1.3301140
  H       -0.3154970     2.4707180     0.1331400
  H        1.9819570     1.5085850    -0.1331240
  H        1.2023830     0.9151940     1.3301230
  H        1.3937660    -0.5836850    -1.3301290
  H        2.2974540    -0.9621310     0.1331110
  H        0.3155000    -2.4707190    -0.1331130
  H        0.1914070    -1.4988810     1.3301270
units angstrom
no_reorient  #important for SAPT in psi4, default
symmetry c1  #important for SAPT in psi4, default
}

set PROPERTIES_ORIGIN ["COM"]
properties('MP2/aug-cc-pvtz', properties = ['dipole'])
--------------------------------------------------------------------------

    Molecular point group: c1
  Charge       = 0
  Multiplicity = 1
  Basis Set: AUG-CC-PVTZ
    Blend: AUG-CC-PVTZ
  Basis Set: (AUG-CC-PVTZ AUX)
    Blend: AUG-CC-PVTZ-JKFIT

    Orbital Energies [Eh]
    ---------------------

    Doubly Occupied:

       1A    -11.214429     2A    -11.214313     3A    -11.213438
       4A    -11.212742     5A    -11.212211     6A    -11.211649
       7A     -1.106662     8A     -1.000428     9A     -0.993778
      10A     -0.830826    11A     -0.822270    12A     -0.746330
      13A     -0.648452    14A     -0.610438    15A     -0.590936
      16A     -0.588743    17A     -0.535146    18A     -0.521262
      19A     -0.508977    20A     -0.474591    21A     -0.470155
      22A     -0.443029    23A     -0.434963    24A     -0.415056

  @DF-RHF Final Energy:  -234.27372170283243

   => Energetics <=

    Nuclear Repulsion Energy =            255.1427826637968224
    One-Electron Energy =                -820.7913617591258344
    Two-Electron Energy =                 331.3748573924966081
    Total Energy =                       -234.2737217028324608
  Basis Set: (AUG-CC-PVTZ AUX)
    Blend: AUG-CC-PVTZ-RI
    Molecular point group: c1

    Geometry (in Angstrom), charge = 0, multiplicity = 1:

       Center              X                  Y                   Z               Mass
    ------------   -----------------  -----------------  -----------------  -----------------
         C           -1.145660586472    -0.882296743207    -0.225749953295    12.000000000000
         C           -1.425280486472     0.562345856793     0.191076546705    12.000000000000
         C           -0.170961586472     1.445170256793    -0.225746953295    12.000000000000
         C            1.172799413528     0.882424256793     0.239600046705    12.000000000000
         C            1.357327413528    -0.562675743207    -0.225759953295    12.000000000000
         C            0.198101413528    -1.445034743207     0.239603046705    12.000000000000
         H           -1.188806586472    -0.915149743207    -1.323194953295     1.007825032230
         H           -1.968387586472    -1.508523743207     0.140054046705     1.007825032230
         H           -2.283884586472     0.962196256793    -0.126222953295     1.007825032230
         H           -1.380226586472     0.583758256793     1.337035046705     1.007825032230
         H           -0.177824586472     1.498970256793    -1.323190953295     1.007825032230
         H           -0.301928586472     2.470784256793     0.140063046705     1.007825032230
         H            1.995525413528     1.508651256793    -0.126200953295     1.007825032230
         H            1.215951413528     0.915260256793     1.337046046705     1.007825032230
         H            1.407334413528    -0.583618743207    -1.323205953295     1.007825032230
         H            2.311022413528    -0.962064743207     0.140034046705     1.007825032230
         H            0.329068413528    -2.470652743207    -0.126189953295     1.007825032230
         H            0.204975413528    -1.498814743207     1.337050046705     1.007825032230

  Basis Set: AUG-CC-PVTZ
    Blend: AUG-CC-PVTZ
  Basis Set: (AUG-CC-PVTZ AUX)
    Blend: AUG-CC-PVTZ-JKFIT
	 Reference Energy          =    -234.2737217028324324 [Eh]
	 Singles Energy            =      -0.0000000000000000 [Eh]
	 Same-Spin Energy          =      -0.2535951816617436 [Eh]
	 Opposite-Spin Energy      =      -0.9212317970263745 [Eh]
	 Correlation Energy        =      -1.1748269786881180 [Eh]
	 Total Energy              =    -235.4485486815205491 [Eh]

	 ================> DF-SCS-MP2 Energies <==================
	-----------------------------------------------------------
	 SCS Same-Spin Scale       =       0.3333333333333333 [-]
	 SCS Opposite-Spin Scale   =       1.2000000000000000 [-]
	 SCS Same-Spin Energy      =      -0.0845317272205812 [Eh]
	 SCS Opposite-Spin Energy  =      -1.1054781564316494 [Eh]
	 SCS Correlation Energy    =      -1.1900098836522306 [Eh]
	 SCS Total Energy          =    -235.4637315864846698 [Eh]
	-----------------------------------------------------------

  Dipole Moment: [D]
     X:    -0.0012      Y:    -0.0090      Z:    -0.0351     Total:     0.0363

*** Psi4 exiting successfully. Buy a developer a beer!
