                               Psi4 1.4a3.dev225

  ==> Input File <==

--------------------------------------------------------------------------
#psi4
#
memory 32 gb

molecule  {
0 1
  C        1.4254670     0.3007170     0.2326930
  C        0.4523040     1.3848490    -0.2326920
  C       -0.9731630     1.0841320     0.2326920
  C       -1.4254670    -0.3007180    -0.2326930
  C       -0.4523040    -1.3848490     0.2326940
  C        0.9731620    -1.0841320    -0.2326940
  H        1.4775887     0.3117102     1.3101704
  H        2.4371320     0.5141410    -0.1331240
  H        0.7733080     2.3676870     0.1331270
  H        0.4691510     1.4364260    -1.3301450
  H       -1.0094080     1.1245070     1.3301450
  H       -1.6638220     1.8535490    -0.1331270
  H       -2.4371330    -0.5141380     0.1331220
  H       -1.4785520    -0.3119200    -1.3301460
  H       -0.4691470    -1.4364190     1.3301470
  H       -0.7733090    -2.3676890    -0.1331180
  H        1.6638250    -1.8535490     0.1331190
  H        1.0094000    -1.1245050    -1.3301470
units angstrom
no_reorient  #important for SAPT in psi4, default
symmetry c1  #important for SAPT in psi4, default
}

set PROPERTIES_ORIGIN ["COM"]
properties('MP2/aug-cc-pvtz', properties = ['dipole'])
--------------------------------------------------------------------------

    Molecular point group: c1
  Charge       = 0
  Multiplicity = 1
  Basis Set: AUG-CC-PVTZ
    Blend: AUG-CC-PVTZ
  Basis Set: (AUG-CC-PVTZ AUX)
    Blend: AUG-CC-PVTZ-JKFIT

    Orbital Energies [Eh]
    ---------------------

    Doubly Occupied:

       1A    -11.212565     2A    -11.212293     3A    -11.211980
       4A    -11.211643     5A    -11.211507     6A    -11.209447
       7A     -1.111463     8A     -0.998620     9A     -0.997919
      10A     -0.824898    11A     -0.823795    12A     -0.749005
      13A     -0.645667    14A     -0.602727    15A     -0.594617
      16A     -0.593085    17A     -0.522781    18A     -0.522721
      19A     -0.510450    20A     -0.479124    21A     -0.477428
      22A     -0.449151    23A     -0.423859    24A     -0.423833

  @DF-RHF Final Energy:  -234.28670313155752

   => Energetics <=

    Nuclear Repulsion Energy =            256.2973432632255708
    One-Electron Energy =                -823.1269304718433659
    Two-Electron Energy =                 332.5428840770602505
    Total Energy =                       -234.2867031315575446
  Basis Set: (AUG-CC-PVTZ AUX)
    Blend: AUG-CC-PVTZ-RI
    Molecular point group: c1

    Geometry (in Angstrom), charge = 0, multiplicity = 1:

       Center              X                  Y                   Z               Mass
    ------------   -----------------  -----------------  -----------------  -----------------
         C            1.425478723339     0.300719537205     0.232932409963    12.000000000000
         C            0.452315723339     1.384851537205    -0.232452590037    12.000000000000
         C           -0.973151276661     1.084134537205     0.232931409963    12.000000000000
         C           -1.425455276661    -0.300715462795    -0.232453590037    12.000000000000
         C           -0.452292276661    -1.384846462795     0.232933409963    12.000000000000
         C            0.973173723339    -1.084129462795    -0.232454590037    12.000000000000
         H            1.477600423339     0.311712737205     1.310409809963     1.007825032230
         H            2.437143723339     0.514143537205    -0.132884590037     1.007825032230
         H            0.773319723339     2.367689537205     0.133366409963     1.007825032230
         H            0.469162723339     1.436428537205    -1.329905590037     1.007825032230
         H           -1.009396276661     1.124509537205     1.330384409963     1.007825032230
         H           -1.663810276661     1.853551537205    -0.132887590037     1.007825032230
         H           -2.437121276661    -0.514135462795     0.133361409963     1.007825032230
         H           -1.478540276661    -0.311917462795    -1.329906590037     1.007825032230
         H           -0.469135276661    -1.436416462795     1.330386409963     1.007825032230
         H           -0.773297276661    -2.367686462795    -0.132878590037     1.007825032230
         H            1.663836723339    -1.853546462795     0.133358409963     1.007825032230
         H            1.009411723339    -1.124502462795    -1.329907590037     1.007825032230

  Basis Set: AUG-CC-PVTZ
    Blend: AUG-CC-PVTZ
  Basis Set: (AUG-CC-PVTZ AUX)
    Blend: AUG-CC-PVTZ-JKFIT
	 Reference Energy          =    -234.2867031315575161 [Eh]
	 Singles Energy            =      -0.0000000000000000 [Eh]
	 Same-Spin Energy          =      -0.2537534770768445 [Eh]
	 Opposite-Spin Energy      =      -0.9207529057730097 [Eh]
	 Correlation Energy        =      -1.1745063828498541 [Eh]
	 Total Energy              =    -235.4612095144073578 [Eh]

	 ================> DF-SCS-MP2 Energies <==================
	-----------------------------------------------------------
	 SCS Same-Spin Scale       =       0.3333333333333333 [-]
	 SCS Opposite-Spin Scale   =       1.2000000000000000 [-]
	 SCS Same-Spin Energy      =      -0.0845844923589482 [Eh]
	 SCS Opposite-Spin Energy  =      -1.1049034869276115 [Eh]
	 SCS Correlation Energy    =      -1.1894879792865596 [Eh]
	 SCS Total Energy          =    -235.4761911108440700 [Eh]
	-----------------------------------------------------------

  Dipole Moment: [D]
     X:     0.0037      Y:     0.0008      Z:     0.0151     Total:     0.0156

*** Psi4 exiting successfully. Buy a developer a beer!
