                               Psi4 1.3.2 release

  ==> Input File <==

--------------------------------------------------------------------------
#psi4
#
memory 32 gb

molecule  {
0 1
  C       -1.1592290    -0.8823630    -0.2326730
  C       -1.3558302     0.6572332     0.2630953
  C       -0.1845300     1.4451040    -0.2326700
  C        1.1592310     0.8823580     0.2326770
  C        1.3437590    -0.5627420    -0.2326830
  C        0.1845330    -1.4451010     0.2326800
  H       -1.2023750    -0.9152160    -1.3301180
  H       -1.9819560    -1.5085900     0.1331310
  H       -2.2974530     0.9621300    -0.1331460
  H       -1.3937950     0.5836920     1.3301120
  H       -0.1913930     1.4989040    -1.3301140
  H       -0.3154970     2.4707180     0.1331400
  H        1.9819570     1.5085850    -0.1331240
  H        1.2023830     0.9151940     1.3301230
  H        1.3937660    -0.5836850    -1.3301290
  H        2.2974540    -0.9621310     0.1331110
  H        0.3155000    -2.4707190    -0.1331130
  H        0.1914070    -1.4988810     1.3301270
units angstrom
no_reorient  #important for SAPT in psi4, default
symmetry c1  #important for SAPT in psi4, default
}

set PROPERTIES_ORIGIN ["COM"]
properties('MP2/aug-cc-pvtz', properties = ['dipole'])
--------------------------------------------------------------------------

    Molecular point group: c1
  Charge       = 0
  Multiplicity = 1
  Basis Set: AUG-CC-PVTZ
    Blend: AUG-CC-PVTZ
  Basis Set: (AUG-CC-PVTZ AUX)
    Blend: AUG-CC-PVTZ-JKFIT

    Orbital Energies [Eh]
    ---------------------

    Doubly Occupied:

       1A    -11.214582     2A    -11.213208     3A    -11.211972
       4A    -11.211365     5A    -11.211195     6A    -11.210439
       7A     -1.107548     8A     -1.003055     9A     -0.989257
      10A     -0.828871    11A     -0.819564    12A     -0.749578
      13A     -0.643244    14A     -0.606265    15A     -0.596421
      16A     -0.591239    17A     -0.527057    18A     -0.519058
      19A     -0.507905    20A     -0.481044    21A     -0.476353
      22A     -0.451437    23A     -0.432159    24A     -0.405822

  @DF-RHF Final Energy:  -234.27890296900128

   => Energetics <=

    Nuclear Repulsion Energy =            255.3948366289403396
    One-Electron Energy =                -821.3302076456573104
    Two-Electron Energy =                 331.6564680477156912
    Total Energy =                       -234.2789029690013081
  Basis Set: (AUG-CC-PVTZ AUX)
    Blend: AUG-CC-PVTZ-RI
    Molecular point group: c1

    Geometry (in Angstrom), charge = 0, multiplicity = 1:

       Center              X                  Y                   Z               Mass
    ------------   -----------------  -----------------  -----------------  -----------------
         C           -1.157507157928    -0.895846396568    -0.237014760797    12.000000000000
         C           -1.354108357928     0.643749803432     0.258753539203    12.000000000000
         C           -0.182808157928     1.431620603432    -0.237011760797    12.000000000000
         C            1.160952842072     0.868874603432     0.228335239203    12.000000000000
         C            1.345480842072    -0.576225396568    -0.237024760797    12.000000000000
         C            0.186254842072    -1.458584396568     0.228338239203    12.000000000000
         H           -1.200653157928    -0.928699396568    -1.334459760797     1.007825032230
         H           -1.980234157928    -1.522073396568     0.128789239203     1.007825032230
         H           -2.295731157928     0.948646603432    -0.137487760797     1.007825032230
         H           -1.392073157928     0.570208603432     1.325770239203     1.007825032230
         H           -0.189671157928     1.485420603432    -1.334455760797     1.007825032230
         H           -0.313775157928     2.457234603432     0.128798239203     1.007825032230
         H            1.983678842072     1.495101603432    -0.137465760797     1.007825032230
         H            1.204104842072     0.901710603432     1.325781239203     1.007825032230
         H            1.395487842072    -0.597168396568    -1.334470760797     1.007825032230
         H            2.299175842072    -0.975614396568     0.128769239203     1.007825032230
         H            0.317221842072    -2.484202396568    -0.137454760797     1.007825032230
         H            0.193128842072    -1.512364396568     1.325785239203     1.007825032230

  Basis Set: AUG-CC-PVTZ
    Blend: AUG-CC-PVTZ
  Basis Set: (AUG-CC-PVTZ AUX)
    Blend: AUG-CC-PVTZ-JKFIT
	 Reference Energy          =    -234.2789029690012796 [Eh]
	 Singles Energy            =      -0.0000000000000000 [Eh]
	 Same-Spin Energy          =      -0.2536985495609198 [Eh]
	 Opposite-Spin Energy      =      -0.9211715022310241 [Eh]
	 Correlation Energy        =      -1.1748700517919439 [Eh]
	 Total Energy              =    -235.4537730207932213 [Eh]

	 ================> DF-SCS-MP2 Energies <==================
	-----------------------------------------------------------
	 SCS Same-Spin Scale       =       0.3333333333333333 [-]
	 SCS Opposite-Spin Scale   =       1.2000000000000000 [-]
	 SCS Same-Spin Energy      =      -0.0845661831869732 [Eh]
	 SCS Opposite-Spin Energy  =      -1.1054058026772289 [Eh]
	 SCS Correlation Energy    =      -1.1899719858642022 [Eh]
	 SCS Total Energy          =    -235.4688749548654698 [Eh]
	-----------------------------------------------------------

  Dipole Moment: [D]
     X:    -0.0002      Y:     0.0198      Z:     0.0124     Total:     0.0234

*** Psi4 exiting successfully. Buy a developer a beer!
