                               Psi4 1.3.2 release

  ==> Input File <==

--------------------------------------------------------------------------
#psi4
#
memory 32 gb

molecule  {
0 1
  C       -1.1592290    -0.8823630    -0.2326730
  C       -1.3437640     0.5627420     0.2326680
  C       -0.1845300     1.4451040    -0.2326700
  C        1.1592310     0.8823580     0.2326770
  C        1.3437590    -0.5627420    -0.2326830
  C        0.1845330    -1.4451010     0.2326800
  H       -1.2328248    -0.9383933    -1.3275569
  H       -1.9819560    -1.5085900     0.1331310
  H       -2.2974530     0.9621300    -0.1331460
  H       -1.3937950     0.5836920     1.3301120
  H       -0.1913930     1.4989040    -1.3301140
  H       -0.3154970     2.4707180     0.1331400
  H        1.9819570     1.5085850    -0.1331240
  H        1.2023830     0.9151940     1.3301230
  H        1.3937660    -0.5836850    -1.3301290
  H        2.2974540    -0.9621310     0.1331110
  H        0.3155000    -2.4707190    -0.1331130
  H        0.1914070    -1.4988810     1.3301270
units angstrom
no_reorient  #important for SAPT in psi4, default
symmetry c1  #important for SAPT in psi4, default
}

set PROPERTIES_ORIGIN ["COM"]
properties('MP2/aug-cc-pvtz', properties = ['dipole'])
--------------------------------------------------------------------------

    Molecular point group: c1
  Charge       = 0
  Multiplicity = 1
  Basis Set: AUG-CC-PVTZ
    Blend: AUG-CC-PVTZ
  Basis Set: (AUG-CC-PVTZ AUX)
    Blend: AUG-CC-PVTZ-JKFIT

    Orbital Energies [Eh]
    ---------------------

    Doubly Occupied:

       1A    -11.212742     2A    -11.212507     3A    -11.212386
       4A    -11.211833     5A    -11.211764     6A    -11.211482
       7A     -1.111085     8A     -0.998012     9A     -0.997976
      10A     -0.824396    11A     -0.823925    12A     -0.747955
      13A     -0.645978    14A     -0.602434    15A     -0.593100
      16A     -0.592517    17A     -0.522886    18A     -0.522566
      19A     -0.510634    20A     -0.478096    21A     -0.477503
      22A     -0.448552    23A     -0.424000    24A     -0.423822

  @DF-RHF Final Energy:  -234.28656279446858

   => Energetics <=

    Nuclear Repulsion Energy =            256.1511487610296740
    One-Electron Energy =                -822.8391215129306602
    Two-Electron Energy =                 332.4014099574324632
    Total Energy =                       -234.2865627944685798
  Basis Set: (AUG-CC-PVTZ AUX)
    Blend: AUG-CC-PVTZ-RI
    Molecular point group: c1

    Geometry (in Angstrom), charge = 0, multiplicity = 1:

       Center              X                  Y                   Z               Mass
    ------------   -----------------  -----------------  -----------------  -----------------
         C           -1.158864049793    -0.882084957774    -0.232703550857    12.000000000000
         C           -1.343399049793     0.563020042226     0.232637449143    12.000000000000
         C           -0.184165049793     1.445382042226    -0.232700550857    12.000000000000
         C            1.159595950207     0.882636042226     0.232646449143    12.000000000000
         C            1.344123950207    -0.562463957774    -0.232713550857    12.000000000000
         C            0.184897950207    -1.444822957774     0.232649449143    12.000000000000
         H           -1.232459849793    -0.938115257774    -1.327587450857     1.007825032230
         H           -1.981591049793    -1.508311957774     0.133100449143     1.007825032230
         H           -2.297088049793     0.962408042226    -0.133176550857     1.007825032230
         H           -1.393430049793     0.583970042226     1.330081449143     1.007825032230
         H           -0.191028049793     1.499182042226    -1.330144550857     1.007825032230
         H           -0.315132049793     2.470996042226     0.133109449143     1.007825032230
         H            1.982321950207     1.508863042226    -0.133154550857     1.007825032230
         H            1.202747950207     0.915472042226     1.330092449143     1.007825032230
         H            1.394130950207    -0.583406957774    -1.330159550857     1.007825032230
         H            2.297818950207    -0.961852957774     0.133080449143     1.007825032230
         H            0.315864950207    -2.470440957774    -0.133143550857     1.007825032230
         H            0.191771950207    -1.498602957774     1.330096449143     1.007825032230

  Basis Set: AUG-CC-PVTZ
    Blend: AUG-CC-PVTZ
  Basis Set: (AUG-CC-PVTZ AUX)
    Blend: AUG-CC-PVTZ-JKFIT
	 Reference Energy          =    -234.2865627944685798 [Eh]
	 Singles Energy            =      -0.0000000000000000 [Eh]
	 Same-Spin Energy          =      -0.2537308975811828 [Eh]
	 Opposite-Spin Energy      =      -0.9208209353675422 [Eh]
	 Correlation Energy        =      -1.1745518329487250 [Eh]
	 Total Energy              =    -235.4611146274173166 [Eh]

	 ================> DF-SCS-MP2 Energies <==================
	-----------------------------------------------------------
	 SCS Same-Spin Scale       =       0.3333333333333333 [-]
	 SCS Opposite-Spin Scale   =       1.2000000000000000 [-]
	 SCS Same-Spin Energy      =      -0.0845769658603943 [Eh]
	 SCS Opposite-Spin Energy  =      -1.1049851224410505 [Eh]
	 SCS Correlation Energy    =      -1.1895620883014448 [Eh]
	 SCS Total Energy          =    -235.4761248827700229 [Eh]
	-----------------------------------------------------------

  Dipole Moment: [D]
     X:    -0.0076      Y:    -0.0058      Z:    -0.0041     Total:     0.0104

*** Psi4 exiting successfully. Buy a developer a beer!
