                               Psi4 1.3.2 release

  ==> Input File <==

--------------------------------------------------------------------------
#psi4
#
memory 32 gb

molecule  {
0 1
  C       -1.1592290    -0.8823630    -0.2326730
  C       -1.3437640     0.5627420     0.2326680
  C       -0.1845300     1.4451040    -0.2326700
  C        1.1592310     0.8823580     0.2326770
  C        1.3437590    -0.5627420    -0.2326830
  C        0.1845330    -1.4451010     0.2326800
  H       -1.1871280    -0.9036106    -1.3308973
  H       -1.9819560    -1.5085900     0.1331310
  H       -2.2974530     0.9621300    -0.1331460
  H       -1.3937950     0.5836920     1.3301120
  H       -0.1913930     1.4989040    -1.3301140
  H       -0.3154970     2.4707180     0.1331400
  H        1.9819570     1.5085850    -0.1331240
  H        1.2023830     0.9151940     1.3301230
  H        1.3937660    -0.5836850    -1.3301290
  H        2.2974540    -0.9621310     0.1331110
  H        0.3155000    -2.4707190    -0.1331130
  H        0.1914070    -1.4988810     1.3301270
units angstrom
no_reorient  #important for SAPT in psi4, default
symmetry c1  #important for SAPT in psi4, default
}

set PROPERTIES_ORIGIN ["COM"]
properties('MP2/aug-cc-pvtz', properties = ['dipole'])
--------------------------------------------------------------------------

    Molecular point group: c1
  Charge       = 0
  Multiplicity = 1
  Basis Set: AUG-CC-PVTZ
    Blend: AUG-CC-PVTZ
  Basis Set: (AUG-CC-PVTZ AUX)
    Blend: AUG-CC-PVTZ-JKFIT

    Orbital Energies [Eh]
    ---------------------

    Doubly Occupied:

       1A    -11.212692     2A    -11.212424     3A    -11.212385
       4A    -11.211806     5A    -11.211755     6A    -11.211463
       7A     -1.111406     8A     -0.998070     9A     -0.998047
      10A     -0.823940    11A     -0.823713    12A     -0.747963
      13A     -0.645723    14A     -0.603025    15A     -0.593418
      16A     -0.593196    17A     -0.523096    18A     -0.522892
      19A     -0.510646    20A     -0.477518    21A     -0.477146
      22A     -0.448712    23A     -0.424073    24A     -0.424016

  @DF-RHF Final Energy:  -234.28661172853273

   => Energetics <=

    Nuclear Repulsion Energy =            256.2364004254428096
    One-Electron Energy =                -823.0077726859547056
    Two-Electron Energy =                 332.4847605319792478
    Total Energy =                       -234.2866117285327050
  Basis Set: (AUG-CC-PVTZ AUX)
    Blend: AUG-CC-PVTZ-RI
    Molecular point group: c1

    Geometry (in Angstrom), charge = 0, multiplicity = 1:

       Center              X                  Y                   Z               Mass
    ------------   -----------------  -----------------  -----------------  -----------------
         C           -1.159411704008    -0.882501811738    -0.232663517766    12.000000000000
         C           -1.343946704008     0.562603188262     0.232677482234    12.000000000000
         C           -0.184712704008     1.444965188262    -0.232660517766    12.000000000000
         C            1.159048295992     0.882219188262     0.232686482234    12.000000000000
         C            1.343576295992    -0.562880811738    -0.232673517766    12.000000000000
         C            0.184350295992    -1.445239811738     0.232689482234    12.000000000000
         H           -1.187310704008    -0.903749411738    -1.330887817766     1.007825032230
         H           -1.982138704008    -1.508728811738     0.133140482234     1.007825032230
         H           -2.297635704008     0.961991188262    -0.133136517766     1.007825032230
         H           -1.393977704008     0.583553188262     1.330121482234     1.007825032230
         H           -0.191575704008     1.498765188262    -1.330104517766     1.007825032230
         H           -0.315679704008     2.470579188262     0.133149482234     1.007825032230
         H            1.981774295992     1.508446188262    -0.133114517766     1.007825032230
         H            1.202200295992     0.915055188262     1.330132482234     1.007825032230
         H            1.393583295992    -0.583823811738    -1.330119517766     1.007825032230
         H            2.297271295992    -0.962269811738     0.133120482234     1.007825032230
         H            0.315317295992    -2.470857811738    -0.133103517766     1.007825032230
         H            0.191224295992    -1.499019811738     1.330136482234     1.007825032230

  Basis Set: AUG-CC-PVTZ
    Blend: AUG-CC-PVTZ
  Basis Set: (AUG-CC-PVTZ AUX)
    Blend: AUG-CC-PVTZ-JKFIT
	 Reference Energy          =    -234.2866117285327334 [Eh]
	 Singles Energy            =      -0.0000000000000000 [Eh]
	 Same-Spin Energy          =      -0.2537776250830267 [Eh]
	 Opposite-Spin Energy      =      -0.9209052206003103 [Eh]
	 Correlation Energy        =      -1.1746828456833369 [Eh]
	 Total Energy              =    -235.4612945742160832 [Eh]

	 ================> DF-SCS-MP2 Energies <==================
	-----------------------------------------------------------
	 SCS Same-Spin Scale       =       0.3333333333333333 [-]
	 SCS Opposite-Spin Scale   =       1.2000000000000000 [-]
	 SCS Same-Spin Energy      =      -0.0845925416943422 [Eh]
	 SCS Opposite-Spin Energy  =      -1.1050862647203723 [Eh]
	 SCS Correlation Energy    =      -1.1896788064147146 [Eh]
	 SCS Total Energy          =    -235.4762905349474522 [Eh]
	-----------------------------------------------------------

  Dipole Moment: [D]
     X:     0.0036      Y:     0.0028      Z:     0.0023     Total:     0.0051

*** Psi4 exiting successfully. Buy a developer a beer!
