                               Psi4 1.3.2 release

  ==> Input File <==

--------------------------------------------------------------------------
#psi4
#
memory 32 gb

molecule  {
0 1
  C       -1.1592290    -0.8823630    -0.2326730
  C       -1.3392019     0.5460746     0.2831755
  C       -0.1845300     1.4451040    -0.2326700
  C        1.1592310     0.8823580     0.2326770
  C        1.3437590    -0.5627420    -0.2326830
  C        0.1845330    -1.4451010     0.2326800
  H       -1.2023750    -0.9152160    -1.3301180
  H       -1.9819560    -1.5085900     0.1331310
  H       -2.2974530     0.9621300    -0.1331460
  H       -1.3937950     0.5836920     1.3301120
  H       -0.1913930     1.4989040    -1.3301140
  H       -0.3154970     2.4707180     0.1331400
  H        1.9819570     1.5085850    -0.1331240
  H        1.2023830     0.9151940     1.3301230
  H        1.3937660    -0.5836850    -1.3301290
  H        2.2974540    -0.9621310     0.1331110
  H        0.3155000    -2.4707190    -0.1331130
  H        0.1914070    -1.4988810     1.3301270
units angstrom
no_reorient  #important for SAPT in psi4, default
symmetry c1  #important for SAPT in psi4, default
}

set PROPERTIES_ORIGIN ["COM"]
properties('MP2/aug-cc-pvtz', properties = ['dipole'])
--------------------------------------------------------------------------

    Molecular point group: c1
  Charge       = 0
  Multiplicity = 1
  Basis Set: AUG-CC-PVTZ
    Blend: AUG-CC-PVTZ
  Basis Set: (AUG-CC-PVTZ AUX)
    Blend: AUG-CC-PVTZ-JKFIT

    Orbital Energies [Eh]
    ---------------------

    Doubly Occupied:

       1A    -11.212986     2A    -11.212394     3A    -11.212084
       4A    -11.211444     5A    -11.211198     6A    -11.211049
       7A     -1.110399     8A     -0.998207     9A     -0.995642
      10A     -0.825001    11A     -0.821911    12A     -0.751485
      13A     -0.643593    14A     -0.600325    15A     -0.596825
      16A     -0.594029    17A     -0.522565    18A     -0.516851
      19A     -0.506742    20A     -0.488030    21A     -0.478418
      22A     -0.452811    23A     -0.421610    24A     -0.418056

  @DF-RHF Final Energy:  -234.28358037375961

   => Energetics <=

    Nuclear Repulsion Energy =            256.1250553289578420
    One-Electron Energy =                -822.7899602988584320
    Two-Electron Energy =                 332.3813245961409848
    Total Energy =                       -234.2835803737596052
  Basis Set: (AUG-CC-PVTZ AUX)
    Blend: AUG-CC-PVTZ-RI
    Molecular point group: c1

    Geometry (in Angstrom), charge = 0, multiplicity = 1:

       Center              X                  Y                   Z               Mass
    ------------   -----------------  -----------------  -----------------  -----------------
         C           -1.159879976873    -0.879984328167    -0.239880157680    12.000000000000
         C           -1.339852876873     0.548453271833     0.275968342320    12.000000000000
         C           -0.185180976873     1.447482671833    -0.239877157680    12.000000000000
         C            1.158580023127     0.884736671833     0.225469842320    12.000000000000
         C            1.343108023127    -0.560363328167    -0.239890157680    12.000000000000
         C            0.183882023127    -1.442722328167     0.225472842320    12.000000000000
         H           -1.203025976873    -0.912837328167    -1.337325157680     1.007825032230
         H           -1.982606976873    -1.506211328167     0.125923842320     1.007825032230
         H           -2.298103976873     0.964508671833    -0.140353157680     1.007825032230
         H           -1.394445976873     0.586070671833     1.322904842320     1.007825032230
         H           -0.192043976873     1.501282671833    -1.337321157680     1.007825032230
         H           -0.316147976873     2.473096671833     0.125932842320     1.007825032230
         H            1.981306023127     1.510963671833    -0.140331157680     1.007825032230
         H            1.201732023127     0.917572671833     1.322915842320     1.007825032230
         H            1.393115023127    -0.581306328167    -1.337336157680     1.007825032230
         H            2.296803023127    -0.959752328167     0.125903842320     1.007825032230
         H            0.314849023127    -2.468340328167    -0.140320157680     1.007825032230
         H            0.190756023127    -1.496502328167     1.322919842320     1.007825032230

  Basis Set: AUG-CC-PVTZ
    Blend: AUG-CC-PVTZ
  Basis Set: (AUG-CC-PVTZ AUX)
    Blend: AUG-CC-PVTZ-JKFIT
	 Reference Energy          =    -234.2835803737596052 [Eh]
	 Singles Energy            =      -0.0000000000000000 [Eh]
	 Same-Spin Energy          =      -0.2536981606840839 [Eh]
	 Opposite-Spin Energy      =      -0.9209209509054948 [Eh]
	 Correlation Energy        =      -1.1746191115895788 [Eh]
	 Total Energy              =    -235.4581994853491835 [Eh]

	 ================> DF-SCS-MP2 Energies <==================
	-----------------------------------------------------------
	 SCS Same-Spin Scale       =       0.3333333333333333 [-]
	 SCS Opposite-Spin Scale   =       1.2000000000000000 [-]
	 SCS Same-Spin Energy      =      -0.0845660535613613 [Eh]
	 SCS Opposite-Spin Energy  =      -1.1051051410865937 [Eh]
	 SCS Correlation Energy    =      -1.1896711946479550 [Eh]
	 SCS Total Energy          =    -235.4732515684075622 [Eh]
	-----------------------------------------------------------

  Dipole Moment: [D]
     X:     0.0041      Y:    -0.0052      Z:     0.0245     Total:     0.0254

*** Psi4 exiting successfully. Buy a developer a beer!
