                               Psi4 1.3.2 release

  ==> Input File <==

--------------------------------------------------------------------------
#psi4
#
memory 32 gb

molecule  {
0 1
  C       -1.1592290    -0.8823630    -0.2326730
  C       -1.3316978     0.4682508     0.2022407
  C       -0.1845300     1.4451040    -0.2326700
  C        1.1592310     0.8823580     0.2326770
  C        1.3437590    -0.5627420    -0.2326830
  C        0.1845330    -1.4451010     0.2326800
  H       -1.2023750    -0.9152160    -1.3301180
  H       -1.9819560    -1.5085900     0.1331310
  H       -2.2974530     0.9621300    -0.1331460
  H       -1.3937950     0.5836920     1.3301120
  H       -0.1913930     1.4989040    -1.3301140
  H       -0.3154970     2.4707180     0.1331400
  H        1.9819570     1.5085850    -0.1331240
  H        1.2023830     0.9151940     1.3301230
  H        1.3937660    -0.5836850    -1.3301290
  H        2.2974540    -0.9621310     0.1331110
  H        0.3155000    -2.4707190    -0.1331130
  H        0.1914070    -1.4988810     1.3301270
units angstrom
no_reorient  #important for SAPT in psi4, default
symmetry c1  #important for SAPT in psi4, default
}

set PROPERTIES_ORIGIN ["COM"]
properties('MP2/aug-cc-pvtz', properties = ['dipole'])
--------------------------------------------------------------------------

    Molecular point group: c1
  Charge       = 0
  Multiplicity = 1
  Basis Set: AUG-CC-PVTZ
    Blend: AUG-CC-PVTZ
  Basis Set: (AUG-CC-PVTZ AUX)
    Blend: AUG-CC-PVTZ-JKFIT

    Orbital Energies [Eh]
    ---------------------

    Doubly Occupied:

       1A    -11.216213     2A    -11.214186     3A    -11.213134
       4A    -11.212478     5A    -11.211233     6A    -11.208430
       7A     -1.118040     8A     -1.009525     9A     -0.993152
      10A     -0.829691    11A     -0.818192    12A     -0.746051
      13A     -0.649570    14A     -0.603393    15A     -0.594752
      16A     -0.590645    17A     -0.535670    18A     -0.519216
      19A     -0.514559    20A     -0.478710    21A     -0.471323
      22A     -0.446212    23A     -0.429629    24A     -0.412294

  @DF-RHF Final Energy:  -234.27521735964237

   => Energetics <=

    Nuclear Repulsion Energy =            257.0686311985438692
    One-Electron Energy =                -824.6151039208648399
    Two-Electron Energy =                 333.2712553626785734
    Total Energy =                       -234.2752173596423404
  Basis Set: (AUG-CC-PVTZ AUX)
    Blend: AUG-CC-PVTZ-RI
    Molecular point group: c1

    Geometry (in Angstrom), charge = 0, multiplicity = 1:

       Center              X                  Y                   Z               Mass
    ------------   -----------------  -----------------  -----------------  -----------------
         C           -1.160950794134    -0.868879056611    -0.228330953807    12.000000000000
         C           -1.333419594134     0.481734743389     0.206582746193    12.000000000000
         C           -0.186251794134     1.458587943389    -0.228327953807    12.000000000000
         C            1.157509205866     0.895841943389     0.237019046193    12.000000000000
         C            1.342037205866    -0.549258056611    -0.228340953807    12.000000000000
         C            0.182811205866    -1.431617056611     0.237022046193    12.000000000000
         H           -1.204096794134    -0.901732056611    -1.325775953807     1.007825032230
         H           -1.983677794134    -1.495106056611     0.137473046193     1.007825032230
         H           -2.299174794134     0.975613943389    -0.128803953807     1.007825032230
         H           -1.395516794134     0.597175943389     1.334454046193     1.007825032230
         H           -0.193114794134     1.512387943389    -1.325771953807     1.007825032230
         H           -0.317218794134     2.484201943389     0.137482046193     1.007825032230
         H            1.980235205866     1.522068943389    -0.128781953807     1.007825032230
         H            1.200661205866     0.928677943389     1.334465046193     1.007825032230
         H            1.392044205866    -0.570201056611    -1.325786953807     1.007825032230
         H            2.295732205866    -0.948647056611     0.137453046193     1.007825032230
         H            0.313778205866    -2.457235056611    -0.128770953807     1.007825032230
         H            0.189685205866    -1.485397056611     1.334469046193     1.007825032230

  Basis Set: AUG-CC-PVTZ
    Blend: AUG-CC-PVTZ
  Basis Set: (AUG-CC-PVTZ AUX)
    Blend: AUG-CC-PVTZ-JKFIT
	 Reference Energy          =    -234.2752173596423688 [Eh]
	 Singles Energy            =      -0.0000000000000000 [Eh]
	 Same-Spin Energy          =      -0.2546153615796843 [Eh]
	 Opposite-Spin Energy      =      -0.9220504760832209 [Eh]
	 Correlation Energy        =      -1.1766658376629051 [Eh]
	 Total Energy              =    -235.4518831973052784 [Eh]

	 ================> DF-SCS-MP2 Energies <==================
	-----------------------------------------------------------
	 SCS Same-Spin Scale       =       0.3333333333333333 [-]
	 SCS Opposite-Spin Scale   =       1.2000000000000000 [-]
	 SCS Same-Spin Energy      =      -0.0848717871932281 [Eh]
	 SCS Opposite-Spin Energy  =      -1.1064605712998650 [Eh]
	 SCS Correlation Energy    =      -1.1913323584930930 [Eh]
	 SCS Total Energy          =    -235.4665497181354681 [Eh]
	-----------------------------------------------------------

  Dipole Moment: [D]
     X:     0.0186      Y:    -0.0336      Z:    -0.0213     Total:     0.0439

*** Psi4 exiting successfully. Buy a developer a beer!
