                               Psi4 1.3.2 release

  ==> Input File <==

--------------------------------------------------------------------------
#psi4
#
memory 32 gb

molecule  {
0 1
  C       -1.1592290    -0.8823630    -0.2326730
  C       -1.2958553     0.5603318     0.2560895
  C       -0.1845300     1.4451040    -0.2326700
  C        1.1592310     0.8823580     0.2326770
  C        1.3437590    -0.5627420    -0.2326830
  C        0.1845330    -1.4451010     0.2326800
  H       -1.2023750    -0.9152160    -1.3301180
  H       -1.9819560    -1.5085900     0.1331310
  H       -2.2974530     0.9621300    -0.1331460
  H       -1.3937950     0.5836920     1.3301120
  H       -0.1913930     1.4989040    -1.3301140
  H       -0.3154970     2.4707180     0.1331400
  H        1.9819570     1.5085850    -0.1331240
  H        1.2023830     0.9151940     1.3301230
  H        1.3937660    -0.5836850    -1.3301290
  H        2.2974540    -0.9621310     0.1331110
  H        0.3155000    -2.4707190    -0.1331130
  H        0.1914070    -1.4988810     1.3301270
units angstrom
no_reorient  #important for SAPT in psi4, default
symmetry c1  #important for SAPT in psi4, default
}

set PROPERTIES_ORIGIN ["COM"]
properties('MP2/aug-cc-pvtz', properties = ['dipole'])
--------------------------------------------------------------------------

    Molecular point group: c1
  Charge       = 0
  Multiplicity = 1
  Basis Set: AUG-CC-PVTZ
    Blend: AUG-CC-PVTZ
  Basis Set: (AUG-CC-PVTZ AUX)
    Blend: AUG-CC-PVTZ-JKFIT

    Orbital Energies [Eh]
    ---------------------

    Doubly Occupied:

       1A    -11.213596     2A    -11.212492     3A    -11.212372
       4A    -11.211735     5A    -11.211226     6A    -11.211099
       7A     -1.114316     8A     -1.000620     9A     -0.997274
      10A     -0.824940    11A     -0.821661    12A     -0.749888
      13A     -0.646510    14A     -0.599718    15A     -0.595240
      16A     -0.594048    17A     -0.525652    18A     -0.517626
      19A     -0.510737    20A     -0.481469    21A     -0.479123
      22A     -0.451095    23A     -0.426741    24A     -0.415369

  @DF-RHF Final Energy:  -234.28321685910333

   => Energetics <=

    Nuclear Repulsion Energy =            256.7561855499703256
    One-Electron Energy =                -824.0297110374890508
    Two-Electron Energy =                 332.9903086284154483
    Total Energy =                       -234.2832168591033337
  Basis Set: (AUG-CC-PVTZ AUX)
    Blend: AUG-CC-PVTZ-RI
    Molecular point group: c1

    Geometry (in Angstrom), charge = 0, multiplicity = 1:

       Center              X                  Y                   Z               Mass
    ------------   -----------------  -----------------  -----------------  -----------------
         C           -1.166065433816    -0.882018796770    -0.236015049765    12.000000000000
         C           -1.302691733816     0.560676003230     0.252747450235    12.000000000000
         C           -0.191366433816     1.445448203230    -0.236012049765    12.000000000000
         C            1.152394566184     0.882702203230     0.229334950235    12.000000000000
         C            1.336922566184    -0.562397796770    -0.236025049765    12.000000000000
         C            0.177696566184    -1.444756796770     0.229337950235    12.000000000000
         H           -1.209211433816    -0.914871796770    -1.333460049765     1.007825032230
         H           -1.988792433816    -1.508245796770     0.129788950235     1.007825032230
         H           -2.304289433816     0.962474203230    -0.136488049765     1.007825032230
         H           -1.400631433816     0.584036203230     1.326769950235     1.007825032230
         H           -0.198229433816     1.499248203230    -1.333456049765     1.007825032230
         H           -0.322333433816     2.471062203230     0.129797950235     1.007825032230
         H            1.975120566184     1.508929203230    -0.136466049765     1.007825032230
         H            1.195546566184     0.915538203230     1.326780950235     1.007825032230
         H            1.386929566184    -0.583340796770    -1.333471049765     1.007825032230
         H            2.290617566184    -0.961786796770     0.129768950235     1.007825032230
         H            0.308663566184    -2.470374796770    -0.136455049765     1.007825032230
         H            0.184570566184    -1.498536796770     1.326784950235     1.007825032230

  Basis Set: AUG-CC-PVTZ
    Blend: AUG-CC-PVTZ
  Basis Set: (AUG-CC-PVTZ AUX)
    Blend: AUG-CC-PVTZ-JKFIT
	 Reference Energy          =    -234.2832168591033337 [Eh]
	 Singles Energy            =      -0.0000000000000000 [Eh]
	 Same-Spin Energy          =      -0.2540479335665139 [Eh]
	 Opposite-Spin Energy      =      -0.9212493715661314 [Eh]
	 Correlation Energy        =      -1.1752973051326454 [Eh]
	 Total Energy              =    -235.4585141642359929 [Eh]

	 ================> DF-SCS-MP2 Energies <==================
	-----------------------------------------------------------
	 SCS Same-Spin Scale       =       0.3333333333333333 [-]
	 SCS Opposite-Spin Scale   =       1.2000000000000000 [-]
	 SCS Same-Spin Energy      =      -0.0846826445221713 [Eh]
	 SCS Opposite-Spin Energy  =      -1.1054992458793576 [Eh]
	 SCS Correlation Energy    =      -1.1901818904015289 [Eh]
	 SCS Total Energy          =    -235.4733987495048666 [Eh]
	-----------------------------------------------------------

  Dipole Moment: [D]
     X:     0.0226      Y:    -0.0049      Z:     0.0141     Total:     0.0271

*** Psi4 exiting successfully. Buy a developer a beer!
