                               Psi4 1.3.2 release

  ==> Input File <==

--------------------------------------------------------------------------
#psi4
#
memory 32 gb

molecule  {
0 1
  C       -1.1592290    -0.8823630    -0.2326730
  C       -1.3678964     0.7517244     0.2935226
  C       -0.1845300     1.4451040    -0.2326700
  C        1.1592310     0.8823580     0.2326770
  C        1.3437590    -0.5627420    -0.2326830
  C        0.1845330    -1.4451010     0.2326800
  H       -1.2023750    -0.9152160    -1.3301180
  H       -1.9819560    -1.5085900     0.1331310
  H       -2.2974530     0.9621300    -0.1331460
  H       -1.3937950     0.5836920     1.3301120
  H       -0.1913930     1.4989040    -1.3301140
  H       -0.3154970     2.4707180     0.1331400
  H        1.9819570     1.5085850    -0.1331240
  H        1.2023830     0.9151940     1.3301230
  H        1.3937660    -0.5836850    -1.3301290
  H        2.2974540    -0.9621310     0.1331110
  H        0.3155000    -2.4707190    -0.1331130
  H        0.1914070    -1.4988810     1.3301270
units angstrom
no_reorient  #important for SAPT in psi4, default
symmetry c1  #important for SAPT in psi4, default
}

set PROPERTIES_ORIGIN ["COM"]
properties('MP2/aug-cc-pvtz', properties = ['dipole'])
--------------------------------------------------------------------------

    Molecular point group: c1
  Charge       = 0
  Multiplicity = 1
  Basis Set: AUG-CC-PVTZ
    Blend: AUG-CC-PVTZ
  Basis Set: (AUG-CC-PVTZ AUX)
    Blend: AUG-CC-PVTZ-JKFIT

    Orbital Energies [Eh]
    ---------------------

    Doubly Occupied:

       1A    -11.215892     2A    -11.214365     3A    -11.212401
       4A    -11.211826     5A    -11.211193     6A    -11.210948
       7A     -1.105634     8A     -1.008063     9A     -0.982826
      10A     -0.833033    11A     -0.816599    12A     -0.750917
      13A     -0.641884    14A     -0.611890    15A     -0.599562
      16A     -0.589777    17A     -0.529625    18A     -0.520197
      19A     -0.511152    20A     -0.480381    21A     -0.474798
      22A     -0.452735    23A     -0.437500    24A     -0.381063

  @DF-RHF Final Energy:  -234.25776483375205

   => Energetics <=

    Nuclear Repulsion Energy =            254.5926942167951097
    One-Electron Energy =                -819.6923973109235249
    Two-Electron Energy =                 330.8419382603764234
    Total Energy =                       -234.2577648337520486
  Basis Set: (AUG-CC-PVTZ AUX)
    Blend: AUG-CC-PVTZ-RI
    Molecular point group: c1

    Geometry (in Angstrom), charge = 0, multiplicity = 1:

       Center              X                  Y                   Z               Mass
    ------------   -----------------  -----------------  -----------------  -----------------
         C           -1.155785339826    -0.909330066546    -0.241356664292    12.000000000000
         C           -1.364452739826     0.724757333454     0.284838935708    12.000000000000
         C           -0.181086339826     1.418136933454    -0.241353664292    12.000000000000
         C            1.162674660174     0.855390933454     0.223993335708    12.000000000000
         C            1.347202660174    -0.589709066546    -0.241366664292    12.000000000000
         C            0.187976660174    -1.472068066546     0.223996335708    12.000000000000
         H           -1.198931339826    -0.942183066546    -1.338801664292     1.007825032230
         H           -1.978512339826    -1.535557066546     0.124447335708     1.007825032230
         H           -2.294009339826     0.935162933454    -0.141829664292     1.007825032230
         H           -1.390351339826     0.556724933454     1.321428335708     1.007825032230
         H           -0.187949339826     1.471936933454    -1.338797664292     1.007825032230
         H           -0.312053339826     2.443750933454     0.124456335708     1.007825032230
         H            1.985400660174     1.481617933454    -0.141807664292     1.007825032230
         H            1.205826660174     0.888226933454     1.321439335708     1.007825032230
         H            1.397209660174    -0.610652066546    -1.338812664292     1.007825032230
         H            2.300897660174    -0.989098066546     0.124427335708     1.007825032230
         H            0.318943660174    -2.497686066546    -0.141796664292     1.007825032230
         H            0.194850660174    -1.525848066546     1.321443335708     1.007825032230

  Basis Set: AUG-CC-PVTZ
    Blend: AUG-CC-PVTZ
  Basis Set: (AUG-CC-PVTZ AUX)
    Blend: AUG-CC-PVTZ-JKFIT
	 Reference Energy          =    -234.2577648337520486 [Eh]
	 Singles Energy            =      -0.0000000000000000 [Eh]
	 Same-Spin Energy          =      -0.2543280691656563 [Eh]
	 Opposite-Spin Energy      =      -0.9228308562056664 [Eh]
	 Correlation Energy        =      -1.1771589253713226 [Eh]
	 Total Energy              =    -235.4349237591233646 [Eh]

	 ================> DF-SCS-MP2 Energies <==================
	-----------------------------------------------------------
	 SCS Same-Spin Scale       =       0.3333333333333333 [-]
	 SCS Opposite-Spin Scale   =       1.2000000000000000 [-]
	 SCS Same-Spin Energy      =      -0.0847760230552188 [Eh]
	 SCS Opposite-Spin Energy  =      -1.1073970274467997 [Eh]
	 SCS Correlation Energy    =      -1.1921730505020185 [Eh]
	 SCS Total Energy          =    -235.4499378842540693 [Eh]
	-----------------------------------------------------------

  Dipole Moment: [D]
     X:     0.0172      Y:     0.0271      Z:     0.0162     Total:     0.0360

*** Psi4 exiting successfully. Buy a developer a beer!
