                               Psi4 1.3.2 release

  ==> Input File <==

--------------------------------------------------------------------------
#psi4
#
memory 32 gb

molecule  {
0 1
  C       -1.1592290    -0.8823630    -0.2326730
  C       -1.3437640     0.5627420     0.2326680
  C       -0.1845300     1.4451040    -0.2326700
  C        1.1592310     0.8823580     0.2326770
  C        1.3437590    -0.5627420    -0.2326830
  C        0.1845330    -1.4451010     0.2326800
  H       -1.1718726    -0.8919986    -1.3313421
  H       -1.9819560    -1.5085900     0.1331310
  H       -2.2974530     0.9621300    -0.1331460
  H       -1.3937950     0.5836920     1.3301120
  H       -0.1913930     1.4989040    -1.3301140
  H       -0.3154970     2.4707180     0.1331400
  H        1.9819570     1.5085850    -0.1331240
  H        1.2023830     0.9151940     1.3301230
  H        1.3937660    -0.5836850    -1.3301290
  H        2.2974540    -0.9621310     0.1331110
  H        0.3155000    -2.4707190    -0.1331130
  H        0.1914070    -1.4988810     1.3301270
units angstrom
no_reorient  #important for SAPT in psi4, default
symmetry c1  #important for SAPT in psi4, default
}

set PROPERTIES_ORIGIN ["COM"]
properties('MP2/aug-cc-pvtz', properties = ['dipole'])
--------------------------------------------------------------------------

    Molecular point group: c1
  Charge       = 0
  Multiplicity = 1
  Basis Set: AUG-CC-PVTZ
    Blend: AUG-CC-PVTZ
  Basis Set: (AUG-CC-PVTZ AUX)
    Blend: AUG-CC-PVTZ-JKFIT

    Orbital Energies [Eh]
    ---------------------

    Doubly Occupied:

       1A    -11.212698     2A    -11.212442     3A    -11.212376
       4A    -11.211820     5A    -11.211704     6A    -11.211439
       7A     -1.111525     8A     -0.998110     9A     -0.998063
      10A     -0.823947    11A     -0.823499    12A     -0.747979
      13A     -0.645678    14A     -0.603305    15A     -0.593627
      16A     -0.593232    17A     -0.523332    18A     -0.522898
      19A     -0.510652    20A     -0.477525    21A     -0.476732
      22A     -0.448738    23A     -0.424117    24A     -0.424024

  @DF-RHF Final Energy:  -234.28647697976749

   => Energetics <=

    Nuclear Repulsion Energy =            256.2660315770602892
    One-Electron Energy =                -823.0660923179183328
    Two-Electron Energy =                 332.5135837610905583
    Total Energy =                       -234.2864769797674853
  Basis Set: (AUG-CC-PVTZ AUX)
    Blend: AUG-CC-PVTZ-RI
    Molecular point group: c1

    Geometry (in Angstrom), charge = 0, multiplicity = 1:

       Center              X                  Y                   Z               Mass
    ------------   -----------------  -----------------  -----------------  -----------------
         C           -1.159594532654    -0.882640975984    -0.232658187051    12.000000000000
         C           -1.344129532654     0.562464024016     0.232682812949    12.000000000000
         C           -0.184895532654     1.444826024016    -0.232655187051    12.000000000000
         C            1.158865467346     0.882080024016     0.232691812949    12.000000000000
         C            1.343393467346    -0.563019975984    -0.232668187051    12.000000000000
         C            0.184167467346    -1.445378975984     0.232694812949    12.000000000000
         H           -1.172238132654    -0.892276575984    -1.331327287051     1.007825032230
         H           -1.982321532654    -1.508867975984     0.133145812949     1.007825032230
         H           -2.297818532654     0.961852024016    -0.133131187051     1.007825032230
         H           -1.394160532654     0.583414024016     1.330126812949     1.007825032230
         H           -0.191758532654     1.498626024016    -1.330099187051     1.007825032230
         H           -0.315862532654     2.470440024016     0.133154812949     1.007825032230
         H            1.981591467346     1.508307024016    -0.133109187051     1.007825032230
         H            1.202017467346     0.914916024016     1.330137812949     1.007825032230
         H            1.393400467346    -0.583962975984    -1.330114187051     1.007825032230
         H            2.297088467346    -0.962408975984     0.133125812949     1.007825032230
         H            0.315134467346    -2.470996975984    -0.133098187051     1.007825032230
         H            0.191041467346    -1.499158975984     1.330141812949     1.007825032230

  Basis Set: AUG-CC-PVTZ
    Blend: AUG-CC-PVTZ
  Basis Set: (AUG-CC-PVTZ AUX)
    Blend: AUG-CC-PVTZ-JKFIT
	 Reference Energy          =    -234.2864769797674853 [Eh]
	 Singles Energy            =      -0.0000000000000000 [Eh]
	 Same-Spin Energy          =      -0.2538013318009245 [Eh]
	 Opposite-Spin Energy      =      -0.9209458935999271 [Eh]
	 Correlation Energy        =      -1.1747472254008515 [Eh]
	 Total Energy              =    -235.4612242051683495 [Eh]

	 ================> DF-SCS-MP2 Energies <==================
	-----------------------------------------------------------
	 SCS Same-Spin Scale       =       0.3333333333333333 [-]
	 SCS Opposite-Spin Scale   =       1.2000000000000000 [-]
	 SCS Same-Spin Energy      =      -0.0846004439336415 [Eh]
	 SCS Opposite-Spin Energy  =      -1.1051350723199125 [Eh]
	 SCS Correlation Energy    =      -1.1897355162535539 [Eh]
	 SCS Total Energy          =    -235.4762124960210485 [Eh]
	-----------------------------------------------------------

  Dipole Moment: [D]
     X:     0.0072      Y:     0.0055      Z:     0.0047     Total:     0.0102

*** Psi4 exiting successfully. Buy a developer a beer!
