                               Psi4 1.3.2 release

  ==> Input File <==

--------------------------------------------------------------------------
#psi4
#
memory 32 gb

molecule  {
0 1
  C       -1.1592290    -0.8823630    -0.2326730
  C       -1.3437640     0.5627420     0.2326680
  C       -0.1845300     1.4451040    -0.2326700
  C        1.1592310     0.8823580     0.2326770
  C        1.3437590    -0.5627420    -0.2326830
  C        0.1845330    -1.4451010     0.2326800
  H       -1.1413548    -0.8687695    -1.3312276
  H       -1.9819560    -1.5085900     0.1331310
  H       -2.2974530     0.9621300    -0.1331460
  H       -1.3937950     0.5836920     1.3301120
  H       -0.1913930     1.4989040    -1.3301140
  H       -0.3154970     2.4707180     0.1331400
  H        1.9819570     1.5085850    -0.1331240
  H        1.2023830     0.9151940     1.3301230
  H        1.3937660    -0.5836850    -1.3301290
  H        2.2974540    -0.9621310     0.1331110
  H        0.3155000    -2.4707190    -0.1331130
  H        0.1914070    -1.4988810     1.3301270
units angstrom
no_reorient  #important for SAPT in psi4, default
symmetry c1  #important for SAPT in psi4, default
}

set PROPERTIES_ORIGIN ["COM"]
properties('MP2/aug-cc-pvtz', properties = ['dipole'])
--------------------------------------------------------------------------

    Molecular point group: c1
  Charge       = 0
  Multiplicity = 1
  Basis Set: AUG-CC-PVTZ
    Blend: AUG-CC-PVTZ
  Basis Set: (AUG-CC-PVTZ AUX)
    Blend: AUG-CC-PVTZ-JKFIT

    Orbital Energies [Eh]
    ---------------------

    Doubly Occupied:

       1A    -11.212730     2A    -11.212492     3A    -11.212393
       4A    -11.211855     5A    -11.211579     6A    -11.211363
       7A     -1.111782     8A     -0.998205     9A     -0.998100
      10A     -0.823964    11A     -0.823089    12A     -0.748030
      13A     -0.645655    14A     -0.603977    15A     -0.593913
      16A     -0.593309    17A     -0.523881    18A     -0.522917
      19A     -0.510668    20A     -0.477541    21A     -0.475780
      22A     -0.448742    23A     -0.424151    24A     -0.424043

  @DF-RHF Final Energy:  -234.28597968743753

   => Energetics <=

    Nuclear Repulsion Energy =            256.3271324408446503
    One-Electron Energy =                -823.1859059824785163
    Two-Electron Energy =                 332.5727938541962772
    Total Energy =                       -234.2859796874375320
  Basis Set: (AUG-CC-PVTZ AUX)
    Blend: AUG-CC-PVTZ-RI
    Molecular point group: c1

    Geometry (in Angstrom), charge = 0, multiplicity = 1:

       Center              X                  Y                   Z               Mass
    ------------   -----------------  -----------------  -----------------  -----------------
         C           -1.159960273839    -0.882919365598    -0.232659559279    12.000000000000
         C           -1.344495273839     0.562185634402     0.232681440721    12.000000000000
         C           -0.185261273839     1.444547634402    -0.232656559279    12.000000000000
         C            1.158499726161     0.881801634402     0.232690440721    12.000000000000
         C            1.343027726161    -0.563298365598    -0.232669559279    12.000000000000
         C            0.183801726161    -1.445657365598     0.232693440721    12.000000000000
         H           -1.142086073839    -0.869325865598    -1.331214159279     1.007825032230
         H           -1.982687273839    -1.509146365598     0.133144440721     1.007825032230
         H           -2.298184273839     0.961573634402    -0.133132559279     1.007825032230
         H           -1.394526273839     0.583135634402     1.330125440721     1.007825032230
         H           -0.192124273839     1.498347634402    -1.330100559279     1.007825032230
         H           -0.316228273839     2.470161634402     0.133153440721     1.007825032230
         H            1.981225726161     1.508028634402    -0.133110559279     1.007825032230
         H            1.201651726161     0.914637634402     1.330136440721     1.007825032230
         H            1.393034726161    -0.584241365598    -1.330115559279     1.007825032230
         H            2.296722726161    -0.962687365598     0.133124440721     1.007825032230
         H            0.314768726161    -2.471275365598    -0.133099559279     1.007825032230
         H            0.190675726161    -1.499437365598     1.330140440721     1.007825032230

  Basis Set: AUG-CC-PVTZ
    Blend: AUG-CC-PVTZ
  Basis Set: (AUG-CC-PVTZ AUX)
    Blend: AUG-CC-PVTZ-JKFIT
	 Reference Energy          =    -234.2859796874375320 [Eh]
	 Singles Energy            =      -0.0000000000000000 [Eh]
	 Same-Spin Energy          =      -0.2538610804410474 [Eh]
	 Opposite-Spin Energy      =      -0.9210459920900311 [Eh]
	 Correlation Energy        =      -1.1749070725310786 [Eh]
	 Total Energy              =    -235.4608867599686164 [Eh]

	 ================> DF-SCS-MP2 Energies <==================
	-----------------------------------------------------------
	 SCS Same-Spin Scale       =       0.3333333333333333 [-]
	 SCS Opposite-Spin Scale   =       1.2000000000000000 [-]
	 SCS Same-Spin Energy      =      -0.0846203601470158 [Eh]
	 SCS Opposite-Spin Energy  =      -1.1052551905080372 [Eh]
	 SCS Correlation Energy    =      -1.1898755506550529 [Eh]
	 SCS Total Energy          =    -235.4758552380925778 [Eh]
	-----------------------------------------------------------

  Dipole Moment: [D]
     X:     0.0141      Y:     0.0107      Z:     0.0101     Total:     0.0204

*** Psi4 exiting successfully. Buy a developer a beer!
