                               Psi4 1.3.2 release

  ==> Input File <==

--------------------------------------------------------------------------
#psi4
#
memory 32 gb

molecule  {
0 1
  C       -1.1592290    -0.8823630    -0.2326730
  C       -1.3437640     0.5627420     0.2326680
  C       -0.1845300     1.4451040    -0.2326700
  C        1.1592310     0.8823580     0.2326770
  C        1.3437590    -0.5627420    -0.2326830
  C        0.1845330    -1.4451010     0.2326800
  H       -1.2102284    -0.9211959    -1.5298743
  H       -1.9819560    -1.5085900     0.1331310
  H       -2.2974530     0.9621300    -0.1331460
  H       -1.3937950     0.5836920     1.3301120
  H       -0.1913930     1.4989040    -1.3301140
  H       -0.3154970     2.4707180     0.1331400
  H        1.9819570     1.5085850    -0.1331240
  H        1.2023830     0.9151940     1.3301230
  H        1.3937660    -0.5836850    -1.3301290
  H        2.2974540    -0.9621310     0.1331110
  H        0.3155000    -2.4707190    -0.1331130
  H        0.1914070    -1.4988810     1.3301270
units angstrom
no_reorient  #important for SAPT in psi4, default
symmetry c1  #important for SAPT in psi4, default
}

set PROPERTIES_ORIGIN ["COM"]
properties('MP2/aug-cc-pvtz', properties = ['dipole'])
--------------------------------------------------------------------------

    Molecular point group: c1
  Charge       = 0
  Multiplicity = 1
  Basis Set: AUG-CC-PVTZ
    Blend: AUG-CC-PVTZ
  Basis Set: (AUG-CC-PVTZ AUX)
    Blend: AUG-CC-PVTZ-JKFIT

    Orbital Energies [Eh]
    ---------------------

    Doubly Occupied:

       1A    -11.236294     2A    -11.215187     3A    -11.215167
       4A    -11.213109     5A    -11.212609     6A    -11.212237
       7A     -1.110933     8A     -0.999538     9A     -0.994981
      10A     -0.825739    11A     -0.818443    12A     -0.739795
      13A     -0.647575    14A     -0.603975    15A     -0.594278
      16A     -0.581046    17A     -0.525240    18A     -0.524307
      19A     -0.513035    20A     -0.478792    21A     -0.464872
      22A     -0.437306    23A     -0.426226    24A     -0.425853

  @DF-RHF Final Energy:  -234.26748401160052

   => Energetics <=

    Nuclear Repulsion Energy =            255.3895072584173818
    One-Electron Energy =                -821.2809041615663546
    Two-Electron Energy =                 331.6239128915484002
    Total Energy =                       -234.2674840116005157
  Basis Set: (AUG-CC-PVTZ AUX)
    Blend: AUG-CC-PVTZ-RI
    Molecular point group: c1

    Geometry (in Angstrom), charge = 0, multiplicity = 1:

       Center              X                  Y                   Z               Mass
    ------------   -----------------  -----------------  -----------------  -----------------
         C           -1.159134856801    -0.882291060358    -0.230278873927    12.000000000000
         C           -1.343669856801     0.562813939642     0.235062126073    12.000000000000
         C           -0.184435856801     1.445175939642    -0.230275873927    12.000000000000
         C            1.159325143199     0.882429939642     0.235071126073    12.000000000000
         C            1.343853143199    -0.562670060358    -0.230288873927    12.000000000000
         C            0.184627143199    -1.445029060358     0.235074126073    12.000000000000
         H           -1.210134256801    -0.921123960358    -1.527480173927     1.007825032230
         H           -1.981861856801    -1.508518060358     0.135525126073     1.007825032230
         H           -2.297358856801     0.962201939642    -0.130751873927     1.007825032230
         H           -1.393700856801     0.583763939642     1.332506126073     1.007825032230
         H           -0.191298856801     1.498975939642    -1.327719873927     1.007825032230
         H           -0.315402856801     2.470789939642     0.135534126073     1.007825032230
         H            1.982051143199     1.508656939642    -0.130729873927     1.007825032230
         H            1.202477143199     0.915265939642     1.332517126073     1.007825032230
         H            1.393860143199    -0.583613060358    -1.327734873927     1.007825032230
         H            2.297548143199    -0.962059060358     0.135505126073     1.007825032230
         H            0.315594143199    -2.470647060358    -0.130718873927     1.007825032230
         H            0.191501143199    -1.498809060358     1.332521126073     1.007825032230

  Basis Set: AUG-CC-PVTZ
    Blend: AUG-CC-PVTZ
  Basis Set: (AUG-CC-PVTZ AUX)
    Blend: AUG-CC-PVTZ-JKFIT
	 Reference Energy          =    -234.2674840116005157 [Eh]
	 Singles Energy            =      -0.0000000000000000 [Eh]
	 Same-Spin Energy          =      -0.2537899177284021 [Eh]
	 Opposite-Spin Energy      =      -0.9223984133757799 [Eh]
	 Correlation Energy        =      -1.1761883311041821 [Eh]
	 Total Energy              =    -235.4436723427047014 [Eh]

	 ================> DF-SCS-MP2 Energies <==================
	-----------------------------------------------------------
	 SCS Same-Spin Scale       =       0.3333333333333333 [-]
	 SCS Opposite-Spin Scale   =       1.2000000000000000 [-]
	 SCS Same-Spin Energy      =      -0.0845966392428007 [Eh]
	 SCS Opposite-Spin Energy  =      -1.1068780960509359 [Eh]
	 SCS Correlation Energy    =      -1.1914747352937365 [Eh]
	 SCS Total Energy          =    -235.4589587468942398 [Eh]
	-----------------------------------------------------------

  Dipole Moment: [D]
     X:     0.0397      Y:     0.0302      Z:     0.1928     Total:     0.1992

*** Psi4 exiting successfully. Buy a developer a beer!
