                               Psi4 1.3.2 release

  ==> Input File <==

--------------------------------------------------------------------------
#psi4
#
memory 32 gb

molecule  {
0 1
  C       -1.1592290    -0.8823630    -0.2326730
  C       -1.3437640     0.5627420     0.2326680
  C       -0.1845300     1.4451040    -0.2326700
  C        1.1592310     0.8823580     0.2326770
  C        1.3437590    -0.5627420    -0.2326830
  C        0.1845330    -1.4451010     0.2326800
  H       -1.2934186    -0.9845150    -1.3184375
  H       -1.9819560    -1.5085900     0.1331310
  H       -2.2974530     0.9621300    -0.1331460
  H       -1.3937950     0.5836920     1.3301120
  H       -0.1913930     1.4989040    -1.3301140
  H       -0.3154970     2.4707180     0.1331400
  H        1.9819570     1.5085850    -0.1331240
  H        1.2023830     0.9151940     1.3301230
  H        1.3937660    -0.5836850    -1.3301290
  H        2.2974540    -0.9621310     0.1331110
  H        0.3155000    -2.4707190    -0.1331130
  H        0.1914070    -1.4988810     1.3301270
units angstrom
no_reorient  #important for SAPT in psi4, default
symmetry c1  #important for SAPT in psi4, default
}

set PROPERTIES_ORIGIN ["COM"]
properties('MP2/aug-cc-pvtz', properties = ['dipole'])
--------------------------------------------------------------------------

    Molecular point group: c1
  Charge       = 0
  Multiplicity = 1
  Basis Set: AUG-CC-PVTZ
    Blend: AUG-CC-PVTZ
  Basis Set: (AUG-CC-PVTZ AUX)
    Blend: AUG-CC-PVTZ-JKFIT

    Orbital Energies [Eh]
    ---------------------

    Doubly Occupied:

       1A    -11.212986     2A    -11.212842     3A    -11.212335
       4A    -11.211804     5A    -11.211663     6A    -11.211435
       7A     -1.110730     8A     -0.997985     9A     -0.997922
      10A     -0.825408    11A     -0.823915    12A     -0.748033
      13A     -0.646560    14A     -0.602183    15A     -0.592991
      16A     -0.590776    17A     -0.522902    18A     -0.522352
      19A     -0.510633    20A     -0.478607    21A     -0.477491
      22A     -0.448173    23A     -0.423993    24A     -0.423175

  @DF-RHF Final Energy:  -234.28544683095691

   => Energetics <=

    Nuclear Repulsion Energy =            256.0458723177641787
    One-Electron Energy =                -822.6288490976702406
    Two-Electron Energy =                 332.2975299489491476
    Total Energy =                       -234.2854468309569143
  Basis Set: (AUG-CC-PVTZ AUX)
    Blend: AUG-CC-PVTZ-RI
    Molecular point group: c1

    Geometry (in Angstrom), charge = 0, multiplicity = 1:

       Center              X                  Y                   Z               Mass
    ------------   -----------------  -----------------  -----------------  -----------------
         C           -1.158137862185    -0.881532211337    -0.232812842488    12.000000000000
         C           -1.342672862185     0.563572788663     0.232528157512    12.000000000000
         C           -0.183438862185     1.445934788663    -0.232809842488    12.000000000000
         C            1.160322137815     0.883188788663     0.232537157512    12.000000000000
         C            1.344850137815    -0.561911211337    -0.232822842488    12.000000000000
         C            0.185624137815    -1.444270211337     0.232540157512    12.000000000000
         H           -1.292327462185    -0.983684211337    -1.318577342488     1.007825032230
         H           -1.980864862185    -1.507759211337     0.132991157512     1.007825032230
         H           -2.296361862185     0.962960788663    -0.133285842488     1.007825032230
         H           -1.392703862185     0.584522788663     1.329972157512     1.007825032230
         H           -0.190301862185     1.499734788663    -1.330253842488     1.007825032230
         H           -0.314405862185     2.471548788663     0.133000157512     1.007825032230
         H            1.983048137815     1.509415788663    -0.133263842488     1.007825032230
         H            1.203474137815     0.916024788663     1.329983157512     1.007825032230
         H            1.394857137815    -0.582854211337    -1.330268842488     1.007825032230
         H            2.298545137815    -0.961300211337     0.132971157512     1.007825032230
         H            0.316591137815    -2.469888211337    -0.133252842488     1.007825032230
         H            0.192498137815    -1.498050211337     1.329987157512     1.007825032230

  Basis Set: AUG-CC-PVTZ
    Blend: AUG-CC-PVTZ
  Basis Set: (AUG-CC-PVTZ AUX)
    Blend: AUG-CC-PVTZ-JKFIT
	 Reference Energy          =    -234.2854468309569143 [Eh]
	 Singles Energy            =      -0.0000000000000000 [Eh]
	 Same-Spin Energy          =      -0.2537249975822881 [Eh]
	 Opposite-Spin Energy      =      -0.9207976033957210 [Eh]
	 Correlation Energy        =      -1.1745226009780092 [Eh]
	 Total Energy              =    -235.4599694319349226 [Eh]

	 ================> DF-SCS-MP2 Energies <==================
	-----------------------------------------------------------
	 SCS Same-Spin Scale       =       0.3333333333333333 [-]
	 SCS Opposite-Spin Scale   =       1.2000000000000000 [-]
	 SCS Same-Spin Energy      =      -0.0845749991940960 [Eh]
	 SCS Opposite-Spin Energy  =      -1.1049571240748652 [Eh]
	 SCS Correlation Energy    =      -1.1895321232689613 [Eh]
	 SCS Total Energy          =    -235.4749789542258895 [Eh]
	-----------------------------------------------------------

  Dipole Moment: [D]
     X:    -0.0241      Y:    -0.0183      Z:    -0.0104     Total:     0.0320

*** Psi4 exiting successfully. Buy a developer a beer!
