                               Psi4 1.3.2 release

  ==> Input File <==

--------------------------------------------------------------------------
#psi4
#
memory 32 gb

molecule  {
0 1
  C       -1.1592290    -0.8823630    -0.2326730
  C       -1.3914479     0.5633915     0.2086796
  C       -0.1845300     1.4451040    -0.2326700
  C        1.1592310     0.8823580     0.2326770
  C        1.3437590    -0.5627420    -0.2326830
  C        0.1845330    -1.4451010     0.2326800
  H       -1.2023750    -0.9152160    -1.3301180
  H       -1.9819560    -1.5085900     0.1331310
  H       -2.2974530     0.9621300    -0.1331460
  H       -1.3937950     0.5836920     1.3301120
  H       -0.1913930     1.4989040    -1.3301140
  H       -0.3154970     2.4707180     0.1331400
  H        1.9819570     1.5085850    -0.1331240
  H        1.2023830     0.9151940     1.3301230
  H        1.3937660    -0.5836850    -1.3301290
  H        2.2974540    -0.9621310     0.1331110
  H        0.3155000    -2.4707190    -0.1331130
  H        0.1914070    -1.4988810     1.3301270
units angstrom
no_reorient  #important for SAPT in psi4, default
symmetry c1  #important for SAPT in psi4, default
}

set PROPERTIES_ORIGIN ["COM"]
properties('MP2/aug-cc-pvtz', properties = ['dipole'])
--------------------------------------------------------------------------

    Molecular point group: c1
  Charge       = 0
  Multiplicity = 1
  Basis Set: AUG-CC-PVTZ
    Blend: AUG-CC-PVTZ
  Basis Set: (AUG-CC-PVTZ AUX)
    Blend: AUG-CC-PVTZ-JKFIT

    Orbital Energies [Eh]
    ---------------------

    Doubly Occupied:

       1A    -11.213318     2A    -11.213212     3A    -11.212676
       4A    -11.212209     5A    -11.211924     6A    -11.211369
       7A     -1.108748     8A     -0.999081     9A     -0.995736
      10A     -0.826949    11A     -0.823027    12A     -0.746690
      13A     -0.646457    14A     -0.606662    15A     -0.591907
      16A     -0.591046    17A     -0.528982    18A     -0.521501
      19A     -0.509992    20A     -0.475982    21A     -0.473468
      22A     -0.445654    23A     -0.430806    24A     -0.420226

  @DF-RHF Final Energy:  -234.28378255521787

   => Energetics <=

    Nuclear Repulsion Energy =            255.6683132488245462
    One-Electron Energy =                -821.8689473121420406
    Two-Electron Energy =                 331.9168515080996258
    Total Energy =                       -234.2837825552178401
  Basis Set: (AUG-CC-PVTZ AUX)
    Blend: AUG-CC-PVTZ-RI
    Molecular point group: c1

    Geometry (in Angstrom), charge = 0, multiplicity = 1:

       Center              X                  Y                   Z               Mass
    ------------   -----------------  -----------------  -----------------  -----------------
         C           -1.152424596672    -0.882455408698    -0.229249769556    12.000000000000
         C           -1.384643496672     0.563299091302     0.212102830444    12.000000000000
         C           -0.177725596672     1.445011591302    -0.229246769556    12.000000000000
         C            1.166035403328     0.882265591302     0.236100230444    12.000000000000
         C            1.350563403328    -0.562834408698    -0.229259769556    12.000000000000
         C            0.191337403328    -1.445193408698     0.236103230444    12.000000000000
         H           -1.195570596672    -0.915308408698    -1.326694769556     1.007825032230
         H           -1.975151596672    -1.508682408698     0.136554230444     1.007825032230
         H           -2.290648596672     0.962037591302    -0.129722769556     1.007825032230
         H           -1.386990596672     0.583599591302     1.333535230444     1.007825032230
         H           -0.184588596672     1.498811591302    -1.326690769556     1.007825032230
         H           -0.308692596672     2.470625591302     0.136563230444     1.007825032230
         H            1.988761403328     1.508492591302    -0.129700769556     1.007825032230
         H            1.209187403328     0.915101591302     1.333546230444     1.007825032230
         H            1.400570403328    -0.583777408698    -1.326705769556     1.007825032230
         H            2.304258403328    -0.962223408698     0.136534230444     1.007825032230
         H            0.322304403328    -2.470811408698    -0.129689769556     1.007825032230
         H            0.198211403328    -1.498973408698     1.333550230444     1.007825032230

  Basis Set: AUG-CC-PVTZ
    Blend: AUG-CC-PVTZ
  Basis Set: (AUG-CC-PVTZ AUX)
    Blend: AUG-CC-PVTZ-JKFIT
	 Reference Energy          =    -234.2837825552178685 [Eh]
	 Singles Energy            =      -0.0000000000000000 [Eh]
	 Same-Spin Energy          =      -0.2536057245328150 [Eh]
	 Opposite-Spin Energy      =      -0.9208608192640908 [Eh]
	 Correlation Energy        =      -1.1744665437969057 [Eh]
	 Total Energy              =    -235.4582490990147789 [Eh]

	 ================> DF-SCS-MP2 Energies <==================
	-----------------------------------------------------------
	 SCS Same-Spin Scale       =       0.3333333333333333 [-]
	 SCS Opposite-Spin Scale   =       1.2000000000000000 [-]
	 SCS Same-Spin Energy      =      -0.0845352415109383 [Eh]
	 SCS Opposite-Spin Energy  =      -1.1050329831169090 [Eh]
	 SCS Correlation Energy    =      -1.1895682246278474 [Eh]
	 SCS Total Energy          =    -235.4733507798457026 [Eh]
	-----------------------------------------------------------

  Dipole Moment: [D]
     X:    -0.0077      Y:    -0.0013      Z:    -0.0163     Total:     0.0181

*** Psi4 exiting successfully. Buy a developer a beer!
