                               Psi4 1.3.2 release

  ==> Input File <==

--------------------------------------------------------------------------
#psi4
#
memory 32 gb

molecule  {
0 1
  C       -1.1592290    -0.8823630    -0.2326730
  C       -1.3481013     0.5776488     0.1815936
  C       -0.1845300     1.4451040    -0.2326700
  C        1.1592310     0.8823580     0.2326770
  C        1.3437590    -0.5627420    -0.2326830
  C        0.1845330    -1.4451010     0.2326800
  H       -1.2023750    -0.9152160    -1.3301180
  H       -1.9819560    -1.5085900     0.1331310
  H       -2.2974530     0.9621300    -0.1331460
  H       -1.3937950     0.5836920     1.3301120
  H       -0.1913930     1.4989040    -1.3301140
  H       -0.3154970     2.4707180     0.1331400
  H        1.9819570     1.5085850    -0.1331240
  H        1.2023830     0.9151940     1.3301230
  H        1.3937660    -0.5836850    -1.3301290
  H        2.2974540    -0.9621310     0.1331110
  H        0.3155000    -2.4707190    -0.1331130
  H        0.1914070    -1.4988810     1.3301270
units angstrom
no_reorient  #important for SAPT in psi4, default
symmetry c1  #important for SAPT in psi4, default
}

set PROPERTIES_ORIGIN ["COM"]
properties('MP2/aug-cc-pvtz', properties = ['dipole'])
--------------------------------------------------------------------------

    Molecular point group: c1
  Charge       = 0
  Multiplicity = 1
  Basis Set: AUG-CC-PVTZ
    Blend: AUG-CC-PVTZ
  Basis Set: (AUG-CC-PVTZ AUX)
    Blend: AUG-CC-PVTZ-JKFIT

    Orbital Energies [Eh]
    ---------------------

    Doubly Occupied:

       1A    -11.213916     2A    -11.213171     3A    -11.212940
       4A    -11.212370     5A    -11.212095     6A    -11.211626
       7A     -1.112426     8A     -1.000640     9A     -0.998155
      10A     -0.826200    11A     -0.823842    12A     -0.745092
      13A     -0.648565    14A     -0.605368    15A     -0.592361
      16A     -0.589653    17A     -0.529177    18A     -0.523474
      19A     -0.514836    20A     -0.476672    21A     -0.470070
      22A     -0.440334    23A     -0.429177    24A     -0.426064

  @DF-RHF Final Energy:  -234.28352512845612

   => Energetics <=

    Nuclear Repulsion Energy =            256.2816402560565052
    One-Electron Energy =                -823.0738858598485876
    Two-Electron Energy =                 332.5087204753359060
    Total Energy =                       -234.2835251284561195
  Basis Set: (AUG-CC-PVTZ AUX)
    Blend: AUG-CC-PVTZ-RI
    Molecular point group: c1

    Geometry (in Angstrom), charge = 0, multiplicity = 1:

       Center              X                  Y                   Z               Mass
    ------------   -----------------  -----------------  -----------------  -----------------
         C           -1.158610053615    -0.884489891570    -0.225384661640    12.000000000000
         C           -1.347482353615     0.575521908430     0.188881938360    12.000000000000
         C           -0.183911053615     1.442977108430    -0.225381661640    12.000000000000
         C            1.159849946385     0.880231108430     0.239965338360    12.000000000000
         C            1.344377946385    -0.564868891570    -0.225394661640    12.000000000000
         C            0.185151946385    -1.447227891570     0.239968338360    12.000000000000
         H           -1.201756053615    -0.917342891570    -1.322829661640     1.007825032230
         H           -1.981337053615    -1.510716891570     0.140419338360     1.007825032230
         H           -2.296834053615     0.960003108430    -0.125857661640     1.007825032230
         H           -1.393176053615     0.581565108430     1.337400338360     1.007825032230
         H           -0.190774053615     1.496777108430    -1.322825661640     1.007825032230
         H           -0.314878053615     2.468591108430     0.140428338360     1.007825032230
         H            1.982575946385     1.506458108430    -0.125835661640     1.007825032230
         H            1.203001946385     0.913067108430     1.337411338360     1.007825032230
         H            1.394384946385    -0.585811891570    -1.322840661640     1.007825032230
         H            2.298072946385    -0.964257891570     0.140399338360     1.007825032230
         H            0.316118946385    -2.472845891570    -0.125824661640     1.007825032230
         H            0.192025946385    -1.501007891570     1.337415338360     1.007825032230

  Basis Set: AUG-CC-PVTZ
    Blend: AUG-CC-PVTZ
  Basis Set: (AUG-CC-PVTZ AUX)
    Blend: AUG-CC-PVTZ-JKFIT
	 Reference Energy          =    -234.2835251284561195 [Eh]
	 Singles Energy            =      -0.0000000000000000 [Eh]
	 Same-Spin Energy          =      -0.2539241438967719 [Eh]
	 Opposite-Spin Energy      =      -0.9211609248191237 [Eh]
	 Correlation Energy        =      -1.1750850687158956 [Eh]
	 Total Energy              =    -235.4586101971720211 [Eh]

	 ================> DF-SCS-MP2 Energies <==================
	-----------------------------------------------------------
	 SCS Same-Spin Scale       =       0.3333333333333333 [-]
	 SCS Opposite-Spin Scale   =       1.2000000000000000 [-]
	 SCS Same-Spin Energy      =      -0.0846413812989240 [Eh]
	 SCS Opposite-Spin Energy  =      -1.1053931097829484 [Eh]
	 SCS Correlation Energy    =      -1.1900344910818723 [Eh]
	 SCS Total Energy          =    -235.4735596195379799 [Eh]
	-----------------------------------------------------------

  Dipole Moment: [D]
     X:     0.0043      Y:     0.0016      Z:    -0.0356     Total:     0.0359

*** Psi4 exiting successfully. Buy a developer a beer!
