                               Psi4 1.3.2 release

  ==> Input File <==

--------------------------------------------------------------------------
#psi4
#
memory 32 gb

molecule  {
0 1
  C       -1.1592290    -0.8823630    -0.2326730
  C       -1.3437640     0.5627420     0.2326680
  C       -0.1845300     1.4451040    -0.2326700
  C        1.1592310     0.8823580     0.2326770
  C        1.3437590    -0.5627420    -0.2326830
  C        0.1845330    -1.4451010     0.2326800
  H       -1.2631850    -0.9615024    -1.3236618
  H       -1.9819560    -1.5085900     0.1331310
  H       -2.2974530     0.9621300    -0.1331460
  H       -1.3937950     0.5836920     1.3301120
  H       -0.1913930     1.4989040    -1.3301140
  H       -0.3154970     2.4707180     0.1331400
  H        1.9819570     1.5085850    -0.1331240
  H        1.2023830     0.9151940     1.3301230
  H        1.3937660    -0.5836850    -1.3301290
  H        2.2974540    -0.9621310     0.1331110
  H        0.3155000    -2.4707190    -0.1331130
  H        0.1914070    -1.4988810     1.3301270
units angstrom
no_reorient  #important for SAPT in psi4, default
symmetry c1  #important for SAPT in psi4, default
}

set PROPERTIES_ORIGIN ["COM"]
properties('MP2/aug-cc-pvtz', properties = ['dipole'])
--------------------------------------------------------------------------

    Molecular point group: c1
  Charge       = 0
  Multiplicity = 1
  Basis Set: AUG-CC-PVTZ
    Blend: AUG-CC-PVTZ
  Basis Set: (AUG-CC-PVTZ AUX)
    Blend: AUG-CC-PVTZ-JKFIT

    Orbital Energies [Eh]
    ---------------------

    Doubly Occupied:

       1A    -11.212842     2A    -11.212658     3A    -11.212363
       4A    -11.211830     5A    -11.211720     6A    -11.211464
       7A     -1.110897     8A     -0.997996     9A     -0.997939
      10A     -0.824886    11A     -0.823919    12A     -0.747981
      13A     -0.646237    14A     -0.602241    15A     -0.593043
      16A     -0.591711    17A     -0.522891    18A     -0.522384
      19A     -0.510632    20A     -0.478464    21A     -0.477497
      22A     -0.448384    23A     -0.423995    24A     -0.423548

  @DF-RHF Final Energy:  -234.28615436234199

   => Energetics <=

    Nuclear Repulsion Energy =            256.0973209981866034
    One-Electron Energy =                -822.7319112733795237
    Two-Electron Energy =                 332.3484359128509595
    Total Energy =                       -234.2861543623420175
  Basis Set: (AUG-CC-PVTZ AUX)
    Blend: AUG-CC-PVTZ-RI
    Molecular point group: c1

    Geometry (in Angstrom), charge = 0, multiplicity = 1:

       Center              X                  Y                   Z               Mass
    ------------   -----------------  -----------------  -----------------  -----------------
         C           -1.158500197369    -0.881808006302    -0.232750231760    12.000000000000
         C           -1.343035197369     0.563296993698     0.232590768240    12.000000000000
         C           -0.183801197369     1.445658993698    -0.232747231760    12.000000000000
         C            1.159959802631     0.882912993698     0.232599768240    12.000000000000
         C            1.344487802631    -0.562187006302    -0.232760231760    12.000000000000
         C            0.185261802631    -1.444546006302     0.232602768240    12.000000000000
         H           -1.262456197369    -0.960947406302    -1.323739031760     1.007825032230
         H           -1.981227197369    -1.508035006302     0.133053768240     1.007825032230
         H           -2.296724197369     0.962684993698    -0.133223231760     1.007825032230
         H           -1.393066197369     0.584246993698     1.330034768240     1.007825032230
         H           -0.190664197369     1.499458993698    -1.330191231760     1.007825032230
         H           -0.314768197369     2.471272993698     0.133062768240     1.007825032230
         H            1.982685802631     1.509139993698    -0.133201231760     1.007825032230
         H            1.203111802631     0.915748993698     1.330045768240     1.007825032230
         H            1.394494802631    -0.583130006302    -1.330206231760     1.007825032230
         H            2.298182802631    -0.961576006302     0.133033768240     1.007825032230
         H            0.316228802631    -2.470164006302    -0.133190231760     1.007825032230
         H            0.192135802631    -1.498326006302     1.330049768240     1.007825032230

  Basis Set: AUG-CC-PVTZ
    Blend: AUG-CC-PVTZ
  Basis Set: (AUG-CC-PVTZ AUX)
    Blend: AUG-CC-PVTZ-JKFIT
	 Reference Energy          =    -234.2861543623419891 [Eh]
	 Singles Energy            =      -0.0000000000000000 [Eh]
	 Same-Spin Energy          =      -0.2537199167580793 [Eh]
	 Opposite-Spin Energy      =      -0.9207964398107880 [Eh]
	 Correlation Energy        =      -1.1745163565688672 [Eh]
	 Total Energy              =    -235.4606707189108477 [Eh]

	 ================> DF-SCS-MP2 Energies <==================
	-----------------------------------------------------------
	 SCS Same-Spin Scale       =       0.3333333333333333 [-]
	 SCS Opposite-Spin Scale   =       1.2000000000000000 [-]
	 SCS Same-Spin Energy      =      -0.0845733055860264 [Eh]
	 SCS Opposite-Spin Energy  =      -1.1049557277729456 [Eh]
	 SCS Correlation Energy    =      -1.1895290333589721 [Eh]
	 SCS Total Energy          =    -235.4756833957009690 [Eh]
	-----------------------------------------------------------

  Dipole Moment: [D]
     X:    -0.0156      Y:    -0.0118      Z:    -0.0076     Total:     0.0210

*** Psi4 exiting successfully. Buy a developer a beer!
