                               Psi4 1.3.2 release

  ==> Input File <==

--------------------------------------------------------------------------
#psi4
#
memory 32 gb

molecule  {
0 1
  C       -1.1592290    -0.8823630    -0.2326730
  C       -1.3676377     0.5632869     0.2207429
  C       -0.1845300     1.4451040    -0.2326700
  C        1.1592310     0.8823580     0.2326770
  C        1.3437590    -0.5627420    -0.2326830
  C        0.1845330    -1.4451010     0.2326800
  H       -1.2023750    -0.9152160    -1.3301180
  H       -1.9819560    -1.5085900     0.1331310
  H       -2.2974530     0.9621300    -0.1331460
  H       -1.3937950     0.5836920     1.3301120
  H       -0.1913930     1.4989040    -1.3301140
  H       -0.3154970     2.4707180     0.1331400
  H        1.9819570     1.5085850    -0.1331240
  H        1.2023830     0.9151940     1.3301230
  H        1.3937660    -0.5836850    -1.3301290
  H        2.2974540    -0.9621310     0.1331110
  H        0.3155000    -2.4707190    -0.1331130
  H        0.1914070    -1.4988810     1.3301270
units angstrom
no_reorient  #important for SAPT in psi4, default
symmetry c1  #important for SAPT in psi4, default
}

set PROPERTIES_ORIGIN ["COM"]
properties('MP2/aug-cc-pvtz', properties = ['dipole'])
--------------------------------------------------------------------------

    Molecular point group: c1
  Charge       = 0
  Multiplicity = 1
  Basis Set: AUG-CC-PVTZ
    Blend: AUG-CC-PVTZ
  Basis Set: (AUG-CC-PVTZ AUX)
    Blend: AUG-CC-PVTZ-JKFIT

    Orbital Energies [Eh]
    ---------------------

    Doubly Occupied:

       1A    -11.212924     2A    -11.212761     3A    -11.212414
       4A    -11.212043     5A    -11.211802     6A    -11.211448
       7A     -1.109962     8A     -0.998521     9A     -0.996846
      10A     -0.825341    11A     -0.823465    12A     -0.747223
      13A     -0.645947    14A     -0.604698    15A     -0.592514
      16A     -0.592126    17A     -0.525888    18A     -0.522029
      19A     -0.510377    20A     -0.476734    21A     -0.475438
      22A     -0.447223    23A     -0.427652    24A     -0.422271

  @DF-RHF Final Energy:  -234.28607177865382

   => Energetics <=

    Nuclear Repulsion Energy =            255.9363798942123367
    One-Electron Energy =                -822.4096069176692936
    Two-Electron Energy =                 332.1871552448031366
    Total Energy =                       -234.2860717786538203
  Basis Set: (AUG-CC-PVTZ AUX)
    Blend: AUG-CC-PVTZ-RI
    Molecular point group: c1

    Geometry (in Angstrom), charge = 0, multiplicity = 1:

       Center              X                  Y                   Z               Mass
    ------------   -----------------  -----------------  -----------------  -----------------
         C           -1.155822255702    -0.882440482526    -0.230971173835    12.000000000000
         C           -1.364230955702     0.563209417474     0.222444726165    12.000000000000
         C           -0.181123255702     1.445026517474    -0.230968173835    12.000000000000
         C            1.162637744298     0.882280517474     0.234378826165    12.000000000000
         C            1.347165744298    -0.562819482526    -0.230981173835    12.000000000000
         C            0.187939744298    -1.445178482526     0.234381826165    12.000000000000
         H           -1.198968255702    -0.915293482526    -1.328416173835     1.007825032230
         H           -1.978549255702    -1.508667482526     0.134832826165     1.007825032230
         H           -2.294046255702     0.962052517474    -0.131444173835     1.007825032230
         H           -1.390388255702     0.583614517474     1.331813826165     1.007825032230
         H           -0.187986255702     1.498826517474    -1.328412173835     1.007825032230
         H           -0.312090255702     2.470640517474     0.134841826165     1.007825032230
         H            1.985363744298     1.508507517474    -0.131422173835     1.007825032230
         H            1.205789744298     0.915116517474     1.331824826165     1.007825032230
         H            1.397172744298    -0.583762482526    -1.328427173835     1.007825032230
         H            2.300860744298    -0.962208482526     0.134812826165     1.007825032230
         H            0.318906744298    -2.470796482526    -0.131411173835     1.007825032230
         H            0.194813744298    -1.498958482526     1.331828826165     1.007825032230

  Basis Set: AUG-CC-PVTZ
    Blend: AUG-CC-PVTZ
  Basis Set: (AUG-CC-PVTZ AUX)
    Blend: AUG-CC-PVTZ-JKFIT
	 Reference Energy          =    -234.2860717786538203 [Eh]
	 Singles Energy            =      -0.0000000000000000 [Eh]
	 Same-Spin Energy          =      -0.2536643951273955 [Eh]
	 Opposite-Spin Energy      =      -0.9208190313404978 [Eh]
	 Correlation Energy        =      -1.1744834264678934 [Eh]
	 Total Energy              =    -235.4605552051217217 [Eh]

	 ================> DF-SCS-MP2 Energies <==================
	-----------------------------------------------------------
	 SCS Same-Spin Scale       =       0.3333333333333333 [-]
	 SCS Opposite-Spin Scale   =       1.2000000000000000 [-]
	 SCS Same-Spin Energy      =      -0.0845547983757985 [Eh]
	 SCS Opposite-Spin Energy  =      -1.1049828376085973 [Eh]
	 SCS Correlation Energy    =      -1.1895376359843959 [Eh]
	 SCS Total Energy          =    -235.4756094146382281 [Eh]
	-----------------------------------------------------------

  Dipole Moment: [D]
     X:    -0.0057      Y:     0.0001      Z:    -0.0078     Total:     0.0097

*** Psi4 exiting successfully. Buy a developer a beer!
