                               Psi4 1.3.2 release

  ==> Input File <==

--------------------------------------------------------------------------
#psi4
#
memory 32 gb

molecule  {
0 1
  S       -2.3164830    -0.1817160    -0.0786020
  O        2.8418010    -0.5125780    -0.0335720
  C        0.4864880    -0.2823360    -0.0275950
  C       -0.7075030     0.6590380     0.0612160
  C        1.9138177     0.5696698     0.0312951
  H        0.4421100    -0.8587610    -0.9561370
  H        0.4659560    -1.0006030     0.7993460
  H       -0.6918870     1.3735120    -0.7679060
  H       -0.6788470     1.2393610     0.9882120
  H        1.8727330     1.1687090    -0.8189890
  H        1.8690250     1.0558810     0.9533790
  H       -2.1500500    -0.9869150     0.9815770
  H        3.6929260    -0.0445400    -0.0102600
units angstrom
no_reorient  #important for SAPT in psi4, default
symmetry c1  #important for SAPT in psi4, default
}

set PROPERTIES_ORIGIN ["COM"]
properties('MP2/aug-cc-pvtz', properties = ['dipole'])
--------------------------------------------------------------------------

    Molecular point group: c1
  Charge       = 0
  Multiplicity = 1
  Basis Set: AUG-CC-PVTZ
    Blend: AUG-CC-PVTZ
  Basis Set: (AUG-CC-PVTZ AUX)
    Blend: AUG-CC-PVTZ-JKFIT

    Orbital Energies [Eh]
    ---------------------

    Doubly Occupied:

       1A    -91.949395     2A    -20.571407     3A    -11.281518
       4A    -11.261579     5A    -11.232840     6A     -8.950598
       7A     -6.631951     8A     -6.630937     9A     -6.629917
      10A     -1.367385    11A     -1.075522    12A     -0.973660
      13A     -0.876881    14A     -0.811275    15A     -0.692860
      16A     -0.678488    17A     -0.617978    18A     -0.584613
      19A     -0.545118    20A     -0.528368    21A     -0.505352
      22A     -0.481467    23A     -0.472599    24A     -0.425736
      25A     -0.352944

  @DF-RHF Final Energy:  -590.71647156055326

   => Energetics <=

    Nuclear Repulsion Energy =            221.8993905076473823
    One-Electron Energy =               -1252.9709488395544668
    Two-Electron Energy =                 440.3550867713536263
    Total Energy =                       -590.7164715605533729
  Basis Set: (AUG-CC-PVTZ AUX)
    Blend: AUG-CC-PVTZ-RI
    Molecular point group: c1

    Geometry (in Angstrom), charge = 0, multiplicity = 1:

       Center              X                  Y                   Z               Mass
    ------------   -----------------  -----------------  -----------------  -----------------
         S           -2.279157345311    -0.174216889019    -0.066728800749    31.972071174400
         O            2.879126654689    -0.505078889019    -0.021698800749    15.994914619570
         C            0.523813654689    -0.274836889019    -0.015721800749    12.000000000000
         C           -0.670177345311     0.666537110981     0.073089199251    12.000000000000
         C            1.951143354689     0.577168910981     0.043168299251    12.000000000000
         H            0.479435654689    -0.851261889019    -0.944263800749     1.007825032230
         H            0.503281654689    -0.993103889019     0.811219199251     1.007825032230
         H           -0.654561345311     1.381011110981    -0.756032800749     1.007825032230
         H           -0.641521345311     1.246860110981     1.000085199251     1.007825032230
         H            1.910058654689     1.176208110981    -0.807115800749     1.007825032230
         H            1.906350654689     1.063380110981     0.965252199251     1.007825032230
         H           -2.112724345311    -0.979415889019     0.993450199251     1.007825032230
         H            3.730251654689    -0.037040889019     0.001613199251     1.007825032230

  Basis Set: AUG-CC-PVTZ
    Blend: AUG-CC-PVTZ
  Basis Set: (AUG-CC-PVTZ AUX)
    Blend: AUG-CC-PVTZ-JKFIT
	 Reference Energy          =    -590.7164715605532592 [Eh]
	 Singles Energy            =      -0.0000000000000000 [Eh]
	 Same-Spin Energy          =      -0.2476309425982766 [Eh]
	 Opposite-Spin Energy      =      -0.8312576782843530 [Eh]
	 Correlation Energy        =      -1.0788886208826296 [Eh]
	 Total Energy              =    -591.7953601814358535 [Eh]

	 ================> DF-SCS-MP2 Energies <==================
	-----------------------------------------------------------
	 SCS Same-Spin Scale       =       0.3333333333333333 [-]
	 SCS Opposite-Spin Scale   =       1.2000000000000000 [-]
	 SCS Same-Spin Energy      =      -0.0825436475327589 [Eh]
	 SCS Opposite-Spin Energy  =      -0.9975092139412236 [Eh]
	 SCS Correlation Energy    =      -1.0800528614739824 [Eh]
	 SCS Total Energy          =    -591.7965244220272325 [Eh]
	-----------------------------------------------------------

  Dipole Moment: [D]
     X:     1.8950      Y:     1.7951      Z:     0.7023     Total:     2.7031

*** Psi4 exiting successfully. Buy a developer a beer!
