                               Psi4 1.3.2 release

  ==> Input File <==

--------------------------------------------------------------------------
#psi4
#
memory 32 gb

molecule  {
0 1
  S       -2.3013803    -0.2095061    -0.0816793
  O        2.8418010    -0.5125780    -0.0335720
  C        0.4864880    -0.2823360    -0.0275950
  C       -0.7075030     0.6590380     0.0612160
  C        1.8055740     0.4668710     0.0258770
  H        0.4421100    -0.8587610    -0.9561370
  H        0.4659560    -1.0006030     0.7993460
  H       -0.6918870     1.3735120    -0.7679060
  H       -0.6788470     1.2393610     0.9882120
  H        1.8727330     1.1687090    -0.8189890
  H        1.8690250     1.0558810     0.9533790
  H       -2.1500500    -0.9869150     0.9815770
  H        3.6929260    -0.0445400    -0.0102600
units angstrom
no_reorient  #important for SAPT in psi4, default
symmetry c1  #important for SAPT in psi4, default
}

set PROPERTIES_ORIGIN ["COM"]
properties('MP2/aug-cc-pvtz', properties = ['dipole'])
--------------------------------------------------------------------------

    Molecular point group: c1
  Charge       = 0
  Multiplicity = 1
  Basis Set: AUG-CC-PVTZ
    Blend: AUG-CC-PVTZ
  Basis Set: (AUG-CC-PVTZ AUX)
    Blend: AUG-CC-PVTZ-JKFIT

    Orbital Energies [Eh]
    ---------------------

    Doubly Occupied:

       1A    -91.950520     2A    -20.565661     3A    -11.284074
       4A    -11.265263     5A    -11.229550     6A     -8.952108
       7A     -6.633508     8A     -6.632458     9A     -6.631421
      10A     -1.362339    11A     -1.087911    12A     -0.987632
      13A     -0.870862    14A     -0.812297    15A     -0.696215
      16A     -0.672074    17A     -0.609202    18A     -0.590497
      19A     -0.546611    20A     -0.532754    21A     -0.507857
      22A     -0.492679    23A     -0.452465    24A     -0.446009
      25A     -0.356642

  @DF-RHF Final Energy:  -590.73718630696794

   => Energetics <=

    Nuclear Repulsion Energy =            223.7895689660973346
    One-Electron Energy =               -1256.7162947941581024
    Two-Electron Energy =                 442.1895395210928541
    Total Energy =                       -590.7371863069679421
  Basis Set: (AUG-CC-PVTZ AUX)
    Blend: AUG-CC-PVTZ-RI
    Molecular point group: c1

    Geometry (in Angstrom), charge = 0, multiplicity = 1:

       Center              X                  Y                   Z               Mass
    ------------   -----------------  -----------------  -----------------  -----------------
         S           -2.255187281720    -0.178948179932    -0.068030532025    31.972071174400
         O            2.887994018280    -0.482020079932    -0.019923232025    15.994914619570
         C            0.532681018280    -0.251778079932    -0.013946232025    12.000000000000
         C           -0.661309981720     0.689595920068     0.074864767975    12.000000000000
         C            1.851767018280     0.497428920068     0.039525767975    12.000000000000
         H            0.488303018280    -0.828203079932    -0.942488232025     1.007825032230
         H            0.512149018280    -0.970045079932     0.812994767975     1.007825032230
         H           -0.645693981720     1.404069920068    -0.754257232025     1.007825032230
         H           -0.632653981720     1.269918920068     1.001860767975     1.007825032230
         H            1.918926018280     1.199266920068    -0.805340232025     1.007825032230
         H            1.915218018280     1.086438920068     0.967027767975     1.007825032230
         H           -2.103856981720    -0.956357079932     0.995225767975     1.007825032230
         H            3.739119018280    -0.013982079932     0.003388767975     1.007825032230

  Basis Set: AUG-CC-PVTZ
    Blend: AUG-CC-PVTZ
  Basis Set: (AUG-CC-PVTZ AUX)
    Blend: AUG-CC-PVTZ-JKFIT
	 Reference Energy          =    -590.7371863069679421 [Eh]
	 Singles Energy            =      -0.0000000000000000 [Eh]
	 Same-Spin Energy          =      -0.2473005802404367 [Eh]
	 Opposite-Spin Energy      =      -0.8295234034044225 [Eh]
	 Correlation Energy        =      -1.0768239836448592 [Eh]
	 Total Energy              =    -591.8140102906128277 [Eh]

	 ================> DF-SCS-MP2 Energies <==================
	-----------------------------------------------------------
	 SCS Same-Spin Scale       =       0.3333333333333333 [-]
	 SCS Opposite-Spin Scale   =       1.2000000000000000 [-]
	 SCS Same-Spin Energy      =      -0.0824335267468122 [Eh]
	 SCS Opposite-Spin Energy  =      -0.9954280840853070 [Eh]
	 SCS Correlation Energy    =      -1.0778616108321193 [Eh]
	 SCS Total Energy          =    -591.8150479178000296 [Eh]
	-----------------------------------------------------------

  Dipole Moment: [D]
     X:     1.6635      Y:     1.7524      Z:     0.7162     Total:     2.5202

*** Psi4 exiting successfully. Buy a developer a beer!
