                               Psi4 1.3.2 release

  ==> Input File <==

--------------------------------------------------------------------------
#psi4
#
memory 32 gb

molecule  {
0 1
  S       -2.3966561    -0.0098986    -0.0592773
  O        2.8418010    -0.5125780    -0.0335720
  C        0.4864880    -0.2823360    -0.0275950
  C       -0.7075030     0.6590380     0.0612160
  C        1.8055740     0.4668710     0.0258770
  H        0.4421100    -0.8587610    -0.9561370
  H        0.4659560    -1.0006030     0.7993460
  H       -0.6918870     1.3735120    -0.7679060
  H       -0.6788470     1.2393610     0.9882120
  H        1.8727330     1.1687090    -0.8189890
  H        1.8690250     1.0558810     0.9533790
  H       -2.1500500    -0.9869150     0.9815770
  H        3.6929260    -0.0445400    -0.0102600
units angstrom
no_reorient  #important for SAPT in psi4, default
symmetry c1  #important for SAPT in psi4, default
}

set PROPERTIES_ORIGIN ["COM"]
properties('MP2/aug-cc-pvtz', properties = ['dipole'])
--------------------------------------------------------------------------

    Molecular point group: c1
  Charge       = 0
  Multiplicity = 1
  Basis Set: AUG-CC-PVTZ
    Blend: AUG-CC-PVTZ
  Basis Set: (AUG-CC-PVTZ AUX)
    Blend: AUG-CC-PVTZ-JKFIT

    Orbital Energies [Eh]
    ---------------------

    Doubly Occupied:

       1A    -91.960926     2A    -20.566928     3A    -11.286142
       4A    -11.264088     5A    -11.232445     6A     -8.959678
       7A     -6.640819     8A     -6.639840     9A     -6.638888
      10A     -1.363631    11A     -1.085379    12A     -0.985936
      13A     -0.864491    14A     -0.807809    15A     -0.696892
      16A     -0.672354    17A     -0.606151    18A     -0.589737
      19A     -0.548262    20A     -0.520128    21A     -0.510111
      22A     -0.482558    23A     -0.453658    24A     -0.451086
      25A     -0.356827

  @DF-RHF Final Energy:  -590.72828785945899

   => Energetics <=

    Nuclear Repulsion Energy =            221.9655359015347642
    One-Electron Energy =               -1253.0181191593312633
    Two-Electron Energy =                 440.3242953983373695
    Total Energy =                       -590.7282878594589874
  Basis Set: (AUG-CC-PVTZ AUX)
    Blend: AUG-CC-PVTZ-RI
    Molecular point group: c1

    Geometry (in Angstrom), charge = 0, multiplicity = 1:

       Center              X                  Y                   Z               Mass
    ------------   -----------------  -----------------  -----------------  -----------------
         S           -2.317363240794    -0.048686479155    -0.053411228538    31.972071174400
         O            2.921093859206    -0.551365879155    -0.027705928538    15.994914619570
         C            0.565780859206    -0.321123879155    -0.021728928538    12.000000000000
         C           -0.628210140794     0.620250120845     0.067082071462    12.000000000000
         C            1.884866859206     0.428083120845     0.031743071462    12.000000000000
         H            0.521402859206    -0.897548879155    -0.950270928538     1.007825032230
         H            0.545248859206    -1.039390879155     0.805212071462     1.007825032230
         H           -0.612594140794     1.334724120845    -0.762039928538     1.007825032230
         H           -0.599554140794     1.200573120845     0.994078071462     1.007825032230
         H            1.952025859206     1.129921120845    -0.813122928538     1.007825032230
         H            1.948317859206     1.017093120845     0.959245071462     1.007825032230
         H           -2.070757140794    -1.025702879155     0.987443071462     1.007825032230
         H            3.772218859206    -0.083327879155    -0.004393928538     1.007825032230

  Basis Set: AUG-CC-PVTZ
    Blend: AUG-CC-PVTZ
  Basis Set: (AUG-CC-PVTZ AUX)
    Blend: AUG-CC-PVTZ-JKFIT
	 Reference Energy          =    -590.7282878594589874 [Eh]
	 Singles Energy            =      -0.0000000000000000 [Eh]
	 Same-Spin Energy          =      -0.2474742122149839 [Eh]
	 Opposite-Spin Energy      =      -0.8306923393623473 [Eh]
	 Correlation Energy        =      -1.0781665515773311 [Eh]
	 Total Energy              =    -591.8064544110362704 [Eh]

	 ================> DF-SCS-MP2 Energies <==================
	-----------------------------------------------------------
	 SCS Same-Spin Scale       =       0.3333333333333333 [-]
	 SCS Opposite-Spin Scale   =       1.2000000000000000 [-]
	 SCS Same-Spin Energy      =      -0.0824914040716613 [Eh]
	 SCS Opposite-Spin Energy  =      -0.9968308072348168 [Eh]
	 SCS Correlation Energy    =      -1.0793222113064780 [Eh]
	 SCS Total Energy          =    -591.8076100707654632 [Eh]
	-----------------------------------------------------------

  Dipole Moment: [D]
     X:     1.7389      Y:     1.6156      Z:     0.6120     Total:     2.4512

*** Psi4 exiting successfully. Buy a developer a beer!
