                               Psi4 1.3.2 release

  ==> Input File <==

--------------------------------------------------------------------------
#psi4
#
memory 32 gb

molecule  {
0 1
  S       -2.3335780    -0.1558226    -0.0231368
  O        2.8418010    -0.5125780    -0.0335720
  C        0.4864880    -0.2823360    -0.0275950
  C       -0.7075030     0.6590380     0.0612160
  C        1.8055740     0.4668710     0.0258770
  H        0.4421100    -0.8587610    -0.9561370
  H        0.4659560    -1.0006030     0.7993460
  H       -0.6918870     1.3735120    -0.7679060
  H       -0.6788470     1.2393610     0.9882120
  H        1.8727330     1.1687090    -0.8189890
  H        1.8690250     1.0558810     0.9533790
  H       -2.1500500    -0.9869150     0.9815770
  H        3.6929260    -0.0445400    -0.0102600
units angstrom
no_reorient  #important for SAPT in psi4, default
symmetry c1  #important for SAPT in psi4, default
}

set PROPERTIES_ORIGIN ["COM"]
properties('MP2/aug-cc-pvtz', properties = ['dipole'])
--------------------------------------------------------------------------

    Molecular point group: c1
  Charge       = 0
  Multiplicity = 1
  Basis Set: AUG-CC-PVTZ
    Blend: AUG-CC-PVTZ
  Basis Set: (AUG-CC-PVTZ AUX)
    Blend: AUG-CC-PVTZ-JKFIT

    Orbital Energies [Eh]
    ---------------------

    Doubly Occupied:

       1A    -91.949758     2A    -20.566210     3A    -11.284931
       4A    -11.265132     5A    -11.230723     6A     -8.951579
       7A     -6.633011     8A     -6.631934     9A     -6.630889
      10A     -1.362900    11A     -1.087668    12A     -0.989150
      13A     -0.872006    14A     -0.812537    15A     -0.696855
      16A     -0.672146    17A     -0.608245    18A     -0.590963
      19A     -0.550268    20A     -0.531798    21A     -0.508632
      22A     -0.493737    23A     -0.452878    24A     -0.445367
      25A     -0.356357

  @DF-RHF Final Energy:  -590.73710817708002

   => Energetics <=

    Nuclear Repulsion Energy =            223.4060031697210320
    One-Electron Energy =               -1255.9348748210538815
    Two-Electron Energy =                 441.7917634742528321
    Total Energy =                       -590.7371081770800174
  Basis Set: (AUG-CC-PVTZ AUX)
    Blend: AUG-CC-PVTZ-RI
    Molecular point group: c1

    Geometry (in Angstrom), charge = 0, multiplicity = 1:

       Center              X                  Y                   Z               Mass
    ------------   -----------------  -----------------  -----------------  -----------------
         S           -2.276199153334    -0.143914907065    -0.029826328186    31.972071174400
         O            2.899179846666    -0.500670307065    -0.040261528186    15.994914619570
         C            0.543866846666    -0.270428307065    -0.034284528186    12.000000000000
         C           -0.650124153334     0.670945692935     0.054526471814    12.000000000000
         C            1.862952846666     0.478778692935     0.019187471814    12.000000000000
         H            0.499488846666    -0.846853307065    -0.962826528186     1.007825032230
         H            0.523334846666    -0.988695307065     0.792656471814     1.007825032230
         H           -0.634508153334     1.385419692935    -0.774595528186     1.007825032230
         H           -0.621468153334     1.251268692935     0.981522471814     1.007825032230
         H            1.930111846666     1.180616692935    -0.825678528186     1.007825032230
         H            1.926403846666     1.067788692935     0.946689471814     1.007825032230
         H           -2.092671153334    -0.975007307065     0.974887471814     1.007825032230
         H            3.750304846666    -0.032632307065    -0.016949528186     1.007825032230

  Basis Set: AUG-CC-PVTZ
    Blend: AUG-CC-PVTZ
  Basis Set: (AUG-CC-PVTZ AUX)
    Blend: AUG-CC-PVTZ-JKFIT
	 Reference Energy          =    -590.7371081770800174 [Eh]
	 Singles Energy            =      -0.0000000000000000 [Eh]
	 Same-Spin Energy          =      -0.2472103652462348 [Eh]
	 Opposite-Spin Energy      =      -0.8293386766644988 [Eh]
	 Correlation Energy        =      -1.0765490419107335 [Eh]
	 Total Energy              =    -591.8136572189907838 [Eh]

	 ================> DF-SCS-MP2 Energies <==================
	-----------------------------------------------------------
	 SCS Same-Spin Scale       =       0.3333333333333333 [-]
	 SCS Opposite-Spin Scale   =       1.2000000000000000 [-]
	 SCS Same-Spin Energy      =      -0.0824034550820783 [Eh]
	 SCS Opposite-Spin Energy  =      -0.9952064119973985 [Eh]
	 SCS Correlation Energy    =      -1.0776098670794767 [Eh]
	 SCS Total Energy          =    -591.8147180441594628 [Eh]
	-----------------------------------------------------------

  Dipole Moment: [D]
     X:     1.7217      Y:     1.7002      Z:     0.6657     Total:     2.5097

*** Psi4 exiting successfully. Buy a developer a beer!
