                               Psi4 1.3.2 release

  ==> Input File <==

--------------------------------------------------------------------------
#psi4
#
memory 32 gb

molecule  {
0 1
  S       -2.3164830    -0.1817160    -0.0786020
  O        2.8738132    -0.4685806    -0.1170086
  C        0.4864880    -0.2823360    -0.0275950
  C       -0.7075030     0.6590380     0.0612160
  C        1.8055740     0.4668710     0.0258770
  H        0.4421100    -0.8587610    -0.9561370
  H        0.4659560    -1.0006030     0.7993460
  H       -0.6918870     1.3735120    -0.7679060
  H       -0.6788470     1.2393610     0.9882120
  H        1.8727330     1.1687090    -0.8189890
  H        1.8690250     1.0558810     0.9533790
  H       -2.1500500    -0.9869150     0.9815770
  H        3.6929260    -0.0445400    -0.0102600
units angstrom
no_reorient  #important for SAPT in psi4, default
symmetry c1  #important for SAPT in psi4, default
}

set PROPERTIES_ORIGIN ["COM"]
properties('MP2/aug-cc-pvtz', properties = ['dipole'])
--------------------------------------------------------------------------

    Molecular point group: c1
  Charge       = 0
  Multiplicity = 1
  Basis Set: AUG-CC-PVTZ
    Blend: AUG-CC-PVTZ
  Basis Set: (AUG-CC-PVTZ AUX)
    Blend: AUG-CC-PVTZ-JKFIT

    Orbital Energies [Eh]
    ---------------------

    Doubly Occupied:

       1A    -91.952694     2A    -20.559763     3A    -11.284985
       4A    -11.266017     5A    -11.231293     6A     -8.953832
       7A     -6.635186     8A     -6.634167     9A     -6.633139
      10A     -1.369988    11A     -1.088922    12A     -0.989698
      13A     -0.872763    14A     -0.812238    15A     -0.706149
      16A     -0.671126    17A     -0.609373    18A     -0.592567
      19A     -0.548561    20A     -0.531668    21A     -0.507150
      22A     -0.492518    23A     -0.452989    24A     -0.446239
      25A     -0.357538

  @DF-RHF Final Energy:  -590.73762643933230

   => Energetics <=

    Nuclear Repulsion Energy =            223.4376424096482765
    One-Electron Energy =               -1255.9494139820183136
    Two-Electron Energy =                 441.7741451330376776
    Total Energy =                       -590.7376264393323027
  Basis Set: (AUG-CC-PVTZ AUX)
    Blend: AUG-CC-PVTZ-RI
    Molecular point group: c1

    Geometry (in Angstrom), charge = 0, multiplicity = 1:

       Center              X                  Y                   Z               Mass
    ------------   -----------------  -----------------  -----------------  -----------------
         S           -2.270606921171    -0.168459491140    -0.051520881717    31.972071174400
         O            2.919689278829    -0.455324091140    -0.089927481717    15.994914619570
         C            0.532364078829    -0.269079491140    -0.000513881717    12.000000000000
         C           -0.661626921171     0.672294508860     0.088297118283    12.000000000000
         C            1.851450078829     0.480127508860     0.052958118283    12.000000000000
         H            0.487986078829    -0.845504491140    -0.929055881717     1.007825032230
         H            0.511832078829    -0.987346491140     0.826427118283     1.007825032230
         H           -0.646010921171     1.386768508860    -0.740824881717     1.007825032230
         H           -0.632970921171     1.252617508860     1.015293118283     1.007825032230
         H            1.918609078829     1.181965508860    -0.791907881717     1.007825032230
         H            1.914901078829     1.069137508860     0.980460118283     1.007825032230
         H           -2.104173921171    -0.973658491140     1.008658118283     1.007825032230
         H            3.738802078829    -0.031283491140     0.016821118283     1.007825032230

  Basis Set: AUG-CC-PVTZ
    Blend: AUG-CC-PVTZ
  Basis Set: (AUG-CC-PVTZ AUX)
    Blend: AUG-CC-PVTZ-JKFIT
	 Reference Energy          =    -590.7376264393323027 [Eh]
	 Singles Energy            =      -0.0000000000000000 [Eh]
	 Same-Spin Energy          =      -0.2466765640645381 [Eh]
	 Opposite-Spin Energy      =      -0.8280605981440278 [Eh]
	 Correlation Energy        =      -1.0747371622085660 [Eh]
	 Total Energy              =    -591.8123636015408238 [Eh]

	 ================> DF-SCS-MP2 Energies <==================
	-----------------------------------------------------------
	 SCS Same-Spin Scale       =       0.3333333333333333 [-]
	 SCS Opposite-Spin Scale   =       1.2000000000000000 [-]
	 SCS Same-Spin Energy      =      -0.0822255213548460 [Eh]
	 SCS Opposite-Spin Energy  =      -0.9936727177728333 [Eh]
	 SCS Correlation Energy    =      -1.0758982391276792 [Eh]
	 SCS Total Energy          =    -591.8135246784599985 [Eh]
	-----------------------------------------------------------

  Dipole Moment: [D]
     X:     1.5821      Y:     1.6688      Z:     0.9082     Total:     2.4724

*** Psi4 exiting successfully. Buy a developer a beer!
