                               Psi4 1.3.2 release

  ==> Input File <==

--------------------------------------------------------------------------
#psi4
#
memory 32 gb

molecule  {
0 1
  S       -2.3164830    -0.1817160    -0.0786020
  O        2.7335573    -0.6152774    -0.0406269
  C        0.4864880    -0.2823360    -0.0275950
  C       -0.7075030     0.6590380     0.0612160
  C        1.8055740     0.4668710     0.0258770
  H        0.4421100    -0.8587610    -0.9561370
  H        0.4659560    -1.0006030     0.7993460
  H       -0.6918870     1.3735120    -0.7679060
  H       -0.6788470     1.2393610     0.9882120
  H        1.8727330     1.1687090    -0.8189890
  H        1.8690250     1.0558810     0.9533790
  H       -2.1500500    -0.9869150     0.9815770
  H        3.6929260    -0.0445400    -0.0102600
units angstrom
no_reorient  #important for SAPT in psi4, default
symmetry c1  #important for SAPT in psi4, default
}

set PROPERTIES_ORIGIN ["COM"]
properties('MP2/aug-cc-pvtz', properties = ['dipole'])
--------------------------------------------------------------------------

    Molecular point group: c1
  Charge       = 0
  Multiplicity = 1
  Basis Set: AUG-CC-PVTZ
    Blend: AUG-CC-PVTZ
  Basis Set: (AUG-CC-PVTZ AUX)
    Blend: AUG-CC-PVTZ-JKFIT

    Orbital Energies [Eh]
    ---------------------

    Doubly Occupied:

       1A    -91.949886     2A    -20.583068     3A    -11.283764
       4A    -11.262257     5A    -11.226315     6A     -8.951069
       7A     -6.632430     8A     -6.631413     9A     -6.630392
      10A     -1.345561    11A     -1.083244    12A     -0.980994
      13A     -0.863862    14A     -0.812077    15A     -0.672312
      16A     -0.667814    17A     -0.607240    18A     -0.586905
      19A     -0.540463    20A     -0.526353    21A     -0.507426
      22A     -0.490483    23A     -0.456622    24A     -0.440979
      25A     -0.354373

  @DF-RHF Final Energy:  -590.70833753893896

   => Energetics <=

    Nuclear Repulsion Energy =            223.9090685362769477
    One-Electron Energy =               -1257.0602099357627139
    Two-Electron Energy =                 442.4428038605467464
    Total Energy =                       -590.7083375389390767
  Basis Set: (AUG-CC-PVTZ AUX)
    Blend: AUG-CC-PVTZ-RI
    Molecular point group: c1

    Geometry (in Angstrom), charge = 0, multiplicity = 1:

       Center              X                  Y                   Z               Mass
    ------------   -----------------  -----------------  -----------------  -----------------
         S           -2.246230182758    -0.142963312230    -0.064796164400    31.972071174400
         O            2.803810117242    -0.576524712230    -0.026821064400    15.994914619570
         C            0.556740817242    -0.243583312230    -0.013789164400    12.000000000000
         C           -0.637250182758     0.697790687770     0.075021835600    12.000000000000
         C            1.875826817242     0.505623687770     0.039682835600    12.000000000000
         H            0.512362817242    -0.820008312230    -0.942331164400     1.007825032230
         H            0.536208817242    -0.961850312230     0.813151835600     1.007825032230
         H           -0.621634182758     1.412264687770    -0.754100164400     1.007825032230
         H           -0.608594182758     1.278113687770     1.002017835600     1.007825032230
         H            1.942985817242     1.207461687770    -0.805183164400     1.007825032230
         H            1.939277817242     1.094633687770     0.967184835600     1.007825032230
         H           -2.079797182758    -0.948162312230     0.995382835600     1.007825032230
         H            3.763178817242    -0.005787312230     0.003545835600     1.007825032230

  Basis Set: AUG-CC-PVTZ
    Blend: AUG-CC-PVTZ
  Basis Set: (AUG-CC-PVTZ AUX)
    Blend: AUG-CC-PVTZ-JKFIT
	 Reference Energy          =    -590.7083375389389630 [Eh]
	 Singles Energy            =      -0.0000000000000000 [Eh]
	 Same-Spin Energy          =      -0.2496698414285766 [Eh]
	 Opposite-Spin Energy      =      -0.8358978155981680 [Eh]
	 Correlation Energy        =      -1.0855676570267447 [Eh]
	 Total Energy              =    -591.7939051959657490 [Eh]

	 ================> DF-SCS-MP2 Energies <==================
	-----------------------------------------------------------
	 SCS Same-Spin Scale       =       0.3333333333333333 [-]
	 SCS Opposite-Spin Scale   =       1.2000000000000000 [-]
	 SCS Same-Spin Energy      =      -0.0832232804761922 [Eh]
	 SCS Opposite-Spin Energy  =      -1.0030773787178016 [Eh]
	 SCS Correlation Energy    =      -1.0863006591939937 [Eh]
	 SCS Total Energy          =    -591.7946381981329296 [Eh]
	-----------------------------------------------------------

  Dipole Moment: [D]
     X:     1.9237      Y:     1.8350      Z:     0.7081     Total:     2.7512

*** Psi4 exiting successfully. Buy a developer a beer!
