                               Psi4 1.4a3.dev225

  ==> Input File <==

--------------------------------------------------------------------------
#psi4
#
memory 32 gb

molecule  {
0 1
  S       -2.3164950    -0.1817520    -0.0785600
  O        2.8418240    -0.5125870    -0.0336710
  C        0.4864850    -0.2823110    -0.0275730
  C       -0.7517058     0.6359657     0.0571005
  C        1.8055900     0.4668570     0.0262110
  H        0.4423910    -0.8587120    -0.9561410
  H        0.4657080    -1.0005910     0.7993450
  H       -0.6919970     1.3731860    -0.7684900
  H       -0.6788530     1.2397730     0.9876800
  H        1.8727880     1.1690760    -0.8183300
  H        1.8691150     1.0554390     0.9539770
  H       -2.1500900    -0.9865220     0.9819500
  H        3.6929560    -0.0445220    -0.0110750
units angstrom
no_reorient  #important for SAPT in psi4, default
symmetry c1  #important for SAPT in psi4, default
}

set PROPERTIES_ORIGIN ["COM"]
properties('MP2/aug-cc-pvtz', properties = ['dipole'])
--------------------------------------------------------------------------

    Molecular point group: c1
  Charge       = 0
  Multiplicity = 1
  Basis Set: AUG-CC-PVTZ
    Blend: AUG-CC-PVTZ
  Basis Set: (AUG-CC-PVTZ AUX)
    Blend: AUG-CC-PVTZ-JKFIT

    Orbital Energies [Eh]
    ---------------------

    Doubly Occupied:

       1A    -91.953102     2A    -20.565850     3A    -11.284425
       4A    -11.265121     5A    -11.230147     6A     -8.954937
       7A     -6.636346     8A     -6.635336     9A     -6.634243
      10A     -1.362407    11A     -1.087599    12A     -0.992688
      13A     -0.867944    14A     -0.808476    15A     -0.695581
      16A     -0.669334    17A     -0.607410    18A     -0.590201
      19A     -0.546273    20A     -0.532517    21A     -0.506113
      22A     -0.488501    23A     -0.453861    24A     -0.451160
      25A     -0.356245

  @DF-RHF Final Energy:  -590.73464730714113

   => Energetics <=

    Nuclear Repulsion Energy =            223.8314284663690046
    One-Electron Energy =               -1256.7805200623031396
    Two-Electron Energy =                 442.2144442887930040
    Total Energy =                       -590.7346473071411310
  Basis Set: (AUG-CC-PVTZ AUX)
    Blend: AUG-CC-PVTZ-RI
    Molecular point group: c1

    Geometry (in Angstrom), charge = 0, multiplicity = 1:

       Center              X                  Y                   Z               Mass
    ------------   -----------------  -----------------  -----------------  -----------------
         S           -2.259293504797    -0.157832850267    -0.065484141161    31.972071174400
         O            2.899025495203    -0.488667850267    -0.020595141161    15.994914619570
         C            0.543686495203    -0.258391850267    -0.014497141161    12.000000000000
         C           -0.694504304797     0.659884849733     0.070176358839    12.000000000000
         C            1.862791495203     0.490776149733     0.039286858839    12.000000000000
         H            0.499592495203    -0.834792850267    -0.943065141161     1.007825032230
         H            0.522909495203    -0.976671850267     0.812420858839     1.007825032230
         H           -0.634795504797     1.397105149733    -0.755414141161     1.007825032230
         H           -0.621651504797     1.263692149733     1.000755858839     1.007825032230
         H            1.929989495203     1.192995149733    -0.805254141161     1.007825032230
         H            1.926316495203     1.079358149733     0.967052858839     1.007825032230
         H           -2.092888504797    -0.962602850267     0.995025858839     1.007825032230
         H            3.750157495203    -0.020602850267     0.002000858839     1.007825032230

  Basis Set: AUG-CC-PVTZ
    Blend: AUG-CC-PVTZ
  Basis Set: (AUG-CC-PVTZ AUX)
    Blend: AUG-CC-PVTZ-JKFIT
	 Reference Energy          =    -590.7346473071411310 [Eh]
	 Singles Energy            =      -0.0000000000000000 [Eh]
	 Same-Spin Energy          =      -0.2475355315462045 [Eh]
	 Opposite-Spin Energy      =      -0.8298357583143333 [Eh]
	 Correlation Energy        =      -1.0773712898605379 [Eh]
	 Total Energy              =    -591.8120185970017246 [Eh]

	 ================> DF-SCS-MP2 Energies <==================
	-----------------------------------------------------------
	 SCS Same-Spin Scale       =       0.3333333333333333 [-]
	 SCS Opposite-Spin Scale   =       1.2000000000000000 [-]
	 SCS Same-Spin Energy      =      -0.0825118438487348 [Eh]
	 SCS Opposite-Spin Energy  =      -0.9958029099771999 [Eh]
	 SCS Correlation Energy    =      -1.0783147538259348 [Eh]
	 SCS Total Energy          =    -591.8129620609670383 [Eh]
	-----------------------------------------------------------

  Dipole Moment: [D]
     X:     1.5921      Y:     1.7091      Z:     0.6972     Total:     2.4376

*** Psi4 exiting successfully. Buy a developer a beer!
