                               Psi4 1.3.2 release

  ==> Input File <==

--------------------------------------------------------------------------
#psi4
#
memory 32 gb

molecule  {
0 1
  S       -2.3164830    -0.1817160    -0.0786020
  O        2.8047404    -0.5518036     0.0501542
  C        0.4864880    -0.2823360    -0.0275950
  C       -0.7075030     0.6590380     0.0612160
  C        1.8055740     0.4668710     0.0258770
  H        0.4421100    -0.8587610    -0.9561370
  H        0.4659560    -1.0006030     0.7993460
  H       -0.6918870     1.3735120    -0.7679060
  H       -0.6788470     1.2393610     0.9882120
  H        1.8727330     1.1687090    -0.8189890
  H        1.8690250     1.0558810     0.9533790
  H       -2.1500500    -0.9869150     0.9815770
  H        3.6929260    -0.0445400    -0.0102600
units angstrom
no_reorient  #important for SAPT in psi4, default
symmetry c1  #important for SAPT in psi4, default
}

set PROPERTIES_ORIGIN ["COM"]
properties('MP2/aug-cc-pvtz', properties = ['dipole'])
--------------------------------------------------------------------------

    Molecular point group: c1
  Charge       = 0
  Multiplicity = 1
  Basis Set: AUG-CC-PVTZ
    Blend: AUG-CC-PVTZ
  Basis Set: (AUG-CC-PVTZ AUX)
    Blend: AUG-CC-PVTZ-JKFIT

    Orbital Energies [Eh]
    ---------------------

    Doubly Occupied:

       1A    -91.951173     2A    -20.572572     3A    -11.283826
       4A    -11.264050     5A    -11.228549     6A     -8.952338
       7A     -6.633696     8A     -6.632679     9A     -6.631655
      10A     -1.354990    11A     -1.085842    12A     -0.984737
      13A     -0.867027    14A     -0.811656    15A     -0.686411
      16A     -0.670875    17A     -0.608130    18A     -0.588138
      19A     -0.544483    20A     -0.529951    21A     -0.509268
      22A     -0.491355    23A     -0.452832    24A     -0.445050
      25A     -0.355878

  @DF-RHF Final Energy:  -590.72971170882806

   => Energetics <=

    Nuclear Repulsion Energy =            223.6056904594579180
    One-Electron Energy =               -1256.3964824647680416
    Two-Electron Energy =                 442.0610802964820323
    Total Energy =                       -590.7297117088280629
  Basis Set: (AUG-CC-PVTZ AUX)
    Blend: AUG-CC-PVTZ-RI
    Molecular point group: c1

    Geometry (in Angstrom), charge = 0, multiplicity = 1:

       Center              X                  Y                   Z               Mass
    ------------   -----------------  -----------------  -----------------  -----------------
         S           -2.258601939013    -0.153995177689    -0.080574089803    31.972071174400
         O            2.862621460987    -0.524082777689     0.048182110197    15.994914619570
         C            0.544369060987    -0.254615177689    -0.029567089803    12.000000000000
         C           -0.649621939013     0.686758822311     0.059243910197    12.000000000000
         C            1.863455060987     0.494591822311     0.023904910197    12.000000000000
         H            0.499991060987    -0.831040177689    -0.958109089803     1.007825032230
         H            0.523837060987    -0.972882177689     0.797373910197     1.007825032230
         H           -0.634005939013     1.401232822311    -0.769878089803     1.007825032230
         H           -0.620965939013     1.267081822311     0.986239910197     1.007825032230
         H            1.930614060987     1.196429822311    -0.820961089803     1.007825032230
         H            1.926906060987     1.083601822311     0.951406910197     1.007825032230
         H           -2.092168939013    -0.959194177689     0.979604910197     1.007825032230
         H            3.750807060987    -0.016819177689    -0.012232089803     1.007825032230

  Basis Set: AUG-CC-PVTZ
    Blend: AUG-CC-PVTZ
  Basis Set: (AUG-CC-PVTZ AUX)
    Blend: AUG-CC-PVTZ-JKFIT
	 Reference Energy          =    -590.7297117088280629 [Eh]
	 Singles Energy            =      -0.0000000000000000 [Eh]
	 Same-Spin Energy          =      -0.2481445046508989 [Eh]
	 Opposite-Spin Energy      =      -0.8317639424354752 [Eh]
	 Correlation Energy        =      -1.0799084470863742 [Eh]
	 Total Energy              =    -591.8096201559144447 [Eh]

	 ================> DF-SCS-MP2 Energies <==================
	-----------------------------------------------------------
	 SCS Same-Spin Scale       =       0.3333333333333333 [-]
	 SCS Opposite-Spin Scale   =       1.2000000000000000 [-]
	 SCS Same-Spin Energy      =      -0.0827148348836330 [Eh]
	 SCS Opposite-Spin Energy  =      -0.9981167309225702 [Eh]
	 SCS Correlation Energy    =      -1.0808315658062031 [Eh]
	 SCS Total Energy          =    -591.8105432746342558 [Eh]
	-----------------------------------------------------------

  Dipole Moment: [D]
     X:     1.7711      Y:     1.7729      Z:     0.5072     Total:     2.5567

*** Psi4 exiting successfully. Buy a developer a beer!
