                               Psi4 1.3.2 release

  ==> Input File <==

--------------------------------------------------------------------------
#psi4
#
memory 32 gb

molecule  {
0 1
  S       -2.3164830    -0.1817160    -0.0786020
  O        2.8418010    -0.5125780    -0.0335720
  C        0.4864880    -0.2823360    -0.0275950
  C       -0.6191353     0.7052135     0.0688950
  C        1.8055740     0.4668710     0.0258770
  H        0.4421100    -0.8587610    -0.9561370
  H        0.4659560    -1.0006030     0.7993460
  H       -0.6918870     1.3735120    -0.7679060
  H       -0.6788470     1.2393610     0.9882120
  H        1.8727330     1.1687090    -0.8189890
  H        1.8690250     1.0558810     0.9533790
  H       -2.1500500    -0.9869150     0.9815770
  H        3.6929260    -0.0445400    -0.0102600
units angstrom
no_reorient  #important for SAPT in psi4, default
symmetry c1  #important for SAPT in psi4, default
}

set PROPERTIES_ORIGIN ["COM"]
properties('MP2/aug-cc-pvtz', properties = ['dipole'])
--------------------------------------------------------------------------

    Molecular point group: c1
  Charge       = 0
  Multiplicity = 1
  Basis Set: AUG-CC-PVTZ
    Blend: AUG-CC-PVTZ
  Basis Set: (AUG-CC-PVTZ AUX)
    Blend: AUG-CC-PVTZ-JKFIT

    Orbital Energies [Eh]
    ---------------------

    Doubly Occupied:

       1A    -91.948020     2A    -20.566297     3A    -11.285059
       4A    -11.267598     5A    -11.230536     6A     -8.948302
       7A     -6.629571     8A     -6.628522     9A     -6.627587
      10A     -1.363238    11A     -1.091475    12A     -0.976856
      13A     -0.872699    14A     -0.818404    15A     -0.698650
      16A     -0.678986    17A     -0.612979    18A     -0.591142
      19A     -0.556082    20A     -0.525019    21A     -0.511735
      22A     -0.498140    23A     -0.453712    24A     -0.428030
      25A     -0.355447

  @DF-RHF Final Energy:  -590.73137310601919

   => Energetics <=

    Nuclear Repulsion Energy =            222.9582663921764834
    One-Electron Energy =               -1255.0511014873329714
    Two-Electron Energy =                 441.3614619891372399
    Total Energy =                       -590.7313731060191913
  Basis Set: (AUG-CC-PVTZ AUX)
    Blend: AUG-CC-PVTZ-RI
    Molecular point group: c1

    Geometry (in Angstrom), charge = 0, multiplicity = 1:

       Center              X                  Y                   Z               Mass
    ------------   -----------------  -----------------  -----------------  -----------------
         S           -2.276565657027    -0.166833615561    -0.067023605943    31.972071174400
         O            2.881718342973    -0.497695615561    -0.021993605943    15.994914619570
         C            0.526405342973    -0.267453615561    -0.016016605943    12.000000000000
         C           -0.579217957027     0.720095884439     0.080473394057    12.000000000000
         C            1.845491342973     0.481753384439     0.037455394057    12.000000000000
         H            0.482027342973    -0.843878615561    -0.944558605943     1.007825032230
         H            0.505873342973    -0.985720615561     0.810924394057     1.007825032230
         H           -0.651969657027     1.388394384439    -0.756327605943     1.007825032230
         H           -0.638929657027     1.254243384439     0.999790394057     1.007825032230
         H            1.912650342973     1.183591384439    -0.807410605943     1.007825032230
         H            1.908942342973     1.070763384439     0.964957394057     1.007825032230
         H           -2.110132657027    -0.972032615561     0.993155394057     1.007825032230
         H            3.732843342973    -0.029657615561     0.001318394057     1.007825032230

  Basis Set: AUG-CC-PVTZ
    Blend: AUG-CC-PVTZ
  Basis Set: (AUG-CC-PVTZ AUX)
    Blend: AUG-CC-PVTZ-JKFIT
	 Reference Energy          =    -590.7313731060191913 [Eh]
	 Singles Energy            =      -0.0000000000000000 [Eh]
	 Same-Spin Energy          =      -0.2473329740312243 [Eh]
	 Opposite-Spin Energy      =      -0.8299704082826989 [Eh]
	 Correlation Energy        =      -1.0773033823139231 [Eh]
	 Total Energy              =    -591.8086764883331625 [Eh]

	 ================> DF-SCS-MP2 Energies <==================
	-----------------------------------------------------------
	 SCS Same-Spin Scale       =       0.3333333333333333 [-]
	 SCS Opposite-Spin Scale   =       1.2000000000000000 [-]
	 SCS Same-Spin Energy      =      -0.0824443246770748 [Eh]
	 SCS Opposite-Spin Energy  =      -0.9959644899392386 [Eh]
	 SCS Correlation Energy    =      -1.0784088146163133 [Eh]
	 SCS Total Energy          =    -591.8097819206354870 [Eh]
	-----------------------------------------------------------

  Dipole Moment: [D]
     X:     1.8686      Y:     1.7767      Z:     0.7023     Total:     2.6723

*** Psi4 exiting successfully. Buy a developer a beer!
