                               Psi4 1.3.2 release

  ==> Input File <==

--------------------------------------------------------------------------
#psi4
#
memory 32 gb

molecule  {
0 1
  S       -2.3164830    -0.1817160    -0.0786020
  O        2.8418010    -0.5125780    -0.0335720
  C        0.4864880    -0.2823360    -0.0275950
  C       -0.5307676     0.7513891     0.0765740
  C        1.8055740     0.4668710     0.0258770
  H        0.4421100    -0.8587610    -0.9561370
  H        0.4659560    -1.0006030     0.7993460
  H       -0.6918870     1.3735120    -0.7679060
  H       -0.6788470     1.2393610     0.9882120
  H        1.8727330     1.1687090    -0.8189890
  H        1.8690250     1.0558810     0.9533790
  H       -2.1500500    -0.9869150     0.9815770
  H        3.6929260    -0.0445400    -0.0102600
units angstrom
no_reorient  #important for SAPT in psi4, default
symmetry c1  #important for SAPT in psi4, default
}

set PROPERTIES_ORIGIN ["COM"]
properties('MP2/aug-cc-pvtz', properties = ['dipole'])
--------------------------------------------------------------------------

    Molecular point group: c1
  Charge       = 0
  Multiplicity = 1
  Basis Set: AUG-CC-PVTZ
    Blend: AUG-CC-PVTZ
  Basis Set: (AUG-CC-PVTZ AUX)
    Blend: AUG-CC-PVTZ-JKFIT

    Orbital Energies [Eh]
    ---------------------

    Doubly Occupied:

       1A    -91.942018     2A    -20.567460     3A    -11.286881
       4A    -11.273736     5A    -11.232501     6A     -8.941947
       7A     -6.623135     8A     -6.622080     9A     -6.621177
      10A     -1.364683    11A     -1.099366    12A     -0.967725
      13A     -0.874371    14A     -0.824927    15A     -0.702070
      16A     -0.687195    17A     -0.617965    18A     -0.594819
      19A     -0.567740    20A     -0.520901    21A     -0.514316
      22A     -0.501174    23A     -0.455795    24A     -0.405172
      25A     -0.351818

  @DF-RHF Final Energy:  -590.71463490192195

   => Energetics <=

    Nuclear Repulsion Energy =            222.4831873057427742
    One-Electron Energy =               -1254.0737038488116468
    Two-Electron Energy =                 440.8758816411468615
    Total Energy =                       -590.7146349019219542
  Basis Set: (AUG-CC-PVTZ AUX)
    Blend: AUG-CC-PVTZ-RI
    Molecular point group: c1

    Geometry (in Angstrom), charge = 0, multiplicity = 1:

       Center              X                  Y                   Z               Mass
    ------------   -----------------  -----------------  -----------------  -----------------
         S           -2.288088173268    -0.172854583641    -0.068024892637    31.972071174400
         O            2.870195826732    -0.503716583641    -0.022994892637    15.994914619570
         C            0.514882826732    -0.273474583641    -0.017017892637    12.000000000000
         C           -0.502372773268     0.760250516359     0.087151107363    12.000000000000
         C            1.833968826732     0.475732416359     0.036454107363    12.000000000000
         H            0.470504826732    -0.849899583641    -0.945559892637     1.007825032230
         H            0.494350826732    -0.991741583641     0.809923107363     1.007825032230
         H           -0.663492173268     1.382373416359    -0.757328892637     1.007825032230
         H           -0.650452173268     1.248222416359     0.998789107363     1.007825032230
         H            1.901127826732     1.177570416359    -0.808411892637     1.007825032230
         H            1.897419826732     1.064742416359     0.963956107363     1.007825032230
         H           -2.121655173268    -0.978053583641     0.992154107363     1.007825032230
         H            3.721320826732    -0.035678583641     0.000317107363     1.007825032230

  Basis Set: AUG-CC-PVTZ
    Blend: AUG-CC-PVTZ
  Basis Set: (AUG-CC-PVTZ AUX)
    Blend: AUG-CC-PVTZ-JKFIT
	 Reference Energy          =    -590.7146349019219542 [Eh]
	 Singles Energy            =      -0.0000000000000000 [Eh]
	 Same-Spin Energy          =      -0.2479433599747610 [Eh]
	 Opposite-Spin Energy      =      -0.8313022758945551 [Eh]
	 Correlation Energy        =      -1.0792456358693161 [Eh]
	 Total Energy              =    -591.7938805377913241 [Eh]

	 ================> DF-SCS-MP2 Energies <==================
	-----------------------------------------------------------
	 SCS Same-Spin Scale       =       0.3333333333333333 [-]
	 SCS Opposite-Spin Scale   =       1.2000000000000000 [-]
	 SCS Same-Spin Energy      =      -0.0826477866582537 [Eh]
	 SCS Opposite-Spin Energy  =      -0.9975627310734660 [Eh]
	 SCS Correlation Energy    =      -1.0802105177317198 [Eh]
	 SCS Total Energy          =    -591.7948454196537114 [Eh]
	-----------------------------------------------------------

  Dipole Moment: [D]
     X:     2.0923      Y:     1.8209      Z:     0.6978     Total:     2.8601

*** Psi4 exiting successfully. Buy a developer a beer!
