                               Psi4 1.3.2 release

  ==> Input File <==

--------------------------------------------------------------------------
#psi4
#
memory 32 gb

molecule  {
0 1
  S       -2.3164830    -0.1817160    -0.0786020
  O        2.8418010    -0.5125780    -0.0335720
  C        0.4864880    -0.2823360    -0.0275950
  C       -0.7075030     0.6590380     0.0612160
  C        1.8781846     0.3982390     0.0217113
  H        0.4421100    -0.8587610    -0.9561370
  H        0.4659560    -1.0006030     0.7993460
  H       -0.6918870     1.3735120    -0.7679060
  H       -0.6788470     1.2393610     0.9882120
  H        1.8727330     1.1687090    -0.8189890
  H        1.8690250     1.0558810     0.9533790
  H       -2.1500500    -0.9869150     0.9815770
  H        3.6929260    -0.0445400    -0.0102600
units angstrom
no_reorient  #important for SAPT in psi4, default
symmetry c1  #important for SAPT in psi4, default
}

set PROPERTIES_ORIGIN ["COM"]
properties('MP2/aug-cc-pvtz', properties = ['dipole'])
--------------------------------------------------------------------------

    Molecular point group: c1
  Charge       = 0
  Multiplicity = 1
  Basis Set: AUG-CC-PVTZ
    Blend: AUG-CC-PVTZ
  Basis Set: (AUG-CC-PVTZ AUX)
    Blend: AUG-CC-PVTZ-JKFIT

    Orbital Energies [Eh]
    ---------------------

    Doubly Occupied:

       1A    -91.951344     2A    -20.576777     3A    -11.288098
       4A    -11.263901     5A    -11.228251     6A     -8.952456
       7A     -6.633810     8A     -6.632788     9A     -6.631763
      10A     -1.408449    11A     -1.081300    12A     -0.981069
      13A     -0.868891    14A     -0.806579    15A     -0.725247
      16A     -0.669604    17A     -0.615305    18A     -0.610984
      19A     -0.549635    20A     -0.531194    21A     -0.507045
      22A     -0.481304    23A     -0.441340    24A     -0.434934
      25A     -0.355836

  @DF-RHF Final Energy:  -590.72800885451522

   => Energetics <=

    Nuclear Repulsion Energy =            223.9815275226434892
    One-Electron Energy =               -1256.9632668226031456
    Two-Electron Energy =                 442.2537304454443756
    Total Energy =                       -590.7280088545152239
  Basis Set: (AUG-CC-PVTZ AUX)
    Blend: AUG-CC-PVTZ-RI
    Molecular point group: c1

    Geometry (in Angstrom), charge = 0, multiplicity = 1:

       Center              X                  Y                   Z               Mass
    ------------   -----------------  -----------------  -----------------  -----------------
         S           -2.274511043852    -0.151863538447    -0.065479141754    31.972071174400
         O            2.883772956148    -0.482725538447    -0.020449141754    15.994914619570
         C            0.528459956148    -0.252483538447    -0.014472141754    12.000000000000
         C           -0.665531043852     0.688890461553     0.074338858246    12.000000000000
         C            1.920156556148     0.428091461553     0.034834158246    12.000000000000
         H            0.484081956148    -0.828908538447    -0.943014141754     1.007825032230
         H            0.507927956148    -0.970750538447     0.812468858246     1.007825032230
         H           -0.649915043852     1.403364461553    -0.754783141754     1.007825032230
         H           -0.636875043852     1.269213461553     1.001334858246     1.007825032230
         H            1.914704956148     1.198561461553    -0.805866141754     1.007825032230
         H            1.910996956148     1.085733461553     0.966501858246     1.007825032230
         H           -2.108078043852    -0.957062538447     0.994699858246     1.007825032230
         H            3.734897956148    -0.014687538447     0.002862858246     1.007825032230

  Basis Set: AUG-CC-PVTZ
    Blend: AUG-CC-PVTZ
  Basis Set: (AUG-CC-PVTZ AUX)
    Blend: AUG-CC-PVTZ-JKFIT
	 Reference Energy          =    -590.7280088545152239 [Eh]
	 Singles Energy            =      -0.0000000000000000 [Eh]
	 Same-Spin Energy          =      -0.2473001202487698 [Eh]
	 Opposite-Spin Energy      =      -0.8284805602839571 [Eh]
	 Correlation Energy        =      -1.0757806805327270 [Eh]
	 Total Energy              =    -591.8037895350479403 [Eh]

	 ================> DF-SCS-MP2 Energies <==================
	-----------------------------------------------------------
	 SCS Same-Spin Scale       =       0.3333333333333333 [-]
	 SCS Opposite-Spin Scale   =       1.2000000000000000 [-]
	 SCS Same-Spin Energy      =      -0.0824333734162566 [Eh]
	 SCS Opposite-Spin Energy  =      -0.9941766723407485 [Eh]
	 SCS Correlation Energy    =      -1.0766100457570051 [Eh]
	 SCS Total Energy          =    -591.8046189002722031 [Eh]
	-----------------------------------------------------------

  Dipole Moment: [D]
     X:     2.0063      Y:     1.4632      Z:     0.6842     Total:     2.5757

*** Psi4 exiting successfully. Buy a developer a beer!
