                               Psi4 1.3.2 release

  ==> Input File <==

--------------------------------------------------------------------------
#psi4
#
memory 32 gb

molecule  {
0 1
  S       -2.3452135    -0.1253760    -0.0723205
  O        2.8418010    -0.5125780    -0.0335720
  C        0.4864880    -0.2823360    -0.0275950
  C       -0.7075030     0.6590380     0.0612160
  C        1.8055740     0.4668710     0.0258770
  H        0.4421100    -0.8587610    -0.9561370
  H        0.4659560    -1.0006030     0.7993460
  H       -0.6918870     1.3735120    -0.7679060
  H       -0.6788470     1.2393610     0.9882120
  H        1.8727330     1.1687090    -0.8189890
  H        1.8690250     1.0558810     0.9533790
  H       -2.1500500    -0.9869150     0.9815770
  H        3.6929260    -0.0445400    -0.0102600
units angstrom
no_reorient  #important for SAPT in psi4, default
symmetry c1  #important for SAPT in psi4, default
}

set PROPERTIES_ORIGIN ["COM"]
properties('MP2/aug-cc-pvtz', properties = ['dipole'])
--------------------------------------------------------------------------

    Molecular point group: c1
  Charge       = 0
  Multiplicity = 1
  Basis Set: AUG-CC-PVTZ
    Blend: AUG-CC-PVTZ
  Basis Set: (AUG-CC-PVTZ AUX)
    Blend: AUG-CC-PVTZ-JKFIT

    Orbital Energies [Eh]
    ---------------------

    Doubly Occupied:

       1A    -91.954909     2A    -20.566217     3A    -11.285002
       4A    -11.264719     5A    -11.230749     6A     -8.955210
       7A     -6.636486     8A     -6.635507     9A     -6.634506
      10A     -1.362906    11A     -1.086638    12A     -0.986731
      13A     -0.867805    14A     -0.810660    15A     -0.696560
      16A     -0.672140    17A     -0.607600    18A     -0.590014
      19A     -0.547539    20A     -0.526868    21A     -0.508809
      22A     -0.489792    23A     -0.452933    24A     -0.448137
      25A     -0.356872

  @DF-RHF Final Energy:  -590.73586836753543

   => Energetics <=

    Nuclear Repulsion Energy =            222.9740269323296502
    One-Electron Energy =               -1255.0691711292220134
    Two-Electron Energy =                 441.3592758293568750
    Total Energy =                       -590.7358683675354314
  Basis Set: (AUG-CC-PVTZ AUX)
    Blend: AUG-CC-PVTZ-RI
    Molecular point group: c1

    Geometry (in Angstrom), charge = 0, multiplicity = 1:

       Center              X                  Y                   Z               Mass
    ------------   -----------------  -----------------  -----------------  -----------------
         S           -2.283792355089    -0.124045784418    -0.061923080125    31.972071174400
         O            2.903222144911    -0.511247784418    -0.023174580125    15.994914619570
         C            0.547909144911    -0.281005784418    -0.017197580125    12.000000000000
         C           -0.646081855089     0.660368215582     0.071613419875    12.000000000000
         C            1.866995144911     0.468201215582     0.036274419875    12.000000000000
         H            0.503531144911    -0.857430784418    -0.945739580125     1.007825032230
         H            0.527377144911    -0.999272784418     0.809743419875     1.007825032230
         H           -0.630465855089     1.374842215582    -0.757508580125     1.007825032230
         H           -0.617425855089     1.240691215582     0.998609419875     1.007825032230
         H            1.934154144911     1.170039215582    -0.808591580125     1.007825032230
         H            1.930446144911     1.057211215582     0.963776419875     1.007825032230
         H           -2.088628855089    -0.985584784418     0.991974419875     1.007825032230
         H            3.754347144911    -0.043209784418     0.000137419875     1.007825032230

  Basis Set: AUG-CC-PVTZ
    Blend: AUG-CC-PVTZ
  Basis Set: (AUG-CC-PVTZ AUX)
    Blend: AUG-CC-PVTZ-JKFIT
	 Reference Energy          =    -590.7358683675354314 [Eh]
	 Singles Energy            =      -0.0000000000000000 [Eh]
	 Same-Spin Energy          =      -0.2473176385994618 [Eh]
	 Opposite-Spin Energy      =      -0.8298525517940407 [Eh]
	 Correlation Energy        =      -1.0771701903935025 [Eh]
	 Total Energy              =    -591.8130385579289623 [Eh]

	 ================> DF-SCS-MP2 Energies <==================
	-----------------------------------------------------------
	 SCS Same-Spin Scale       =       0.3333333333333333 [-]
	 SCS Opposite-Spin Scale   =       1.2000000000000000 [-]
	 SCS Same-Spin Energy      =      -0.0824392128664873 [Eh]
	 SCS Opposite-Spin Energy  =      -0.9958230621528488 [Eh]
	 SCS Correlation Energy    =      -1.0782622750193360 [Eh]
	 SCS Total Energy          =    -591.8141306425548009 [Eh]
	-----------------------------------------------------------

  Dipole Moment: [D]
     X:     1.6966      Y:     1.6893      Z:     0.6717     Total:     2.4866

*** Psi4 exiting successfully. Buy a developer a beer!
