                               Psi4 1.3.2 release

  ==> Input File <==

--------------------------------------------------------------------------
#psi4
#
memory 32 gb

molecule  {
0 1
  S       -2.3164830    -0.1817160    -0.0786020
  O        2.8754144    -0.4759011    -0.0310716
  C        0.4864880    -0.2823360    -0.0275950
  C       -0.7075030     0.6590380     0.0612160
  C        1.8055740     0.4668710     0.0258770
  H        0.4421100    -0.8587610    -0.9561370
  H        0.4659560    -1.0006030     0.7993460
  H       -0.6918870     1.3735120    -0.7679060
  H       -0.6788470     1.2393610     0.9882120
  H        1.8727330     1.1687090    -0.8189890
  H        1.8690250     1.0558810     0.9533790
  H       -2.1500500    -0.9869150     0.9815770
  H        3.6929260    -0.0445400    -0.0102600
units angstrom
no_reorient  #important for SAPT in psi4, default
symmetry c1  #important for SAPT in psi4, default
}

set PROPERTIES_ORIGIN ["COM"]
properties('MP2/aug-cc-pvtz', properties = ['dipole'])
--------------------------------------------------------------------------

    Molecular point group: c1
  Charge       = 0
  Multiplicity = 1
  Basis Set: AUG-CC-PVTZ
    Blend: AUG-CC-PVTZ
  Basis Set: (AUG-CC-PVTZ AUX)
    Blend: AUG-CC-PVTZ-JKFIT

    Orbital Energies [Eh]
    ---------------------

    Doubly Occupied:

       1A    -91.952719     2A    -20.559258     3A    -11.285145
       4A    -11.266072     5A    -11.231366     6A     -8.953857
       7A     -6.635212     8A     -6.634193     9A     -6.633166
      10A     -1.370726    11A     -1.089041    12A     -0.989932
      13A     -0.873035    14A     -0.812274    15A     -0.706280
      16A     -0.672334    17A     -0.609206    18A     -0.592041
      19A     -0.549939    20A     -0.530517    21A     -0.508161
      22A     -0.491641    23A     -0.451829    24A     -0.448077
      25A     -0.357568

  @DF-RHF Final Energy:  -590.73814363721351

   => Energetics <=

    Nuclear Repulsion Energy =            223.4474655436925445
    One-Electron Energy =               -1255.9640451534723979
    Two-Electron Energy =                 441.7784359725663421
    Total Energy =                       -590.7381436372136250
  Basis Set: (AUG-CC-PVTZ AUX)
    Blend: AUG-CC-PVTZ-RI
    Molecular point group: c1

    Geometry (in Angstrom), charge = 0, multiplicity = 1:

       Center              X                  Y                   Z               Mass
    ------------   -----------------  -----------------  -----------------  -----------------
         S           -2.270885212733    -0.167187174513    -0.066456893457    31.972071174400
         O            2.921012187267    -0.461372274513    -0.018926493457    15.994914619570
         C            0.532085787267    -0.267807174513    -0.015449893457    12.000000000000
         C           -0.661905212733     0.673566825487     0.073361106543    12.000000000000
         C            1.851171787267     0.481399825487     0.038022106543    12.000000000000
         H            0.487707787267    -0.844232174513    -0.943991893457     1.007825032230
         H            0.511553787267    -0.986074174513     0.811491106543     1.007825032230
         H           -0.646289212733     1.388040825487    -0.755760893457     1.007825032230
         H           -0.633249212733     1.253889825487     1.000357106543     1.007825032230
         H            1.918330787267     1.183237825487    -0.806843893457     1.007825032230
         H            1.914622787267     1.070409825487     0.965524106543     1.007825032230
         H           -2.104452212733    -0.972386174513     0.993722106543     1.007825032230
         H            3.738523787267    -0.030011174513     0.001885106543     1.007825032230

  Basis Set: AUG-CC-PVTZ
    Blend: AUG-CC-PVTZ
  Basis Set: (AUG-CC-PVTZ AUX)
    Blend: AUG-CC-PVTZ-JKFIT
	 Reference Energy          =    -590.7381436372135113 [Eh]
	 Singles Energy            =      -0.0000000000000000 [Eh]
	 Same-Spin Energy          =      -0.2465985554785033 [Eh]
	 Opposite-Spin Energy      =      -0.8278815397411459 [Eh]
	 Correlation Energy        =      -1.0744800952196492 [Eh]
	 Total Energy              =    -591.8126237324331669 [Eh]

	 ================> DF-SCS-MP2 Energies <==================
	-----------------------------------------------------------
	 SCS Same-Spin Scale       =       0.3333333333333333 [-]
	 SCS Opposite-Spin Scale   =       1.2000000000000000 [-]
	 SCS Same-Spin Energy      =      -0.0821995184928344 [Eh]
	 SCS Opposite-Spin Energy  =      -0.9934578476893750 [Eh]
	 SCS Correlation Energy    =      -1.0756573661822093 [Eh]
	 SCS Total Energy          =    -591.8138010033957244 [Eh]
	-----------------------------------------------------------

  Dipole Moment: [D]
     X:     1.5765      Y:     1.6904      Z:     0.6988     Total:     2.4148

*** Psi4 exiting successfully. Buy a developer a beer!
