                               Psi4 1.3.2 release

  ==> Input File <==

--------------------------------------------------------------------------
#psi4
#
memory 32 gb

molecule  {
0 1
  S       -2.3164830    -0.1817160    -0.0786020
  O        2.8418010    -0.5125780    -0.0335720
  C        0.4864880    -0.2823360    -0.0275950
  C       -0.7075030     0.6590380     0.0612160
  C        1.8055740     0.4668710     0.0258770
  H        0.4421100    -0.8587610    -0.9561370
  H        0.4659560    -1.0006030     0.7993460
  H       -0.6918870     1.3735120    -0.7679060
  H       -0.6788470     1.2393610     0.9882120
  H        1.8727330     1.1687090    -0.8189890
  H        1.8690250     1.0558810     0.9533790
  H       -2.1624551    -0.9268994     0.9025565
  H        3.6929260    -0.0445400    -0.0102600
units angstrom
no_reorient  #important for SAPT in psi4, default
symmetry c1  #important for SAPT in psi4, default
}

set PROPERTIES_ORIGIN ["COM"]
properties('MP2/aug-cc-pvtz', properties = ['dipole'])
--------------------------------------------------------------------------

    Molecular point group: c1
  Charge       = 0
  Multiplicity = 1
  Basis Set: AUG-CC-PVTZ
    Blend: AUG-CC-PVTZ
  Basis Set: (AUG-CC-PVTZ AUX)
    Blend: AUG-CC-PVTZ-JKFIT

    Orbital Energies [Eh]
    ---------------------

    Doubly Occupied:

       1A    -91.943543     2A    -20.565885     3A    -11.284466
       4A    -11.264813     5A    -11.230059     6A     -8.947722
       7A     -6.629424     8A     -6.627979     9A     -6.626882
      10A     -1.362572    11A     -1.089389    12A     -0.993822
      13A     -0.877597    14A     -0.813823    15A     -0.696768
      16A     -0.672357    17A     -0.611309    18A     -0.591040
      19A     -0.551860    20A     -0.534074    21A     -0.508306
      22A     -0.493928    23A     -0.452668    24A     -0.447695
      25A     -0.357123

  @DF-RHF Final Energy:  -590.73238857946308

   => Energetics <=

    Nuclear Repulsion Energy =            224.0839325136879552
    One-Electron Energy =               -1257.2824331957481263
    Two-Electron Energy =                 442.4661121025968669
    Total Energy =                       -590.7323885794631906
  Basis Set: (AUG-CC-PVTZ AUX)
    Blend: AUG-CC-PVTZ-RI
    Molecular point group: c1

    Geometry (in Angstrom), charge = 0, multiplicity = 1:

       Center              X                  Y                   Z               Mass
    ------------   -----------------  -----------------  -----------------  -----------------
         S           -2.264907291317    -0.161469897249    -0.065156957995    31.972071174400
         O            2.893376708683    -0.492331897249    -0.020126957995    15.994914619570
         C            0.538063708683    -0.262089897249    -0.014149957995    12.000000000000
         C           -0.655927291317     0.679284102751     0.074661042005    12.000000000000
         C            1.857149708683     0.487117102751     0.039322042005    12.000000000000
         H            0.493685708683    -0.838514897249    -0.942691957995     1.007825032230
         H            0.517531708683    -0.980356897249     0.812791042005     1.007825032230
         H           -0.640311291317     1.393758102751    -0.754460957995     1.007825032230
         H           -0.627271291317     1.259607102751     1.001657042005     1.007825032230
         H            1.924308708683     1.188955102751    -0.805543957995     1.007825032230
         H            1.920600708683     1.076127102751     0.966824042005     1.007825032230
         H           -2.110879391317    -0.906653297249     0.916001542005     1.007825032230
         H            3.744501708683    -0.024293897249     0.003185042005     1.007825032230

  Basis Set: AUG-CC-PVTZ
    Blend: AUG-CC-PVTZ
  Basis Set: (AUG-CC-PVTZ AUX)
    Blend: AUG-CC-PVTZ-JKFIT
	 Reference Energy          =    -590.7323885794630769 [Eh]
	 Singles Energy            =      -0.0000000000000000 [Eh]
	 Same-Spin Energy          =      -0.2473515407106259 [Eh]
	 Opposite-Spin Energy      =      -0.8292649658236690 [Eh]
	 Correlation Energy        =      -1.0766165065342950 [Eh]
	 Total Energy              =    -591.8090050859973417 [Eh]

	 ================> DF-SCS-MP2 Energies <==================
	-----------------------------------------------------------
	 SCS Same-Spin Scale       =       0.3333333333333333 [-]
	 SCS Opposite-Spin Scale   =       1.2000000000000000 [-]
	 SCS Same-Spin Energy      =      -0.0824505135702086 [Eh]
	 SCS Opposite-Spin Energy  =      -0.9951179589884028 [Eh]
	 SCS Correlation Energy    =      -1.0775684725586114 [Eh]
	 SCS Total Energy          =    -591.8099570520216730 [Eh]
	-----------------------------------------------------------

  Dipole Moment: [D]
     X:     1.6758      Y:     1.7239      Z:     0.7092     Total:     2.5066

*** Psi4 exiting successfully. Buy a developer a beer!
