                               Psi4 1.4a3.dev225

  ==> Input File <==

--------------------------------------------------------------------------
#psi4
#
memory 32 gb

molecule  {
0 1
  S       -2.3164950    -0.1817520    -0.0785600
  O        2.8418240    -0.5125870    -0.0336710
  C        0.4864850    -0.2823110    -0.0275730
  C       -0.7075220     0.6590550     0.0609310
  C        1.8201120     0.4531309     0.0253718
  H        0.4423910    -0.8587120    -0.9561410
  H        0.4657080    -1.0005910     0.7993450
  H       -0.6919970     1.3731860    -0.7684900
  H       -0.6788530     1.2397730     0.9876800
  H        1.8727880     1.1690760    -0.8183300
  H        1.8691150     1.0554390     0.9539770
  H       -2.1500900    -0.9865220     0.9819500
  H        3.6929560    -0.0445220    -0.0110750
units angstrom
no_reorient  #important for SAPT in psi4, default
symmetry c1  #important for SAPT in psi4, default
}

set PROPERTIES_ORIGIN ["COM"]
properties('MP2/aug-cc-pvtz', properties = ['dipole'])
--------------------------------------------------------------------------

    Molecular point group: c1
  Charge       = 0
  Multiplicity = 1
  Basis Set: AUG-CC-PVTZ
    Blend: AUG-CC-PVTZ
  Basis Set: (AUG-CC-PVTZ AUX)
    Blend: AUG-CC-PVTZ-JKFIT

    Orbital Energies [Eh]
    ---------------------

    Doubly Occupied:

       1A    -91.951836     2A    -20.567971     3A    -11.284812
       4A    -11.264826     5A    -11.229557     6A     -8.952978
       7A     -6.634334     8A     -6.633315     9A     -6.632290
      10A     -1.370780    11A     -1.086154    12A     -0.986086
      13A     -0.869422    14A     -0.810678    15A     -0.701876
      16A     -0.671138    17A     -0.609142    18A     -0.593802
      19A     -0.547655    20A     -0.531258    21A     -0.507903
      22A     -0.490036    23A     -0.450031    24A     -0.445798
      25A     -0.356581

  @DF-RHF Final Energy:  -590.73705661654344

   => Energetics <=

    Nuclear Repulsion Energy =            223.5939108614620068
    One-Electron Energy =               -1256.3014173186470543
    Two-Electron Energy =                 441.9704498406416064
    Total Energy =                       -590.7370566165434411
  Basis Set: (AUG-CC-PVTZ AUX)
    Blend: AUG-CC-PVTZ-RI
    Molecular point group: c1

    Geometry (in Angstrom), charge = 0, multiplicity = 1:

       Center              X                  Y                   Z               Mass
    ------------   -----------------  -----------------  -----------------  -----------------
         S           -2.266948321365    -0.159053744599    -0.065874185293    31.972071174400
         O            2.891370678635    -0.489888744599    -0.020985185293    15.994914619570
         C            0.536031678635    -0.259612744599    -0.014887185293    12.000000000000
         C           -0.657975321365     0.681753255401     0.073616814707    12.000000000000
         C            1.869658678635     0.475829155401     0.038057614707    12.000000000000
         H            0.491937678635    -0.836013744599    -0.943455185293     1.007825032230
         H            0.515254678635    -0.977892744599     0.812030814707     1.007825032230
         H           -0.642450321365     1.395884255401    -0.755804185293     1.007825032230
         H           -0.629306321365     1.262471255401     1.000365814707     1.007825032230
         H            1.922334678635     1.191774255401    -0.805644185293     1.007825032230
         H            1.918661678635     1.078137255401     0.966662814707     1.007825032230
         H           -2.100543321365    -0.963823744599     0.994635814707     1.007825032230
         H            3.742502678635    -0.021823744599     0.001610814707     1.007825032230

  Basis Set: AUG-CC-PVTZ
    Blend: AUG-CC-PVTZ
  Basis Set: (AUG-CC-PVTZ AUX)
    Blend: AUG-CC-PVTZ-JKFIT
	 Reference Energy          =    -590.7370566165434411 [Eh]
	 Singles Energy            =      -0.0000000000000000 [Eh]
	 Same-Spin Energy          =      -0.2472467937112336 [Eh]
	 Opposite-Spin Energy      =      -0.8292879065470313 [Eh]
	 Correlation Energy        =      -1.0765347002582650 [Eh]
	 Total Energy              =    -591.8135913168017623 [Eh]

	 ================> DF-SCS-MP2 Energies <==================
	-----------------------------------------------------------
	 SCS Same-Spin Scale       =       0.3333333333333333 [-]
	 SCS Opposite-Spin Scale   =       1.2000000000000000 [-]
	 SCS Same-Spin Energy      =      -0.0824155979037445 [Eh]
	 SCS Opposite-Spin Energy  =      -0.9951454878564375 [Eh]
	 SCS Correlation Energy    =      -1.0775610857601821 [Eh]
	 SCS Total Energy          =    -591.8146177023036216 [Eh]
	-----------------------------------------------------------

  Dipole Moment: [D]
     X:     1.7375      Y:     1.6834      Z:     0.6975     Total:     2.5177

*** Psi4 exiting successfully. Buy a developer a beer!
