                               Psi4 1.3.2 release

  ==> Input File <==

--------------------------------------------------------------------------
#psi4
#
memory 32 gb

molecule  {
0 1
  S       -2.3164830    -0.1817160    -0.0786020
  O        2.8418010    -0.5125780    -0.0335720
  C        0.4864880    -0.2823360    -0.0275950
  C       -0.7075030     0.6590380     0.0612160
  C        1.7086834     0.3533412     0.0198076
  H        0.4421100    -0.8587610    -0.9561370
  H        0.4659560    -1.0006030     0.7993460
  H       -0.6918870     1.3735120    -0.7679060
  H       -0.6788470     1.2393610     0.9882120
  H        1.8727330     1.1687090    -0.8189890
  H        1.8690250     1.0558810     0.9533790
  H       -2.1500500    -0.9869150     0.9815770
  H        3.6929260    -0.0445400    -0.0102600
units angstrom
no_reorient  #important for SAPT in psi4, default
symmetry c1  #important for SAPT in psi4, default
}

set PROPERTIES_ORIGIN ["COM"]
properties('MP2/aug-cc-pvtz', properties = ['dipole'])
--------------------------------------------------------------------------

    Molecular point group: c1
  Charge       = 0
  Multiplicity = 1
  Basis Set: AUG-CC-PVTZ
    Blend: AUG-CC-PVTZ
  Basis Set: (AUG-CC-PVTZ AUX)
    Blend: AUG-CC-PVTZ-JKFIT

    Orbital Energies [Eh]
    ---------------------

    Doubly Occupied:

       1A    -91.954987     2A    -20.562359     3A    -11.293598
       4A    -11.270021     5A    -11.226485     6A     -8.956094
       7A     -6.637448     8A     -6.636427     9A     -6.635395
      10A     -1.359976    11A     -1.107959    12A     -1.005387
      13A     -0.867470    14A     -0.806806    15A     -0.699477
      16A     -0.674889    17A     -0.616054    18A     -0.598061
      19A     -0.556829    20A     -0.528095    21A     -0.506059
      22A     -0.492683    23A     -0.457970    24A     -0.421863
      25A     -0.360370

  @DF-RHF Final Energy:  -590.71042191682648

   => Energetics <=

    Nuclear Repulsion Energy =            225.2006900320134832
    One-Electron Energy =               -1259.3567000897728576
    Two-Electron Energy =                 443.4455881409328981
    Total Energy =                       -590.7104219168265899
  Basis Set: (AUG-CC-PVTZ AUX)
    Blend: AUG-CC-PVTZ-RI
    Molecular point group: c1

    Geometry (in Angstrom), charge = 0, multiplicity = 1:

       Center              X                  Y                   Z               Mass
    ------------   -----------------  -----------------  -----------------  -----------------
         S           -2.252409299323    -0.146009186351    -0.065230912885    31.972071174400
         O            2.905874700677    -0.476871186351    -0.020200912885    15.994914619570
         C            0.550561700677    -0.246629186351    -0.014223912885    12.000000000000
         C           -0.643429299323     0.694744813649     0.074587087115    12.000000000000
         C            1.772757100677     0.389048013649     0.033178687115    12.000000000000
         H            0.506183700677    -0.823054186351    -0.942765912885     1.007825032230
         H            0.530029700677    -0.964896186351     0.812717087115     1.007825032230
         H           -0.627813299323     1.409218813649    -0.754534912885     1.007825032230
         H           -0.614773299323     1.275067813649     1.001583087115     1.007825032230
         H            1.936806700677     1.204415813649    -0.805617912885     1.007825032230
         H            1.933098700677     1.091587813649     0.966750087115     1.007825032230
         H           -2.085976299323    -0.951208186351     0.994948087115     1.007825032230
         H            3.756999700677    -0.008833186351     0.003111087115     1.007825032230

  Basis Set: AUG-CC-PVTZ
    Blend: AUG-CC-PVTZ
  Basis Set: (AUG-CC-PVTZ AUX)
    Blend: AUG-CC-PVTZ-JKFIT
	 Reference Energy          =    -590.7104219168264763 [Eh]
	 Singles Energy            =      -0.0000000000000000 [Eh]
	 Same-Spin Energy          =      -0.2487009900299214 [Eh]
	 Opposite-Spin Energy      =      -0.8312069783224471 [Eh]
	 Correlation Energy        =      -1.0799079683523685 [Eh]
	 Total Energy              =    -591.7903298851788350 [Eh]

	 ================> DF-SCS-MP2 Energies <==================
	-----------------------------------------------------------
	 SCS Same-Spin Scale       =       0.3333333333333333 [-]
	 SCS Opposite-Spin Scale   =       1.2000000000000000 [-]
	 SCS Same-Spin Energy      =      -0.0829003300099738 [Eh]
	 SCS Opposite-Spin Energy  =      -0.9974483739869364 [Eh]
	 SCS Correlation Energy    =      -1.0803487039969102 [Eh]
	 SCS Total Energy          =    -591.7907706208234231 [Eh]
	-----------------------------------------------------------

  Dipole Moment: [D]
     X:     1.4055      Y:     1.5622      Z:     0.6952     Total:     2.2134

*** Psi4 exiting successfully. Buy a developer a beer!
