                               Psi4 1.3.2 release

  ==> Input File <==

--------------------------------------------------------------------------
#psi4
#
memory 32 gb

molecule  {
0 1
  S       -2.2531785    -0.2912557    -0.0906465
  O        2.8418010    -0.5125780    -0.0335720
  C        0.4864880    -0.2823360    -0.0275950
  C       -0.7075030     0.6590380     0.0612160
  C        1.8055740     0.4668710     0.0258770
  H        0.4421100    -0.8587610    -0.9561370
  H        0.4659560    -1.0006030     0.7993460
  H       -0.6918870     1.3735120    -0.7679060
  H       -0.6788470     1.2393610     0.9882120
  H        1.8727330     1.1687090    -0.8189890
  H        1.8690250     1.0558810     0.9533790
  H       -2.1500500    -0.9869150     0.9815770
  H        3.6929260    -0.0445400    -0.0102600
units angstrom
no_reorient  #important for SAPT in psi4, default
symmetry c1  #important for SAPT in psi4, default
}

set PROPERTIES_ORIGIN ["COM"]
properties('MP2/aug-cc-pvtz', properties = ['dipole'])
--------------------------------------------------------------------------

    Molecular point group: c1
  Charge       = 0
  Multiplicity = 1
  Basis Set: AUG-CC-PVTZ
    Blend: AUG-CC-PVTZ
  Basis Set: (AUG-CC-PVTZ AUX)
    Blend: AUG-CC-PVTZ-JKFIT

    Orbital Energies [Eh]
    ---------------------

    Doubly Occupied:

       1A    -91.946363     2A    -20.565077     3A    -11.283062
       4A    -11.265810     5A    -11.228419     6A     -8.949292
       7A     -6.630840     8A     -6.629646     9A     -6.628583
      10A     -1.361742    11A     -1.089449    12A     -0.988656
      13A     -0.874136    14A     -0.813468    15A     -0.695770
      16A     -0.672087    17A     -0.611269    18A     -0.591182
      19A     -0.545447    20A     -0.538079    21A     -0.506931
      22A     -0.494193    23A     -0.452013    24A     -0.444203
      25A     -0.356055

  @DF-RHF Final Energy:  -590.73491219907578

   => Energetics <=

    Nuclear Repulsion Energy =            224.6511503661513700
    One-Electron Energy =               -1258.4485839196172492
    Two-Electron Energy =                 443.0625213543900713
    Total Energy =                       -590.7349121990757794
  Basis Set: (AUG-CC-PVTZ AUX)
    Blend: AUG-CC-PVTZ-RI
    Molecular point group: c1

    Geometry (in Angstrom), charge = 0, multiplicity = 1:

       Center              X                  Y                   Z               Mass
    ------------   -----------------  -----------------  -----------------  -----------------
         S           -2.223731307127    -0.232297086830    -0.073882429991    31.972071174400
         O            2.871248192873    -0.453619386830    -0.016807929991    15.994914619570
         C            0.515935192873    -0.223377386830    -0.010830929991    12.000000000000
         C           -0.678055807127     0.717996613170     0.077980070009    12.000000000000
         C            1.835021192873     0.525829613170     0.042641070009    12.000000000000
         H            0.471557192873    -0.799802386830    -0.939372929991     1.007825032230
         H            0.495403192873    -0.941644386830     0.816110070009     1.007825032230
         H           -0.662439807127     1.432470613170    -0.751141929991     1.007825032230
         H           -0.649399807127     1.298319613170     1.004976070009     1.007825032230
         H            1.902180192873     1.227667613170    -0.802224929991     1.007825032230
         H            1.898472192873     1.114839613170     0.970143070009     1.007825032230
         H           -2.120602807127    -0.927956386830     0.998341070009     1.007825032230
         H            3.722373192873     0.014418613170     0.006504070009     1.007825032230

  Basis Set: AUG-CC-PVTZ
    Blend: AUG-CC-PVTZ
  Basis Set: (AUG-CC-PVTZ AUX)
    Blend: AUG-CC-PVTZ-JKFIT
	 Reference Energy          =    -590.7349121990757794 [Eh]
	 Singles Energy            =      -0.0000000000000000 [Eh]
	 Same-Spin Energy          =      -0.2473739067474669 [Eh]
	 Opposite-Spin Energy      =      -0.8294412465748324 [Eh]
	 Correlation Energy        =      -1.0768151533222994 [Eh]
	 Total Energy              =    -591.8117273523980657 [Eh]

	 ================> DF-SCS-MP2 Energies <==================
	-----------------------------------------------------------
	 SCS Same-Spin Scale       =       0.3333333333333333 [-]
	 SCS Opposite-Spin Scale   =       1.2000000000000000 [-]
	 SCS Same-Spin Energy      =      -0.0824579689158223 [Eh]
	 SCS Opposite-Spin Energy  =      -0.9953294958897989 [Eh]
	 SCS Correlation Energy    =      -1.0777874648056212 [Eh]
	 SCS Total Energy          =    -591.8126996638814035 [Eh]
	-----------------------------------------------------------

  Dipole Moment: [D]
     X:     1.6268      Y:     1.8218      Z:     0.7599     Total:     2.5579

*** Psi4 exiting successfully. Buy a developer a beer!
