                               Psi4 1.3.2 release

  ==> Input File <==

--------------------------------------------------------------------------
#psi4
#
memory 32 gb

molecule  {
0 1
  S       -2.3164830    -0.1817160    -0.0786020
  O        2.8245182    -0.5304717    -0.0347952
  C        0.4864880    -0.2823360    -0.0275950
  C       -0.7075030     0.6590380     0.0612160
  C        1.8055740     0.4668710     0.0258770
  H        0.4421100    -0.8587610    -0.9561370
  H        0.4659560    -1.0006030     0.7993460
  H       -0.6918870     1.3735120    -0.7679060
  H       -0.6788470     1.2393610     0.9882120
  H        1.8727330     1.1687090    -0.8189890
  H        1.8690250     1.0558810     0.9533790
  H       -2.1500500    -0.9869150     0.9815770
  H        3.6929260    -0.0445400    -0.0102600
units angstrom
no_reorient  #important for SAPT in psi4, default
symmetry c1  #important for SAPT in psi4, default
}

set PROPERTIES_ORIGIN ["COM"]
properties('MP2/aug-cc-pvtz', properties = ['dipole'])
--------------------------------------------------------------------------

    Molecular point group: c1
  Charge       = 0
  Multiplicity = 1
  Basis Set: AUG-CC-PVTZ
    Blend: AUG-CC-PVTZ
  Basis Set: (AUG-CC-PVTZ AUX)
    Blend: AUG-CC-PVTZ-JKFIT

    Orbital Energies [Eh]
    ---------------------

    Doubly Occupied:

       1A    -91.951597     2A    -20.568980     3A    -11.284125
       4A    -11.264592     5A    -11.229269     6A     -8.952753
       7A     -6.634110     8A     -6.633092     9A     -6.632067
      10A     -1.358927    11A     -1.086699    12A     -0.986106
      13A     -0.868452    14A     -0.811697    15A     -0.691327
      16A     -0.672013    17A     -0.608346    18A     -0.589551
      19A     -0.545412    20A     -0.530820    21A     -0.508153
      22A     -0.491866    23A     -0.453131    24A     -0.445891
      25A     -0.356350

  @DF-RHF Final Energy:  -590.73471839950378

   => Energetics <=

    Nuclear Repulsion Energy =            223.5576678032965674
    One-Electron Energy =               -1256.2741209719395101
    Two-Electron Energy =                 441.9817347691393365
    Total Energy =                       -590.7347183995036630
  Basis Set: (AUG-CC-PVTZ AUX)
    Blend: AUG-CC-PVTZ-RI
    Molecular point group: c1

    Geometry (in Angstrom), charge = 0, multiplicity = 1:

       Center              X                  Y                   Z               Mass
    ------------   -----------------  -----------------  -----------------  -----------------
         S           -2.262039357738    -0.157702701909    -0.065809724795    31.972071174400
         O            2.878961842262    -0.506458401909    -0.022002924795    15.994914619570
         C            0.540931642262    -0.258322701909    -0.014802724795    12.000000000000
         C           -0.653059357738     0.683051298091     0.074008275205    12.000000000000
         C            1.860017642262     0.490884298091     0.038669275205    12.000000000000
         H            0.496553642262    -0.834747701909    -0.943344724795     1.007825032230
         H            0.520399642262    -0.976589701909     0.812138275205     1.007825032230
         H           -0.637443357738     1.397525298091    -0.755113724795     1.007825032230
         H           -0.624403357738     1.263374298091     1.001004275205     1.007825032230
         H            1.927176642262     1.192722298091    -0.806196724795     1.007825032230
         H            1.923468642262     1.079894298091     0.966171275205     1.007825032230
         H           -2.095606357738    -0.962901701909     0.994369275205     1.007825032230
         H            3.747369642262    -0.020526701909     0.002532275205     1.007825032230

  Basis Set: AUG-CC-PVTZ
    Blend: AUG-CC-PVTZ
  Basis Set: (AUG-CC-PVTZ AUX)
    Blend: AUG-CC-PVTZ-JKFIT
	 Reference Energy          =    -590.7347183995037767 [Eh]
	 Singles Energy            =      -0.0000000000000000 [Eh]
	 Same-Spin Energy          =      -0.2476655350726282 [Eh]
	 Opposite-Spin Energy      =      -0.8305402106945027 [Eh]
	 Correlation Energy        =      -1.0782057457671308 [Eh]
	 Total Energy              =    -591.8129241452709266 [Eh]

	 ================> DF-SCS-MP2 Energies <==================
	-----------------------------------------------------------
	 SCS Same-Spin Scale       =       0.3333333333333333 [-]
	 SCS Opposite-Spin Scale   =       1.2000000000000000 [-]
	 SCS Same-Spin Energy      =      -0.0825551783575427 [Eh]
	 SCS Opposite-Spin Energy  =      -0.9966482528334032 [Eh]
	 SCS Correlation Energy    =      -1.0792034311909460 [Eh]
	 SCS Total Energy          =    -591.8139218306947669 [Eh]
	-----------------------------------------------------------

  Dipole Moment: [D]
     X:     1.7211      Y:     1.7497      Z:     0.7027     Total:     2.5529

*** Psi4 exiting successfully. Buy a developer a beer!
