                               Psi4 1.3.2 release

  ==> Input File <==

--------------------------------------------------------------------------
#psi4
#
memory 32 gb

molecule  {
0 1
  S       -2.3310955    -0.1536698    -0.0754821
  O        2.8418010    -0.5125780    -0.0335720
  C        0.4864880    -0.2823360    -0.0275950
  C       -0.7075030     0.6590380     0.0612160
  C        1.8055740     0.4668710     0.0258770
  H        0.4421100    -0.8587610    -0.9561370
  H        0.4659560    -1.0006030     0.7993460
  H       -0.6918870     1.3735120    -0.7679060
  H       -0.6788470     1.2393610     0.9882120
  H        1.8727330     1.1687090    -0.8189890
  H        1.8690250     1.0558810     0.9533790
  H       -2.1500500    -0.9869150     0.9815770
  H        3.6929260    -0.0445400    -0.0102600
units angstrom
no_reorient  #important for SAPT in psi4, default
symmetry c1  #important for SAPT in psi4, default
}

set PROPERTIES_ORIGIN ["COM"]
properties('MP2/aug-cc-pvtz', properties = ['dipole'])
--------------------------------------------------------------------------

    Molecular point group: c1
  Charge       = 0
  Multiplicity = 1
  Basis Set: AUG-CC-PVTZ
    Blend: AUG-CC-PVTZ
  Basis Set: (AUG-CC-PVTZ AUX)
    Blend: AUG-CC-PVTZ-JKFIT

    Orbital Energies [Eh]
    ---------------------

    Doubly Occupied:

       1A    -91.953427     2A    -20.566034     3A    -11.284701
       4A    -11.264896     5A    -11.230342     6A     -8.954148
       7A     -6.635463     8A     -6.634469     9A     -6.633455
      10A     -1.362720    11A     -1.087031    12A     -0.987008
      13A     -0.868782    14A     -0.811257    15A     -0.696455
      16A     -0.672109    17A     -0.608082    18A     -0.590149
      19A     -0.547268    20A     -0.528818    21A     -0.508489
      22A     -0.490951    23A     -0.452774    24A     -0.447405
      25A     -0.356828

  @DF-RHF Final Energy:  -590.73672350353570

   => Energetics <=

    Nuclear Repulsion Energy =            223.2404699213091703
    One-Electron Energy =               -1255.6082590795215310
    Two-Electron Energy =                 441.6310656546766609
    Total Energy =                       -590.7367235035358135
  Basis Set: (AUG-CC-PVTZ AUX)
    Blend: AUG-CC-PVTZ-RI
    Molecular point group: c1

    Geometry (in Angstrom), charge = 0, multiplicity = 1:

       Center              X                  Y                   Z               Mass
    ------------   -----------------  -----------------  -----------------  -----------------
         S           -2.274579100619    -0.142510013014    -0.063986306172    31.972071174400
         O            2.898317399381    -0.501418213014    -0.022076206172    15.994914619570
         C            0.543004399381    -0.271176213014    -0.016099206172    12.000000000000
         C           -0.650986600619     0.670197786986     0.072711793828    12.000000000000
         C            1.862090399381     0.478030786986     0.037372793828    12.000000000000
         H            0.498626399381    -0.847601213014    -0.944641206172     1.007825032230
         H            0.522472399381    -0.989443213014     0.810841793828     1.007825032230
         H           -0.635370600619     1.384671786986    -0.756410206172     1.007825032230
         H           -0.622330600619     1.250520786986     0.999707793828     1.007825032230
         H            1.929249399381     1.179868786986    -0.807493206172     1.007825032230
         H            1.925541399381     1.067040786986     0.964874793828     1.007825032230
         H           -2.093533600619    -0.975755213014     0.993072793828     1.007825032230
         H            3.749442399381    -0.033380213014     0.001235793828     1.007825032230

  Basis Set: AUG-CC-PVTZ
    Blend: AUG-CC-PVTZ
  Basis Set: (AUG-CC-PVTZ AUX)
    Blend: AUG-CC-PVTZ-JKFIT
	 Reference Energy          =    -590.7367235035356998 [Eh]
	 Singles Energy            =      -0.0000000000000000 [Eh]
	 Same-Spin Energy          =      -0.2473020869443478 [Eh]
	 Opposite-Spin Energy      =      -0.8297146324335817 [Eh]
	 Correlation Energy        =      -1.0770167193779294 [Eh]
	 Total Energy              =    -591.8137402229136796 [Eh]

	 ================> DF-SCS-MP2 Energies <==================
	-----------------------------------------------------------
	 SCS Same-Spin Scale       =       0.3333333333333333 [-]
	 SCS Opposite-Spin Scale   =       1.2000000000000000 [-]
	 SCS Same-Spin Energy      =      -0.0824340289814493 [Eh]
	 SCS Opposite-Spin Energy  =      -0.9956575589202979 [Eh]
	 SCS Correlation Energy    =      -1.0780915879017472 [Eh]
	 SCS Total Energy          =    -591.8148150914374810 [Eh]
	-----------------------------------------------------------

  Dipole Moment: [D]
     X:     1.6858      Y:     1.7096      Z:     0.6866     Total:     2.4972

*** Psi4 exiting successfully. Buy a developer a beer!
