                               Psi4 1.3.2 release

  ==> Input File <==

--------------------------------------------------------------------------
#psi4
#
memory 32 gb

molecule  {
0 1
  S       -2.3164830    -0.1817160    -0.0786020
  O        2.8418010    -0.5125780    -0.0335720
  C        0.4864880    -0.2823360    -0.0275950
  C       -0.7075030     0.6590380     0.0612160
  C        1.8055740     0.4668710     0.0258770
  H        0.4421100    -0.8587610    -0.9561370
  H        0.4659560    -1.0006030     0.7993460
  H       -0.6918870     1.3735120    -0.7679060
  H       -0.6788470     1.2393610     0.9882120
  H        1.8727330     1.1687090    -0.8189890
  H        1.8690250     1.0558810     0.9533790
  H       -2.1500500    -0.9869150     0.9815770
  H        3.8681258     0.0518032    -0.0054613
units angstrom
no_reorient  #important for SAPT in psi4, default
symmetry c1  #important for SAPT in psi4, default
}

set PROPERTIES_ORIGIN ["COM"]
properties('MP2/aug-cc-pvtz', properties = ['dipole'])
--------------------------------------------------------------------------

    Molecular point group: c1
  Charge       = 0
  Multiplicity = 1
  Basis Set: AUG-CC-PVTZ
    Blend: AUG-CC-PVTZ
  Basis Set: (AUG-CC-PVTZ AUX)
    Blend: AUG-CC-PVTZ-JKFIT

    Orbital Energies [Eh]
    ---------------------

    Doubly Occupied:

       1A    -91.951743     2A    -20.581105     3A    -11.282547
       4A    -11.264938     5A    -11.229520     6A     -8.952892
       7A     -6.634248     8A     -6.633230     9A     -6.632204
      10A     -1.331115    11A     -1.085065    12A     -0.981493
      13A     -0.863335    14A     -0.810782    15A     -0.670774
      16A     -0.656892    17A     -0.606879    18A     -0.586900
      19A     -0.543379    20A     -0.524378    21A     -0.504647
      22A     -0.487938    23A     -0.449148    24A     -0.444216
      25A     -0.356379

  @DF-RHF Final Energy:  -590.70146435242077

   => Energetics <=

    Nuclear Repulsion Energy =            222.4931369802186794
    One-Electron Energy =               -1254.2577105217067128
    Two-Electron Energy =                 441.0631091890672906
    Total Energy =                       -590.7014643524207713
  Basis Set: (AUG-CC-PVTZ AUX)
    Blend: AUG-CC-PVTZ-RI
    Molecular point group: c1

    Geometry (in Angstrom), charge = 0, multiplicity = 1:

       Center              X                  Y                   Z               Mass
    ------------   -----------------  -----------------  -----------------  -----------------
         S           -2.266961770996    -0.161867724363    -0.066074870283    31.972071174400
         O            2.891322229004    -0.492729724363    -0.021044870283    15.994914619570
         C            0.536009229004    -0.262487724363    -0.015067870283    12.000000000000
         C           -0.657981770996     0.678886275637     0.073743129717    12.000000000000
         C            1.855095229004     0.486719275637     0.038404129717    12.000000000000
         H            0.491631229004    -0.838912724363    -0.943609870283     1.007825032230
         H            0.515477229004    -0.980754724363     0.811873129717     1.007825032230
         H           -0.642365770996     1.393360275637    -0.755378870283     1.007825032230
         H           -0.629325770996     1.259209275637     1.000739129717     1.007825032230
         H            1.922254229004     1.188557275637    -0.806461870283     1.007825032230
         H            1.918546229004     1.075729275637     0.965906129717     1.007825032230
         H           -2.100528770996    -0.967066724363     0.994104129717     1.007825032230
         H            3.917647029004     0.071651475637     0.007065829717     1.007825032230

  Basis Set: AUG-CC-PVTZ
    Blend: AUG-CC-PVTZ
  Basis Set: (AUG-CC-PVTZ AUX)
    Blend: AUG-CC-PVTZ-JKFIT
	 Reference Energy          =    -590.7014643524207713 [Eh]
	 Singles Energy            =      -0.0000000000000000 [Eh]
	 Same-Spin Energy          =      -0.2493788897375109 [Eh]
	 Opposite-Spin Energy      =      -0.8362857478713792 [Eh]
	 Correlation Energy        =      -1.0856646376088901 [Eh]
	 Total Energy              =    -591.7871289900297143 [Eh]

	 ================> DF-SCS-MP2 Energies <==================
	-----------------------------------------------------------
	 SCS Same-Spin Scale       =       0.3333333333333333 [-]
	 SCS Opposite-Spin Scale   =       1.2000000000000000 [-]
	 SCS Same-Spin Energy      =      -0.0831262965791703 [Eh]
	 SCS Opposite-Spin Energy  =      -1.0035428974456551 [Eh]
	 SCS Correlation Energy    =      -1.0866691940248254 [Eh]
	 SCS Total Energy          =    -591.7881335464455788 [Eh]
	-----------------------------------------------------------

  Dipole Moment: [D]
     X:     1.7909      Y:     1.7766      Z:     0.7034     Total:     2.6189

*** Psi4 exiting successfully. Buy a developer a beer!
