                               Psi4 1.3.2 release

  ==> Input File <==

--------------------------------------------------------------------------
#psi4
#
memory 32 gb

molecule  {
0 1
  S       -2.3164830    -0.1817160    -0.0786020
  O        2.8418010    -0.5125780    -0.0335720
  C        0.4864880    -0.2823360    -0.0275950
  C       -0.7075030     0.6590380     0.0612160
  C        1.8055740     0.4668710     0.0258770
  H        0.4421100    -0.8587610    -0.9561370
  H        0.4659560    -1.0006030     0.7993460
  H       -0.6918870     1.3735120    -0.7679060
  H       -0.6788470     1.2393610     0.9882120
  H        1.8727330     1.1687090    -0.8189890
  H        1.8690250     1.0558810     0.9533790
  H       -2.1252398    -1.1069462     1.1396181
  H        3.6929260    -0.0445400    -0.0102600
units angstrom
no_reorient  #important for SAPT in psi4, default
symmetry c1  #important for SAPT in psi4, default
}

set PROPERTIES_ORIGIN ["COM"]
properties('MP2/aug-cc-pvtz', properties = ['dipole'])
--------------------------------------------------------------------------

    Molecular point group: c1
  Charge       = 0
  Multiplicity = 1
  Basis Set: AUG-CC-PVTZ
    Blend: AUG-CC-PVTZ
  Basis Set: (AUG-CC-PVTZ AUX)
    Blend: AUG-CC-PVTZ-JKFIT

    Orbital Energies [Eh]
    ---------------------

    Doubly Occupied:

       1A    -91.965923     2A    -20.565858     3A    -11.284359
       4A    -11.266033     5A    -11.229834     6A     -8.963293
       7A     -6.644290     8A     -6.643434     9A     -6.642486
      10A     -1.362528    11A     -1.085663    12A     -0.980077
      13A     -0.859231    14A     -0.807807    15A     -0.695767
      16A     -0.671730    17A     -0.605280    18A     -0.589348
      19A     -0.542359    20A     -0.520772    21A     -0.507933
      22A     -0.483976    23A     -0.452604    24A     -0.443028
      25A     -0.357052

  @DF-RHF Final Energy:  -590.72009882799307

   => Energetics <=

    Nuclear Repulsion Energy =            222.5631950363802787
    One-Electron Energy =               -1254.2252576259825219
    Two-Electron Energy =                 440.9419637616093155
    Total Energy =                       -590.7200988279930698
  Basis Set: (AUG-CC-PVTZ AUX)
    Blend: AUG-CC-PVTZ-RI
    Molecular point group: c1

    Geometry (in Angstrom), charge = 0, multiplicity = 1:

       Center              X                  Y                   Z               Mass
    ------------   -----------------  -----------------  -----------------  -----------------
         S           -2.265314839721    -0.159498187065    -0.067753042851    31.972071174400
         O            2.892969160279    -0.490360187065    -0.022723042851    15.994914619570
         C            0.537656160279    -0.260118187065    -0.016746042851    12.000000000000
         C           -0.656334839721     0.681255812935     0.072064957149    12.000000000000
         C            1.856742160279     0.489088812935     0.036725957149    12.000000000000
         H            0.493278160279    -0.836543187065    -0.945288042851     1.007825032230
         H            0.517124160279    -0.978385187065     0.810194957149     1.007825032230
         H           -0.640718839721     1.395729812935    -0.757057042851     1.007825032230
         H           -0.627678839721     1.261578812935     0.999060957149     1.007825032230
         H            1.923901160279     1.190926812935    -0.808140042851     1.007825032230
         H            1.920193160279     1.078098812935     0.964227957149     1.007825032230
         H           -2.074071639721    -1.084728387065     1.150467057149     1.007825032230
         H            3.744094160279    -0.022322187065     0.000588957149     1.007825032230

  Basis Set: AUG-CC-PVTZ
    Blend: AUG-CC-PVTZ
  Basis Set: (AUG-CC-PVTZ AUX)
    Blend: AUG-CC-PVTZ-JKFIT
	 Reference Energy          =    -590.7200988279930698 [Eh]
	 Singles Energy            =      -0.0000000000000000 [Eh]
	 Same-Spin Energy          =      -0.2473156660175565 [Eh]
	 Opposite-Spin Energy      =      -0.8312357825474801 [Eh]
	 Correlation Energy        =      -1.0785514485650367 [Eh]
	 Total Energy              =    -591.7986502765580781 [Eh]

	 ================> DF-SCS-MP2 Energies <==================
	-----------------------------------------------------------
	 SCS Same-Spin Scale       =       0.3333333333333333 [-]
	 SCS Opposite-Spin Scale   =       1.2000000000000000 [-]
	 SCS Same-Spin Energy      =      -0.0824385553391855 [Eh]
	 SCS Opposite-Spin Energy  =      -0.9974829390569760 [Eh]
	 SCS Correlation Energy    =      -1.0799214943961615 [Eh]
	 SCS Total Energy          =    -591.8000203223892868 [Eh]
	-----------------------------------------------------------

  Dipole Moment: [D]
     X:     1.6822      Y:     1.7574      Z:     0.6738     Total:     2.5244

*** Psi4 exiting successfully. Buy a developer a beer!
