                               Psi4 1.4a3.dev225

  ==> Input File <==

--------------------------------------------------------------------------
#psi4
#
memory 32 gb

molecule  {
0 1
  S       -2.3164950    -0.1817520    -0.0785600
  O        2.8418240    -0.5125870    -0.0336710
  C        0.4864850    -0.2823110    -0.0275730
  C       -0.7075220     0.6590550     0.0609310
  C        1.7910680     0.4805831     0.0270502
  H        0.4423910    -0.8587120    -0.9561410
  H        0.4657080    -1.0005910     0.7993450
  H       -0.6919970     1.3731860    -0.7684900
  H       -0.6788530     1.2397730     0.9876800
  H        1.8727880     1.1690760    -0.8183300
  H        1.8691150     1.0554390     0.9539770
  H       -2.1500900    -0.9865220     0.9819500
  H        3.6929560    -0.0445220    -0.0110750
units angstrom
no_reorient  #important for SAPT in psi4, default
symmetry c1  #important for SAPT in psi4, default
}

set PROPERTIES_ORIGIN ["COM"]
properties('MP2/aug-cc-pvtz', properties = ['dipole'])
--------------------------------------------------------------------------

    Molecular point group: c1
  Charge       = 0
  Multiplicity = 1
  Basis Set: AUG-CC-PVTZ
    Blend: AUG-CC-PVTZ
  Basis Set: (AUG-CC-PVTZ AUX)
    Blend: AUG-CC-PVTZ-JKFIT

    Orbital Energies [Eh]
    ---------------------

    Doubly Occupied:

       1A    -91.952098     2A    -20.563723     3A    -11.284137
       4A    -11.265346     5A    -11.230363     6A     -8.953256
       7A     -6.634612     8A     -6.633595     9A     -6.632569
      10A     -1.354667    11A     -1.088798    12A     -0.988518
      13A     -0.870267    14A     -0.812941    15A     -0.690961
      16A     -0.673202    17A     -0.608350    18A     -0.587450
      19A     -0.546241    20A     -0.530003    21A     -0.508448
      22A     -0.493555    23A     -0.454887    24A     -0.447368
      25A     -0.356925

  @DF-RHF Final Energy:  -590.73652562049779

   => Energetics <=

    Nuclear Repulsion Energy =            223.4336806048189885
    One-Electron Energy =               -1256.0158552467305526
    Two-Electron Energy =                 441.8456490214137489
    Total Energy =                       -590.7365256204977868
  Basis Set: (AUG-CC-PVTZ AUX)
    Blend: AUG-CC-PVTZ-RI
    Molecular point group: c1

    Geometry (in Angstrom), charge = 0, multiplicity = 1:

       Center              X                  Y                   Z               Mass
    ------------   -----------------  -----------------  -----------------  -----------------
         S           -2.263161191433    -0.162633315193    -0.066093036652    31.972071174400
         O            2.895157808567    -0.493468315193    -0.021204036652    15.994914619570
         C            0.539818808567    -0.263192315193    -0.015106036652    12.000000000000
         C           -0.654188191433     0.678173684807     0.073397963348    12.000000000000
         C            1.844401808567     0.499701784807     0.039517163348    12.000000000000
         H            0.495724808567    -0.839593315193    -0.943674036652     1.007825032230
         H            0.519041808567    -0.981472315193     0.811811963348     1.007825032230
         H           -0.638663191433     1.392304684807    -0.756023036652     1.007825032230
         H           -0.625519191433     1.258891684807     1.000146963348     1.007825032230
         H            1.926121808567     1.188194684807    -0.805863036652     1.007825032230
         H            1.922448808567     1.074557684807     0.966443963348     1.007825032230
         H           -2.096756191433    -0.967403315193     0.994416963348     1.007825032230
         H            3.746289808567    -0.025403315193     0.001391963348     1.007825032230

  Basis Set: AUG-CC-PVTZ
    Blend: AUG-CC-PVTZ
  Basis Set: (AUG-CC-PVTZ AUX)
    Blend: AUG-CC-PVTZ-JKFIT
	 Reference Energy          =    -590.7365256204977868 [Eh]
	 Singles Energy            =      -0.0000000000000000 [Eh]
	 Same-Spin Energy          =      -0.2473695865045081 [Eh]
	 Opposite-Spin Energy      =      -0.8299658564986987 [Eh]
	 Correlation Energy        =      -1.0773354430032067 [Eh]
	 Total Energy              =    -591.8138610635010082 [Eh]

	 ================> DF-SCS-MP2 Energies <==================
	-----------------------------------------------------------
	 SCS Same-Spin Scale       =       0.3333333333333333 [-]
	 SCS Opposite-Spin Scale   =       1.2000000000000000 [-]
	 SCS Same-Spin Energy      =      -0.0824565288348360 [Eh]
	 SCS Opposite-Spin Energy  =      -0.9959590277984384 [Eh]
	 SCS Correlation Energy    =      -1.0784155566332745 [Eh]
	 SCS Total Energy          =    -591.8149411771311179 [Eh]
	-----------------------------------------------------------

  Dipole Moment: [D]
     X:     1.6134      Y:     1.7761      Z:     0.7035     Total:     2.5005

*** Psi4 exiting successfully. Buy a developer a beer!
