                               Psi4 1.3.2 release

  ==> Input File <==

--------------------------------------------------------------------------
#psi4
#
memory 32 gb

molecule  {
0 1
  S       -2.3252769    -0.1688954    -0.0508865
  O        2.8418010    -0.5125780    -0.0335720
  C        0.4864880    -0.2823360    -0.0275950
  C       -0.7075030     0.6590380     0.0612160
  C        1.8055740     0.4668710     0.0258770
  H        0.4421100    -0.8587610    -0.9561370
  H        0.4659560    -1.0006030     0.7993460
  H       -0.6918870     1.3735120    -0.7679060
  H       -0.6788470     1.2393610     0.9882120
  H        1.8727330     1.1687090    -0.8189890
  H        1.8690250     1.0558810     0.9533790
  H       -2.1500500    -0.9869150     0.9815770
  H        3.6929260    -0.0445400    -0.0102600
units angstrom
no_reorient  #important for SAPT in psi4, default
symmetry c1  #important for SAPT in psi4, default
}

set PROPERTIES_ORIGIN ["COM"]
properties('MP2/aug-cc-pvtz', properties = ['dipole'])
--------------------------------------------------------------------------

    Molecular point group: c1
  Charge       = 0
  Multiplicity = 1
  Basis Set: AUG-CC-PVTZ
    Blend: AUG-CC-PVTZ
  Basis Set: (AUG-CC-PVTZ AUX)
    Blend: AUG-CC-PVTZ-JKFIT

    Orbital Energies [Eh]
    ---------------------

    Doubly Occupied:

       1A    -91.950839     2A    -20.566030     3A    -11.284664
       4A    -11.265109     5A    -11.230331     6A     -8.952326
       7A     -6.633720     8A     -6.632675     9A     -6.631639
      10A     -1.362717    11A     -1.087556    12A     -0.988232
      13A     -0.870923    14A     -0.812169    15A     -0.696598
      16A     -0.672117    17A     -0.608452    18A     -0.590631
      19A     -0.548550    20A     -0.531389    21A     -0.508401
      22A     -0.492869    23A     -0.452741    24A     -0.446017
      25A     -0.356573

  @DF-RHF Final Energy:  -590.73727861998896

   => Energetics <=

    Nuclear Repulsion Energy =            223.4580562641308745
    One-Electron Energy =               -1256.0441331595793599
    Two-Electron Energy =                 441.8487982754595578
    Total Energy =                       -590.7372786199889561
  Basis Set: (AUG-CC-PVTZ AUX)
    Blend: AUG-CC-PVTZ-RI
    Molecular point group: c1

    Geometry (in Angstrom), charge = 0, multiplicity = 1:

       Center              X                  Y                   Z               Mass
    ------------   -----------------  -----------------  -----------------  -----------------
         S           -2.270781945041    -0.152446075293    -0.047935482993    31.972071174400
         O            2.896295954959    -0.496128675293    -0.030620982993    15.994914619570
         C            0.540982954959    -0.265886675293    -0.024643982993    12.000000000000
         C           -0.653008045041     0.675487324707     0.064167017007    12.000000000000
         C            1.860068954959     0.483320324707     0.028828017007    12.000000000000
         H            0.496604954959    -0.842311675293    -0.953185982993     1.007825032230
         H            0.520450954959    -0.984153675293     0.802297017007     1.007825032230
         H           -0.637392045041     1.389961324707    -0.764954982993     1.007825032230
         H           -0.624352045041     1.255810324707     0.991163017007     1.007825032230
         H            1.927227954959     1.185158324707    -0.816037982993     1.007825032230
         H            1.923519954959     1.072330324707     0.956330017007     1.007825032230
         H           -2.095555045041    -0.970465675293     0.984528017007     1.007825032230
         H            3.747420954959    -0.028090675293    -0.007308982993     1.007825032230

  Basis Set: AUG-CC-PVTZ
    Blend: AUG-CC-PVTZ
  Basis Set: (AUG-CC-PVTZ AUX)
    Blend: AUG-CC-PVTZ-JKFIT
	 Reference Energy          =    -590.7372786199889561 [Eh]
	 Singles Energy            =      -0.0000000000000000 [Eh]
	 Same-Spin Energy          =      -0.2472494683237599 [Eh]
	 Opposite-Spin Energy      =      -0.8294609382727749 [Eh]
	 Correlation Energy        =      -1.0767104065965349 [Eh]
	 Total Energy              =    -591.8139890265855456 [Eh]

	 ================> DF-SCS-MP2 Energies <==================
	-----------------------------------------------------------
	 SCS Same-Spin Scale       =       0.3333333333333333 [-]
	 SCS Opposite-Spin Scale   =       1.2000000000000000 [-]
	 SCS Same-Spin Energy      =      -0.0824164894412533 [Eh]
	 SCS Opposite-Spin Energy  =      -0.9953531259273298 [Eh]
	 SCS Correlation Energy    =      -1.0777696153685832 [Eh]
	 SCS Total Energy          =    -591.8150482353574944 [Eh]
	-----------------------------------------------------------

  Dipole Moment: [D]
     X:     1.6983      Y:     1.7156      Z:     0.6841     Total:     2.5091

*** Psi4 exiting successfully. Buy a developer a beer!
