                               Psi4 1.3.2 release

  ==> Input File <==

--------------------------------------------------------------------------
#psi4
#
memory 32 gb

molecule  {
0 1
  S       -2.3164830    -0.1817160    -0.0786020
  O        2.8238910    -0.5327998     0.0082804
  C        0.4864880    -0.2823360    -0.0275950
  C       -0.7075030     0.6590380     0.0612160
  C        1.8055740     0.4668710     0.0258770
  H        0.4421100    -0.8587610    -0.9561370
  H        0.4659560    -1.0006030     0.7993460
  H       -0.6918870     1.3735120    -0.7679060
  H       -0.6788470     1.2393610     0.9882120
  H        1.8727330     1.1687090    -0.8189890
  H        1.8690250     1.0558810     0.9533790
  H       -2.1500500    -0.9869150     0.9815770
  H        3.6929260    -0.0445400    -0.0102600
units angstrom
no_reorient  #important for SAPT in psi4, default
symmetry c1  #important for SAPT in psi4, default
}

set PROPERTIES_ORIGIN ["COM"]
properties('MP2/aug-cc-pvtz', properties = ['dipole'])
--------------------------------------------------------------------------

    Molecular point group: c1
  Charge       = 0
  Multiplicity = 1
  Basis Set: AUG-CC-PVTZ
    Blend: AUG-CC-PVTZ
  Basis Set: (AUG-CC-PVTZ AUX)
    Blend: AUG-CC-PVTZ-JKFIT

    Orbital Energies [Eh]
    ---------------------

    Doubly Occupied:

       1A    -91.951572     2A    -20.569164     3A    -11.284092
       4A    -11.264571     5A    -11.229243     6A     -8.952729
       7A     -6.634087     8A     -6.633069     9A     -6.632044
      10A     -1.358711    11A     -1.086659    12A     -0.986031
      13A     -0.868372    14A     -0.811693    15A     -0.691185
      16A     -0.671879    17A     -0.608337    18A     -0.589190
      19A     -0.545797    20A     -0.530421    21A     -0.508735
      22A     -0.491626    23A     -0.452719    24A     -0.446050
      25A     -0.356323

  @DF-RHF Final Energy:  -590.73437444184106

   => Energetics <=

    Nuclear Repulsion Energy =            223.5555941264918829
    One-Electron Energy =               -1256.2713393476822148
    Two-Electron Energy =                 441.9813707793494473
    Total Energy =                       -590.7343744418410552
  Basis Set: (AUG-CC-PVTZ AUX)
    Blend: AUG-CC-PVTZ-RI
    Molecular point group: c1

    Geometry (in Angstrom), charge = 0, multiplicity = 1:

       Center              X                  Y                   Z               Mass
    ------------   -----------------  -----------------  -----------------  -----------------
         S           -2.261930349202    -0.157298073763    -0.073296344846    31.972071174400
         O            2.878443650798    -0.508381873763     0.013586055154    15.994914619570
         C            0.541040650798    -0.257918073763    -0.022289344846    12.000000000000
         C           -0.652950349202     0.683455926237     0.066521655154    12.000000000000
         C            1.860126650798     0.491288926237     0.031182655154    12.000000000000
         H            0.496662650798    -0.834343073763    -0.950831344846     1.007825032230
         H            0.520508650798    -0.976185073763     0.804651655154     1.007825032230
         H           -0.637334349202     1.397929926237    -0.762600344846     1.007825032230
         H           -0.624294349202     1.263778926237     0.993517655154     1.007825032230
         H            1.927285650798     1.193126926237    -0.813683344846     1.007825032230
         H            1.923577650798     1.080298926237     0.958684655154     1.007825032230
         H           -2.095497349202    -0.962497073763     0.986882655154     1.007825032230
         H            3.747478650798    -0.020122073763    -0.004954344846     1.007825032230

  Basis Set: AUG-CC-PVTZ
    Blend: AUG-CC-PVTZ
  Basis Set: (AUG-CC-PVTZ AUX)
    Blend: AUG-CC-PVTZ-JKFIT
	 Reference Energy          =    -590.7343744418410552 [Eh]
	 Singles Energy            =      -0.0000000000000000 [Eh]
	 Same-Spin Energy          =      -0.2476935929281130 [Eh]
	 Opposite-Spin Energy      =      -0.8306080915648368 [Eh]
	 Correlation Energy        =      -1.0783016844929498 [Eh]
	 Total Energy              =    -591.8126761263340541 [Eh]

	 ================> DF-SCS-MP2 Energies <==================
	-----------------------------------------------------------
	 SCS Same-Spin Scale       =       0.3333333333333333 [-]
	 SCS Opposite-Spin Scale   =       1.2000000000000000 [-]
	 SCS Same-Spin Energy      =      -0.0825645309760377 [Eh]
	 SCS Opposite-Spin Energy  =      -0.9967297098778042 [Eh]
	 SCS Correlation Energy    =      -1.0792942408538417 [Eh]
	 SCS Total Energy          =    -591.8136686826949244 [Eh]
	-----------------------------------------------------------

  Dipole Moment: [D]
     X:     1.7230      Y:     1.7540      Z:     0.6026     Total:     2.5314

*** Psi4 exiting successfully. Buy a developer a beer!
