                               Psi4 1.3.2 release

  ==> Input File <==

--------------------------------------------------------------------------
#psi4
#
memory 32 gb

molecule  {
0 1
  S       -2.3164830    -0.1817160    -0.0786020
  O        2.8418010    -0.5125780    -0.0335720
  C        0.4864880    -0.2823360    -0.0275950
  C       -0.8842384     0.5666869     0.0458580
  C        1.8055740     0.4668710     0.0258770
  H        0.4421100    -0.8587610    -0.9561370
  H        0.4659560    -1.0006030     0.7993460
  H       -0.6918870     1.3735120    -0.7679060
  H       -0.6788470     1.2393610     0.9882120
  H        1.8727330     1.1687090    -0.8189890
  H        1.8690250     1.0558810     0.9533790
  H       -2.1500500    -0.9869150     0.9815770
  H        3.6929260    -0.0445400    -0.0102600
units angstrom
no_reorient  #important for SAPT in psi4, default
symmetry c1  #important for SAPT in psi4, default
}

set PROPERTIES_ORIGIN ["COM"]
properties('MP2/aug-cc-pvtz', properties = ['dipole'])
--------------------------------------------------------------------------

    Molecular point group: c1
  Charge       = 0
  Multiplicity = 1
  Basis Set: AUG-CC-PVTZ
    Blend: AUG-CC-PVTZ
  Basis Set: (AUG-CC-PVTZ AUX)
    Blend: AUG-CC-PVTZ-JKFIT

    Orbital Energies [Eh]
    ---------------------

    Doubly Occupied:

       1A    -91.953356     2A    -20.566501     3A    -11.285521
       4A    -11.269368     5A    -11.232293     6A     -8.958601
       7A     -6.640342     8A     -6.639023     9A     -6.637724
      10A     -1.362750    11A     -1.101421    12A     -1.006083
      13A     -0.860972    14A     -0.798086    15A     -0.694781
      16A     -0.663827    17A     -0.610901    18A     -0.589963
      19A     -0.556518    20A     -0.534005    21A     -0.503351
      22A     -0.484074    23A     -0.451371    24A     -0.448776
      25A     -0.348443

  @DF-RHF Final Energy:  -590.69832856594485

   => Energetics <=

    Nuclear Repulsion Energy =            225.0376046347870442
    One-Electron Energy =               -1259.0757596760561228
    Two-Electron Energy =                 443.3398264753240596
    Total Energy =                       -590.6983285659448484
  Basis Set: (AUG-CC-PVTZ AUX)
    Blend: AUG-CC-PVTZ-RI
    Molecular point group: c1

    Geometry (in Angstrom), charge = 0, multiplicity = 1:

       Center              X                  Y                   Z               Mass
    ------------   -----------------  -----------------  -----------------  -----------------
         S           -2.241998108302    -0.148770737401    -0.064019745860    31.972071174400
         O            2.916285891698    -0.479632737401    -0.018989745860    15.994914619570
         C            0.560972891698    -0.249390737401    -0.013012745860    12.000000000000
         C           -0.809753508302     0.599632162599     0.060440254140    12.000000000000
         C            1.880058891698     0.499816262599     0.040459254140    12.000000000000
         H            0.516594891698    -0.825815737401    -0.941554745860     1.007825032230
         H            0.540440891698    -0.967657737401     0.813928254140     1.007825032230
         H           -0.617402108302     1.406457262599    -0.753323745860     1.007825032230
         H           -0.604362108302     1.272306262599     1.002794254140     1.007825032230
         H            1.947217891698     1.201654262599    -0.804406745860     1.007825032230
         H            1.943509891698     1.088826262599     0.967961254140     1.007825032230
         H           -2.075565108302    -0.953969737401     0.996159254140     1.007825032230
         H            3.767410891698    -0.011594737401     0.004322254140     1.007825032230

  Basis Set: AUG-CC-PVTZ
    Blend: AUG-CC-PVTZ
  Basis Set: (AUG-CC-PVTZ AUX)
    Blend: AUG-CC-PVTZ-JKFIT
	 Reference Energy          =    -590.6983285659448484 [Eh]
	 Singles Energy            =      -0.0000000000000000 [Eh]
	 Same-Spin Energy          =      -0.2494989623744587 [Eh]
	 Opposite-Spin Energy      =      -0.8324480838130011 [Eh]
	 Correlation Energy        =      -1.0819470461874598 [Eh]
	 Total Energy              =    -591.7802756121323000 [Eh]

	 ================> DF-SCS-MP2 Energies <==================
	-----------------------------------------------------------
	 SCS Same-Spin Scale       =       0.3333333333333333 [-]
	 SCS Opposite-Spin Scale   =       1.2000000000000000 [-]
	 SCS Same-Spin Energy      =      -0.0831663207914862 [Eh]
	 SCS Opposite-Spin Energy  =      -0.9989377005756013 [Eh]
	 SCS Correlation Energy    =      -1.0821040213670874 [Eh]
	 SCS Total Energy          =    -591.7804325873119069 [Eh]
	-----------------------------------------------------------

  Dipole Moment: [D]
     X:     1.3839      Y:     1.6453      Z:     0.6675     Total:     2.2512

*** Psi4 exiting successfully. Buy a developer a beer!
