                               Psi4 1.3.2 release

  ==> Input File <==

--------------------------------------------------------------------------
#psi4
#
memory 32 gb

molecule  {
0 1
  S       -2.2186816    -0.3443219    -0.0963948
  O        2.8418010    -0.5125780    -0.0335720
  C        0.4864880    -0.2823360    -0.0275950
  C       -0.7075030     0.6590380     0.0612160
  C        1.8055740     0.4668710     0.0258770
  H        0.4421100    -0.8587610    -0.9561370
  H        0.4659560    -1.0006030     0.7993460
  H       -0.6918870     1.3735120    -0.7679060
  H       -0.6788470     1.2393610     0.9882120
  H        1.8727330     1.1687090    -0.8189890
  H        1.8690250     1.0558810     0.9533790
  H       -2.1500500    -0.9869150     0.9815770
  H        3.6929260    -0.0445400    -0.0102600
units angstrom
no_reorient  #important for SAPT in psi4, default
symmetry c1  #important for SAPT in psi4, default
}

set PROPERTIES_ORIGIN ["COM"]
properties('MP2/aug-cc-pvtz', properties = ['dipole'])
--------------------------------------------------------------------------

    Molecular point group: c1
  Charge       = 0
  Multiplicity = 1
  Basis Set: AUG-CC-PVTZ
    Blend: AUG-CC-PVTZ
  Basis Set: (AUG-CC-PVTZ AUX)
    Blend: AUG-CC-PVTZ-JKFIT

    Orbital Energies [Eh]
    ---------------------

    Doubly Occupied:

       1A    -91.943788     2A    -20.564666     3A    -11.282331
       4A    -11.266144     5A    -11.227707     6A     -8.947609
       7A     -6.629262     8A     -6.627939     9A     -6.626864
      10A     -1.361322    11A     -1.090607    12A     -0.989321
      13A     -0.876280    14A     -0.814009    15A     -0.695411
      16A     -0.672136    17A     -0.612880    18A     -0.591709
      19A     -0.545064    20A     -0.540428    21A     -0.506331
      22A     -0.494716    23A     -0.451718    24A     -0.443272
      25A     -0.355406

  @DF-RHF Final Energy:  -590.73163660930686

   => Energetics <=

    Nuclear Repulsion Energy =            225.2485627432133981
    One-Electron Energy =               -1259.6465518097259064
    Two-Electron Energy =                 443.6663524572055621
    Total Energy =                       -590.7316366093069746
  Basis Set: (AUG-CC-PVTZ AUX)
    Blend: AUG-CC-PVTZ-RI
    Molecular point group: c1

    Geometry (in Angstrom), charge = 0, multiplicity = 1:

       Center              X                  Y                   Z               Mass
    ------------   -----------------  -----------------  -----------------  -----------------
         S           -2.201219002402    -0.266927516377    -0.077633708548    31.972071174400
         O            2.859263597598    -0.435183616377    -0.014810908548    15.994914619570
         C            0.503950597598    -0.204941616377    -0.008833908548    12.000000000000
         C           -0.690040402402     0.736432383623     0.079977091452    12.000000000000
         C            1.823036597598     0.544265383623     0.044638091452    12.000000000000
         H            0.459572597598    -0.781366616377    -0.937375908548     1.007825032230
         H            0.483418597598    -0.923208616377     0.818107091452     1.007825032230
         H           -0.674424402402     1.450906383623    -0.749144908548     1.007825032230
         H           -0.661384402402     1.316755383623     1.006973091452     1.007825032230
         H            1.890195597598     1.246103383623    -0.800227908548     1.007825032230
         H            1.886487597598     1.133275383623     0.972140091452     1.007825032230
         H           -2.132587402402    -0.909520616377     1.000338091452     1.007825032230
         H            3.710388597598     0.032854383623     0.008501091452     1.007825032230

  Basis Set: AUG-CC-PVTZ
    Blend: AUG-CC-PVTZ
  Basis Set: (AUG-CC-PVTZ AUX)
    Blend: AUG-CC-PVTZ-JKFIT
	 Reference Energy          =    -590.7316366093068609 [Eh]
	 Singles Energy            =      -0.0000000000000000 [Eh]
	 Same-Spin Energy          =      -0.2474737782343981 [Eh]
	 Opposite-Spin Energy      =      -0.8295158041413206 [Eh]
	 Correlation Energy        =      -1.0769895823757187 [Eh]
	 Total Energy              =    -591.8086261916826061 [Eh]

	 ================> DF-SCS-MP2 Energies <==================
	-----------------------------------------------------------
	 SCS Same-Spin Scale       =       0.3333333333333333 [-]
	 SCS Opposite-Spin Scale   =       1.2000000000000000 [-]
	 SCS Same-Spin Energy      =      -0.0824912594114660 [Eh]
	 SCS Opposite-Spin Energy  =      -0.9954189649695847 [Eh]
	 SCS Correlation Energy    =      -1.0779102243810508 [Eh]
	 SCS Total Energy          =    -591.8095468336879321 [Eh]
	-----------------------------------------------------------

  Dipole Moment: [D]
     X:     1.5991      Y:     1.8707      Z:     0.7880     Total:     2.5841

*** Psi4 exiting successfully. Buy a developer a beer!
