                               Psi4 1.4a3.dev225

  ==> Input File <==

--------------------------------------------------------------------------
#psi4
#
memory 32 gb

molecule  {
0 1
  S       -2.3164950    -0.1817520    -0.0785600
  O        2.8418240    -0.5125870    -0.0336710
  C        0.4864850    -0.2823110    -0.0275730
  C       -0.7075220     0.6590550     0.0609310
  C        1.8418950     0.4325416     0.0241130
  H        0.4423910    -0.8587120    -0.9561410
  H        0.4657080    -1.0005910     0.7993450
  H       -0.6919970     1.3731860    -0.7684900
  H       -0.6788530     1.2397730     0.9876800
  H        1.8727880     1.1690760    -0.8183300
  H        1.8691150     1.0554390     0.9539770
  H       -2.1500900    -0.9865220     0.9819500
  H        3.6929560    -0.0445220    -0.0110750
units angstrom
no_reorient  #important for SAPT in psi4, default
symmetry c1  #important for SAPT in psi4, default
}

set PROPERTIES_ORIGIN ["COM"]
properties('MP2/aug-cc-pvtz', properties = ['dipole'])
--------------------------------------------------------------------------

    Molecular point group: c1
  Charge       = 0
  Multiplicity = 1
  Basis Set: AUG-CC-PVTZ
    Blend: AUG-CC-PVTZ
  Basis Set: (AUG-CC-PVTZ AUX)
    Blend: AUG-CC-PVTZ-JKFIT

    Orbital Energies [Eh]
    ---------------------

    Doubly Occupied:

       1A    -91.951650     2A    -20.571192     3A    -11.285743
       4A    -11.264468     5A    -11.229026     6A     -8.952781
       7A     -6.634137     8A     -6.633117     9A     -6.632091
      10A     -1.383989    11A     -1.084268    12A     -0.984219
      13A     -0.869010    14A     -0.809039    15A     -0.710458
      16A     -0.670088    17A     -0.610443    18A     -0.600037
      19A     -0.548550    20A     -0.531498    21A     -0.507552
      22A     -0.486916    23A     -0.446114    24A     -0.443455
      25A     -0.356316

  @DF-RHF Final Energy:  -590.73538332213354

   => Energetics <=

    Nuclear Repulsion Energy =            223.7275066872884679
    One-Electron Energy =               -1256.5334630496042791
    Two-Electron Energy =                 442.0705730401822962
    Total Energy =                       -590.7353833221334298
  Basis Set: (AUG-CC-PVTZ AUX)
    Blend: AUG-CC-PVTZ-RI
    Molecular point group: c1

    Geometry (in Angstrom), charge = 0, multiplicity = 1:

       Center              X                  Y                   Z               Mass
    ------------   -----------------  -----------------  -----------------  -----------------
         S           -2.269788668814    -0.156369047095    -0.065710046773    31.972071174400
         O            2.888530331186    -0.487204047095    -0.020821046773    15.994914619570
         C            0.533191331186    -0.256928047095    -0.014723046773    12.000000000000
         C           -0.660815668814     0.684437952905     0.073780953227    12.000000000000
         C            1.888601331186     0.457924552905     0.036962953227    12.000000000000
         H            0.489097331186    -0.833329047095    -0.943291046773     1.007825032230
         H            0.512414331186    -0.975208047095     0.812194953227     1.007825032230
         H           -0.645290668814     1.398568952905    -0.755640046773     1.007825032230
         H           -0.632146668814     1.265155952905     1.000529953227     1.007825032230
         H            1.919494331186     1.194458952905    -0.805480046773     1.007825032230
         H            1.915821331186     1.080821952905     0.966826953227     1.007825032230
         H           -2.103383668814    -0.961139047095     0.994799953227     1.007825032230
         H            3.739662331186    -0.019139047095     0.001774953227     1.007825032230

  Basis Set: AUG-CC-PVTZ
    Blend: AUG-CC-PVTZ
  Basis Set: (AUG-CC-PVTZ AUX)
    Blend: AUG-CC-PVTZ-JKFIT
	 Reference Energy          =    -590.7353833221335435 [Eh]
	 Singles Energy            =      -0.0000000000000000 [Eh]
	 Same-Spin Energy          =      -0.2472191991475853 [Eh]
	 Opposite-Spin Energy      =      -0.8288973007016471 [Eh]
	 Correlation Energy        =      -1.0761164998492323 [Eh]
	 Total Energy              =    -591.8114998219828067 [Eh]

	 ================> DF-SCS-MP2 Energies <==================
	-----------------------------------------------------------
	 SCS Same-Spin Scale       =       0.3333333333333333 [-]
	 SCS Opposite-Spin Scale   =       1.2000000000000000 [-]
	 SCS Same-Spin Energy      =      -0.0824063997158618 [Eh]
	 SCS Opposite-Spin Energy  =      -0.9946767608419765 [Eh]
	 SCS Correlation Energy    =      -1.0770831605578384 [Eh]
	 SCS Total Energy          =    -591.8124664826914341 [Eh]
	-----------------------------------------------------------

  Dipole Moment: [D]
     X:     1.8345      Y:     1.6068      Z:     0.6925     Total:     2.5351

*** Psi4 exiting successfully. Buy a developer a beer!
