                               Psi4 1.3.2 release

  ==> Input File <==

--------------------------------------------------------------------------
#psi4
#
memory 32 gb

molecule  {
0 1
  S       -2.3164830    -0.1817160    -0.0786020
  O        2.8418010    -0.5125780    -0.0335720
  C        0.4864880    -0.2823360    -0.0275950
  C       -0.6945221     0.6233224     0.1121571
  C        1.8055740     0.4668710     0.0258770
  H        0.4421100    -0.8587610    -0.9561370
  H        0.4659560    -1.0006030     0.7993460
  H       -0.6918870     1.3735120    -0.7679060
  H       -0.6788470     1.2393610     0.9882120
  H        1.8727330     1.1687090    -0.8189890
  H        1.8690250     1.0558810     0.9533790
  H       -2.1500500    -0.9869150     0.9815770
  H        3.6929260    -0.0445400    -0.0102600
units angstrom
no_reorient  #important for SAPT in psi4, default
symmetry c1  #important for SAPT in psi4, default
}

set PROPERTIES_ORIGIN ["COM"]
properties('MP2/aug-cc-pvtz', properties = ['dipole'])
--------------------------------------------------------------------------

    Molecular point group: c1
  Charge       = 0
  Multiplicity = 1
  Basis Set: AUG-CC-PVTZ
    Blend: AUG-CC-PVTZ
  Basis Set: (AUG-CC-PVTZ AUX)
    Blend: AUG-CC-PVTZ-JKFIT

    Orbital Energies [Eh]
    ---------------------

    Doubly Occupied:

       1A    -91.953079     2A    -20.566051     3A    -11.284842
       4A    -11.266659     5A    -11.228727     6A     -8.954125
       7A     -6.635458     8A     -6.634397     9A     -6.633376
      10A     -1.362753    11A     -1.091208    12A     -0.987740
      13A     -0.871243    14A     -0.809480    15A     -0.696664
      16A     -0.672262    17A     -0.607698    18A     -0.590706
      19A     -0.552609    20A     -0.529878    21A     -0.509808
      22A     -0.477544    23A     -0.453225    24A     -0.450300
      25A     -0.359045

  @DF-RHF Final Energy:  -590.73248100299395

   => Energetics <=

    Nuclear Repulsion Energy =            223.8071749237506936
    One-Electron Energy =               -1256.7215531118824856
    Two-Electron Energy =                 442.1818971851379843
    Total Energy =                       -590.7324810029938362
  Basis Set: (AUG-CC-PVTZ AUX)
    Blend: AUG-CC-PVTZ-RI
    Molecular point group: c1

    Geometry (in Angstrom), charge = 0, multiplicity = 1:

       Center              X                  Y                   Z               Mass
    ------------   -----------------  -----------------  -----------------  -----------------
         S           -2.266735757330    -0.156155601651    -0.072664674454    31.972071174400
         O            2.891548242670    -0.487017601651    -0.027634674454    15.994914619570
         C            0.536235242670    -0.256775601651    -0.021657674454    12.000000000000
         C           -0.644774857330     0.648882798349     0.118094425546    12.000000000000
         C            1.855321242670     0.492431398349     0.031814325546    12.000000000000
         H            0.491857242670    -0.833200601651    -0.950199674454     1.007825032230
         H            0.515703242670    -0.975042601651     0.805283325546     1.007825032230
         H           -0.642139757330     1.399072398349    -0.761968674454     1.007825032230
         H           -0.629099757330     1.264921398349     0.994149325546     1.007825032230
         H            1.922480242670     1.194269398349    -0.813051674454     1.007825032230
         H            1.918772242670     1.081441398349     0.959316325546     1.007825032230
         H           -2.100302757330    -0.961354601651     0.987514325546     1.007825032230
         H            3.742673242670    -0.018979601651    -0.004322674454     1.007825032230

  Basis Set: AUG-CC-PVTZ
    Blend: AUG-CC-PVTZ
  Basis Set: (AUG-CC-PVTZ AUX)
    Blend: AUG-CC-PVTZ-JKFIT
	 Reference Energy          =    -590.7324810029939499 [Eh]
	 Singles Energy            =      -0.0000000000000000 [Eh]
	 Same-Spin Energy          =      -0.2477496457274678 [Eh]
	 Opposite-Spin Energy      =      -0.8302915751216355 [Eh]
	 Correlation Energy        =      -1.0780412208491033 [Eh]
	 Total Energy              =    -591.8105222238430088 [Eh]

	 ================> DF-SCS-MP2 Energies <==================
	-----------------------------------------------------------
	 SCS Same-Spin Scale       =       0.3333333333333333 [-]
	 SCS Opposite-Spin Scale   =       1.2000000000000000 [-]
	 SCS Same-Spin Energy      =      -0.0825832152424893 [Eh]
	 SCS Opposite-Spin Energy  =      -0.9963498901459626 [Eh]
	 SCS Correlation Energy    =      -1.0789331053884519 [Eh]
	 SCS Total Energy          =    -591.8114141083824506 [Eh]
	-----------------------------------------------------------

  Dipole Moment: [D]
     X:     1.6594      Y:     1.7064      Z:     0.7142     Total:     2.4851

*** Psi4 exiting successfully. Buy a developer a beer!
