                               Psi4 1.3.2 release

  ==> Input File <==

--------------------------------------------------------------------------
#psi4
#
memory 32 gb

molecule  {
0 1
  S       -2.3164830    -0.1817160    -0.0786020
  O        2.8418010    -0.5125780    -0.0335720
  C        0.4864880    -0.2823360    -0.0275950
  C       -0.6745020     0.5489934     0.2132801
  C        1.8055740     0.4668710     0.0258770
  H        0.4421100    -0.8587610    -0.9561370
  H        0.4659560    -1.0006030     0.7993460
  H       -0.6918870     1.3735120    -0.7679060
  H       -0.6788470     1.2393610     0.9882120
  H        1.8727330     1.1687090    -0.8189890
  H        1.8690250     1.0558810     0.9533790
  H       -2.1500500    -0.9869150     0.9815770
  H        3.6929260    -0.0445400    -0.0102600
units angstrom
no_reorient  #important for SAPT in psi4, default
symmetry c1  #important for SAPT in psi4, default
}

set PROPERTIES_ORIGIN ["COM"]
properties('MP2/aug-cc-pvtz', properties = ['dipole'])
--------------------------------------------------------------------------

    Molecular point group: c1
  Charge       = 0
  Multiplicity = 1
  Basis Set: AUG-CC-PVTZ
    Blend: AUG-CC-PVTZ
  Basis Set: (AUG-CC-PVTZ AUX)
    Blend: AUG-CC-PVTZ-JKFIT

    Orbital Energies [Eh]
    ---------------------

    Doubly Occupied:

       1A    -91.956778     2A    -20.566593     3A    -11.286036
       4A    -11.272623     5A    -11.228027     6A     -8.957465
       7A     -6.638737     8A     -6.637620     9A     -6.636588
      10A     -1.363369    11A     -1.099552    12A     -0.989606
      13A     -0.875954    14A     -0.808091    15A     -0.698726
      16A     -0.671444    17A     -0.607326    18A     -0.592167
      19A     -0.565630    20A     -0.528727    21A     -0.514089
      22A     -0.459306    23A     -0.453655    24A     -0.438870
      25A     -0.363445

  @DF-RHF Final Energy:  -590.70399320443323

   => Energetics <=

    Nuclear Repulsion Energy =            224.2967951041209460
    One-Electron Energy =               -1257.5807299089537992
    Two-Electron Energy =                 442.5799416003995930
    Total Energy =                       -590.7039932044332318
  Basis Set: (AUG-CC-PVTZ AUX)
    Blend: AUG-CC-PVTZ-RI
    Molecular point group: c1

    Geometry (in Angstrom), charge = 0, multiplicity = 1:

       Center              X                  Y                   Z               Mass
    ------------   -----------------  -----------------  -----------------  -----------------
         S           -2.269346235224    -0.146463631511    -0.085850390614    31.972071174400
         O            2.888937764776    -0.477325631511    -0.040820390614    15.994914619570
         C            0.533624764776    -0.247083631511    -0.034843390614    12.000000000000
         C           -0.627365235224     0.584245768489     0.206031709386    12.000000000000
         C            1.852710764776     0.502123368489     0.018628609386    12.000000000000
         H            0.489246764776    -0.823508631511    -0.963385390614     1.007825032230
         H            0.513092764776    -0.965350631511     0.792097609386     1.007825032230
         H           -0.644750235224     1.408764368489    -0.775154390614     1.007825032230
         H           -0.631710235224     1.274613368489     0.980963609386     1.007825032230
         H            1.919869764776     1.203961368489    -0.826237390614     1.007825032230
         H            1.916161764776     1.091133368489     0.946130609386     1.007825032230
         H           -2.102913235224    -0.951662631511     0.974328609386     1.007825032230
         H            3.740062764776    -0.009287631511    -0.017508390614     1.007825032230

  Basis Set: AUG-CC-PVTZ
    Blend: AUG-CC-PVTZ
  Basis Set: (AUG-CC-PVTZ AUX)
    Blend: AUG-CC-PVTZ-JKFIT
	 Reference Energy          =    -590.7039932044332318 [Eh]
	 Singles Energy            =      -0.0000000000000000 [Eh]
	 Same-Spin Energy          =      -0.2490635020171748 [Eh]
	 Opposite-Spin Energy      =      -0.8328622372162968 [Eh]
	 Correlation Energy        =      -1.0819257392334716 [Eh]
	 Total Energy              =    -591.7859189436667293 [Eh]

	 ================> DF-SCS-MP2 Energies <==================
	-----------------------------------------------------------
	 SCS Same-Spin Scale       =       0.3333333333333333 [-]
	 SCS Opposite-Spin Scale   =       1.2000000000000000 [-]
	 SCS Same-Spin Energy      =      -0.0830211673390583 [Eh]
	 SCS Opposite-Spin Energy  =      -0.9994346846595561 [Eh]
	 SCS Correlation Energy    =      -1.0824558519986143 [Eh]
	 SCS Total Energy          =    -591.7864490564318203 [Eh]
	-----------------------------------------------------------

  Dipole Moment: [D]
     X:     1.6286      Y:     1.6171      Z:     0.7572     Total:     2.4167

*** Psi4 exiting successfully. Buy a developer a beer!
