                               Psi4 1.3.2 release

  ==> Input File <==

--------------------------------------------------------------------------
#psi4
#
memory 32 gb

molecule  {
0 1
  S       -2.3164830    -0.1817160    -0.0786020
  O        2.8418010    -0.5125780    -0.0335720
  C        0.4864880    -0.2823360    -0.0275950
  C       -0.7075030     0.6590380     0.0612160
  C        1.8228568     0.4847813     0.0268269
  H        0.4421100    -0.8587610    -0.9561370
  H        0.4659560    -1.0006030     0.7993460
  H       -0.6918870     1.3735120    -0.7679060
  H       -0.6788470     1.2393610     0.9882120
  H        1.8727330     1.1687090    -0.8189890
  H        1.8690250     1.0558810     0.9533790
  H       -2.1500500    -0.9869150     0.9815770
  H        3.6929260    -0.0445400    -0.0102600
units angstrom
no_reorient  #important for SAPT in psi4, default
symmetry c1  #important for SAPT in psi4, default
}

set PROPERTIES_ORIGIN ["COM"]
properties('MP2/aug-cc-pvtz', properties = ['dipole'])
--------------------------------------------------------------------------

    Molecular point group: c1
  Charge       = 0
  Multiplicity = 1
  Basis Set: AUG-CC-PVTZ
    Blend: AUG-CC-PVTZ
  Basis Set: (AUG-CC-PVTZ AUX)
    Blend: AUG-CC-PVTZ-JKFIT

    Orbital Energies [Eh]
    ---------------------

    Doubly Occupied:

       1A    -91.951501     2A    -20.566644     3A    -11.283446
       4A    -11.264403     5A    -11.230475     6A     -8.952659
       7A     -6.634016     8A     -6.632998     9A     -6.631973
      10A     -1.363180    11A     -1.084999    12A     -0.984678
      13A     -0.870800    14A     -0.812021    15A     -0.695835
      16A     -0.672527    17A     -0.610281    18A     -0.588034
      19A     -0.545777    20A     -0.531100    21A     -0.508017
      22A     -0.490464    23A     -0.456484    24A     -0.444287
      25A     -0.356148

  @DF-RHF Final Energy:  -590.73650832420572

   => Energetics <=

    Nuclear Repulsion Energy =            223.2392608609646345
    One-Electron Energy =               -1255.6260427223248826
    Two-Electron Energy =                 441.6502735371546464
    Total Energy =                       -590.7365083242057153
  Basis Set: (AUG-CC-PVTZ AUX)
    Blend: AUG-CC-PVTZ-RI
    Molecular point group: c1

    Geometry (in Angstrom), charge = 0, multiplicity = 1:

       Center              X                  Y                   Z               Mass
    ------------   -----------------  -----------------  -----------------  -----------------
         S           -2.267296694331    -0.163148035580    -0.066146179417    31.972071174400
         O            2.890987305669    -0.494010035580    -0.021116179417    15.994914619570
         C            0.535674305669    -0.263768035580    -0.015139179417    12.000000000000
         C           -0.658316694331     0.677605964420     0.073671820583    12.000000000000
         C            1.872043105669     0.503349264420     0.039282720583    12.000000000000
         H            0.491296305669    -0.840193035580    -0.943681179417     1.007825032230
         H            0.515142305669    -0.982035035580     0.811801820583     1.007825032230
         H           -0.642700694331     1.392079964420    -0.755450179417     1.007825032230
         H           -0.629660694331     1.257928964420     1.000667820583     1.007825032230
         H            1.921919305669     1.187276964420    -0.806533179417     1.007825032230
         H            1.918211305669     1.074448964420     0.965834820583     1.007825032230
         H           -2.100863694331    -0.968347035580     0.994032820583     1.007825032230
         H            3.742112305669    -0.025972035580     0.002195820583     1.007825032230

  Basis Set: AUG-CC-PVTZ
    Blend: AUG-CC-PVTZ
  Basis Set: (AUG-CC-PVTZ AUX)
    Blend: AUG-CC-PVTZ-JKFIT
	 Reference Energy          =    -590.7365083242057153 [Eh]
	 Singles Energy            =      -0.0000000000000000 [Eh]
	 Same-Spin Energy          =      -0.2472360522522768 [Eh]
	 Opposite-Spin Energy      =      -0.8296609925138650 [Eh]
	 Correlation Energy        =      -1.0768970447661419 [Eh]
	 Total Energy              =    -591.8134053689718712 [Eh]

	 ================> DF-SCS-MP2 Energies <==================
	-----------------------------------------------------------
	 SCS Same-Spin Scale       =       0.3333333333333333 [-]
	 SCS Opposite-Spin Scale   =       1.2000000000000000 [-]
	 SCS Same-Spin Energy      =      -0.0824120174174256 [Eh]
	 SCS Opposite-Spin Energy  =      -0.9955931910166380 [Eh]
	 SCS Correlation Energy    =      -1.0780052084340637 [Eh]
	 SCS Total Energy          =    -591.8145135326398076 [Eh]
	-----------------------------------------------------------

  Dipole Moment: [D]
     X:     1.7155      Y:     1.7484      Z:     0.7020     Total:     2.5480

*** Psi4 exiting successfully. Buy a developer a beer!
