                               Psi4 1.3.2 release

  ==> Input File <==

--------------------------------------------------------------------------
#psi4
#
memory 32 gb

molecule  {
0 1
  S       -2.2535315    -0.2531305    -0.2437064
  O        2.8418010    -0.5125780    -0.0335720
  C        0.4864880    -0.2823360    -0.0275950
  C       -0.7075030     0.6590380     0.0612160
  C        1.8055740     0.4668710     0.0258770
  H        0.4421100    -0.8587610    -0.9561370
  H        0.4659560    -1.0006030     0.7993460
  H       -0.6918870     1.3735120    -0.7679060
  H       -0.6788470     1.2393610     0.9882120
  H        1.8727330     1.1687090    -0.8189890
  H        1.8690250     1.0558810     0.9533790
  H       -2.1500500    -0.9869150     0.9815770
  H        3.6929260    -0.0445400    -0.0102600
units angstrom
no_reorient  #important for SAPT in psi4, default
symmetry c1  #important for SAPT in psi4, default
}

set PROPERTIES_ORIGIN ["COM"]
properties('MP2/aug-cc-pvtz', properties = ['dipole'])
--------------------------------------------------------------------------

    Molecular point group: c1
  Charge       = 0
  Multiplicity = 1
  Basis Set: AUG-CC-PVTZ
    Blend: AUG-CC-PVTZ
  Basis Set: (AUG-CC-PVTZ AUX)
    Blend: AUG-CC-PVTZ-JKFIT

    Orbital Energies [Eh]
    ---------------------

    Doubly Occupied:

       1A    -91.959329     2A    -20.564743     3A    -11.282711
       4A    -11.264842     5A    -11.227739     6A     -8.958504
       7A     -6.639655     8A     -6.638696     9A     -6.637740
      10A     -1.361403    11A     -1.087220    12A     -0.981989
      13A     -0.862728    14A     -0.809823    15A     -0.694876
      16A     -0.671863    17A     -0.608823    18A     -0.588663
      19A     -0.541470    20A     -0.523198    21A     -0.506834
      22A     -0.483375    23A     -0.453251    24A     -0.449889
      25A     -0.357120

  @DF-RHF Final Energy:  -590.72953119831800

   => Energetics <=

    Nuclear Repulsion Energy =            223.9017511353939938
    One-Electron Energy =               -1256.9495946974332128
    Two-Electron Energy =                 442.3183123637210770
    Total Energy =                       -590.7295311983180000
  Basis Set: (AUG-CC-PVTZ AUX)
    Blend: AUG-CC-PVTZ-RI
    Molecular point group: c1

    Geometry (in Angstrom), charge = 0, multiplicity = 1:

       Center              X                  Y                   Z               Mass
    ------------   -----------------  -----------------  -----------------  -----------------
         S           -2.223961671119    -0.207416992673    -0.173767669247    31.972071174400
         O            2.871370828881    -0.466864492673     0.036366730753    15.994914619570
         C            0.516057828881    -0.236622492673     0.042343730753    12.000000000000
         C           -0.677933171119     0.704751507327     0.131154730753    12.000000000000
         C            1.835143828881     0.512584507327     0.095815730753    12.000000000000
         H            0.471679828881    -0.813047492673    -0.886198269247     1.007825032230
         H            0.495525828881    -0.954889492673     0.869284730753     1.007825032230
         H           -0.662317171119     1.419225507327    -0.697967269247     1.007825032230
         H           -0.649277171119     1.285074507327     1.058150730753     1.007825032230
         H            1.902302828881     1.214422507327    -0.749050269247     1.007825032230
         H            1.898594828881     1.101594507327     1.023317730753     1.007825032230
         H           -2.120480171119    -0.941201492673     1.051515730753     1.007825032230
         H            3.722495828881     0.001173507327     0.059678730753     1.007825032230

  Basis Set: AUG-CC-PVTZ
    Blend: AUG-CC-PVTZ
  Basis Set: (AUG-CC-PVTZ AUX)
    Blend: AUG-CC-PVTZ-JKFIT
	 Reference Energy          =    -590.7295311983180000 [Eh]
	 Singles Energy            =      -0.0000000000000000 [Eh]
	 Same-Spin Energy          =      -0.2477487101890078 [Eh]
	 Opposite-Spin Energy      =      -0.8309730964054263 [Eh]
	 Correlation Energy        =      -1.0787218065944340 [Eh]
	 Total Energy              =    -591.8082530049124443 [Eh]

	 ================> DF-SCS-MP2 Energies <==================
	-----------------------------------------------------------
	 SCS Same-Spin Scale       =       0.3333333333333333 [-]
	 SCS Opposite-Spin Scale   =       1.2000000000000000 [-]
	 SCS Same-Spin Energy      =      -0.0825829033963359 [Eh]
	 SCS Opposite-Spin Energy  =      -0.9971677156865115 [Eh]
	 SCS Correlation Energy    =      -1.0797506190828474 [Eh]
	 SCS Total Energy          =    -591.8092818174008016 [Eh]
	-----------------------------------------------------------

  Dipole Moment: [D]
     X:     1.5400      Y:     1.8143      Z:     0.7858     Total:     2.5062

*** Psi4 exiting successfully. Buy a developer a beer!
