                               Psi4 1.3.2 release

  ==> Input File <==

--------------------------------------------------------------------------
#psi4
#
memory 32 gb

molecule  {
0 1
  S       -2.3164830    -0.1817160    -0.0786020
  O        2.8418010    -0.5125780    -0.0335720
  C        0.4864880    -0.2823360    -0.0275950
  C       -0.7224442     0.6937293     0.0101046
  C        1.8055740     0.4668710     0.0258770
  H        0.4421100    -0.8587610    -0.9561370
  H        0.4659560    -1.0006030     0.7993460
  H       -0.6918870     1.3735120    -0.7679060
  H       -0.6788470     1.2393610     0.9882120
  H        1.8727330     1.1687090    -0.8189890
  H        1.8690250     1.0558810     0.9533790
  H       -2.1500500    -0.9869150     0.9815770
  H        3.6929260    -0.0445400    -0.0102600
units angstrom
no_reorient  #important for SAPT in psi4, default
symmetry c1  #important for SAPT in psi4, default
}

set PROPERTIES_ORIGIN ["COM"]
properties('MP2/aug-cc-pvtz', properties = ['dipole'])
--------------------------------------------------------------------------

    Molecular point group: c1
  Charge       = 0
  Multiplicity = 1
  Basis Set: AUG-CC-PVTZ
    Blend: AUG-CC-PVTZ
  Basis Set: (AUG-CC-PVTZ AUX)
    Blend: AUG-CC-PVTZ-JKFIT

    Orbital Energies [Eh]
    ---------------------

    Doubly Occupied:

       1A    -91.951364     2A    -20.565692     3A    -11.284041
       4A    -11.264337     5A    -11.231672     6A     -8.952563
       7A     -6.633937     8A     -6.632970     9A     -6.631934
      10A     -1.362365    11A     -1.084137    12A     -0.987214
      13A     -0.869556    14A     -0.815348    15A     -0.696666
      16A     -0.671183    17A     -0.609890    18A     -0.590297
      19A     -0.543825    20A     -0.534387    21A     -0.506844
      22A     -0.498577    23A     -0.452263    24A     -0.442750
      25A     -0.354341

  @DF-RHF Final Energy:  -590.73324523350220

   => Energetics <=

    Nuclear Repulsion Energy =            223.1958429561494768
    One-Electron Energy =               -1255.5218710032568197
    Two-Electron Energy =                 441.5927828136050834
    Total Energy =                       -590.7332452335022026
  Basis Set: (AUG-CC-PVTZ AUX)
    Blend: AUG-CC-PVTZ-RI
    Molecular point group: c1

    Geometry (in Angstrom), charge = 0, multiplicity = 1:

       Center              X                  Y                   Z               Mass
    ------------   -----------------  -----------------  -----------------  -----------------
         S           -2.263094915136    -0.165336157995    -0.059357758140    31.972071174400
         O            2.895189084864    -0.496198157995    -0.014327758140    15.994914619570
         C            0.539876084864    -0.265956157995    -0.008350758140    12.000000000000
         C           -0.669056115136     0.710109142005     0.029348841860    12.000000000000
         C            1.858962084864     0.483250842005     0.045121241860    12.000000000000
         H            0.495498084864    -0.842381157995    -0.936892758140     1.007825032230
         H            0.519344084864    -0.984223157995     0.818590241860     1.007825032230
         H           -0.638498915136     1.389891842005    -0.748661758140     1.007825032230
         H           -0.625458915136     1.255740842005     1.007456241860     1.007825032230
         H            1.926121084864     1.185088842005    -0.799744758140     1.007825032230
         H            1.922413084864     1.072260842005     0.972623241860     1.007825032230
         H           -2.096661915136    -0.970535157995     1.000821241860     1.007825032230
         H            3.746314084864    -0.028160157995     0.008984241860     1.007825032230

  Basis Set: AUG-CC-PVTZ
    Blend: AUG-CC-PVTZ
  Basis Set: (AUG-CC-PVTZ AUX)
    Blend: AUG-CC-PVTZ-JKFIT
	 Reference Energy          =    -590.7332452335022026 [Eh]
	 Singles Energy            =      -0.0000000000000000 [Eh]
	 Same-Spin Energy          =      -0.2469975757238399 [Eh]
	 Opposite-Spin Energy      =      -0.8293819471362147 [Eh]
	 Correlation Energy        =      -1.0763795228600546 [Eh]
	 Total Energy              =    -591.8096247563622683 [Eh]

	 ================> DF-SCS-MP2 Energies <==================
	-----------------------------------------------------------
	 SCS Same-Spin Scale       =       0.3333333333333333 [-]
	 SCS Opposite-Spin Scale   =       1.2000000000000000 [-]
	 SCS Same-Spin Energy      =      -0.0823325252412800 [Eh]
	 SCS Opposite-Spin Energy  =      -0.9952583365634576 [Eh]
	 SCS Correlation Energy    =      -1.0775908618047376 [Eh]
	 SCS Total Energy          =    -591.8108360953069678 [Eh]
	-----------------------------------------------------------

  Dipole Moment: [D]
     X:     1.6892      Y:     1.7406      Z:     0.6943     Total:     2.5229

*** Psi4 exiting successfully. Buy a developer a beer!
