                               Psi4 1.3.2 release

  ==> Input File <==

--------------------------------------------------------------------------
#psi4
#
memory 32 gb

molecule  {
0 1
  S       -2.3618062    -0.1010901     0.0880343
  O        2.8418010    -0.5125780    -0.0335720
  C        0.4864880    -0.2823360    -0.0275950
  C       -0.7075030     0.6590380     0.0612160
  C        1.8055740     0.4668710     0.0258770
  H        0.4421100    -0.8587610    -0.9561370
  H        0.4659560    -1.0006030     0.7993460
  H       -0.6918870     1.3735120    -0.7679060
  H       -0.6788470     1.2393610     0.9882120
  H        1.8727330     1.1687090    -0.8189890
  H        1.8690250     1.0558810     0.9533790
  H       -2.1500500    -0.9869150     0.9815770
  H        3.6929260    -0.0445400    -0.0102600
units angstrom
no_reorient  #important for SAPT in psi4, default
symmetry c1  #important for SAPT in psi4, default
}

set PROPERTIES_ORIGIN ["COM"]
properties('MP2/aug-cc-pvtz', properties = ['dipole'])
--------------------------------------------------------------------------

    Molecular point group: c1
  Charge       = 0
  Multiplicity = 1
  Basis Set: AUG-CC-PVTZ
    Blend: AUG-CC-PVTZ
  Basis Set: (AUG-CC-PVTZ AUX)
    Blend: AUG-CC-PVTZ-JKFIT

    Orbital Energies [Eh]
    ---------------------

    Doubly Occupied:

       1A    -91.945968     2A    -20.566890     3A    -11.285942
       4A    -11.265105     5A    -11.232304     6A     -8.949036
       7A     -6.630621     8A     -6.629388     9A     -6.628312
      10A     -1.363600    11A     -1.088188    12A     -0.992673
      13A     -0.875844    14A     -0.813960    15A     -0.697864
      16A     -0.672265    17A     -0.606984    18A     -0.592404
      19A     -0.557535    20A     -0.532107    21A     -0.509546
      22A     -0.496404    23A     -0.453466    24A     -0.443219
      25A     -0.355099

  @DF-RHF Final Energy:  -590.73402709623247

   => Energetics <=

    Nuclear Repulsion Energy =            223.2144140014762570
    One-Electron Energy =               -1255.5274354525070066
    Two-Electron Energy =                 441.5789943547980556
    Total Energy =                       -590.7340270962325803
  Basis Set: (AUG-CC-PVTZ AUX)
    Blend: AUG-CC-PVTZ-RI
    Molecular point group: c1

    Geometry (in Angstrom), charge = 0, multiplicity = 1:

       Center              X                  Y                   Z               Mass
    ------------   -----------------  -----------------  -----------------  -----------------
         S           -2.294620572077    -0.108197068118     0.042722732161    31.972071174400
         O            2.908986627923    -0.519684968118    -0.078883567839    15.994914619570
         C            0.553673627923    -0.289442968118    -0.072906567839    12.000000000000
         C           -0.640317372077     0.651931031882     0.015904432161    12.000000000000
         C            1.872759627923     0.459764031882    -0.019434567839    12.000000000000
         H            0.509295627923    -0.865867968118    -1.001448567839     1.007825032230
         H            0.533141627923    -1.007709968118     0.754034432161     1.007825032230
         H           -0.624701372077     1.366405031882    -0.813217567839     1.007825032230
         H           -0.611661372077     1.232254031882     0.942900432161     1.007825032230
         H            1.939918627923     1.161602031882    -0.864300567839     1.007825032230
         H            1.936210627923     1.048774031882     0.908067432161     1.007825032230
         H           -2.082864372077    -0.994021968118     0.936265432161     1.007825032230
         H            3.760111627923    -0.051646968118    -0.055571567839     1.007825032230

  Basis Set: AUG-CC-PVTZ
    Blend: AUG-CC-PVTZ
  Basis Set: (AUG-CC-PVTZ AUX)
    Blend: AUG-CC-PVTZ-JKFIT
	 Reference Energy          =    -590.7340270962324666 [Eh]
	 Singles Energy            =      -0.0000000000000000 [Eh]
	 Same-Spin Energy          =      -0.2471281110488832 [Eh]
	 Opposite-Spin Energy      =      -0.8290495731116221 [Eh]
	 Correlation Energy        =      -1.0761776841605053 [Eh]
	 Total Energy              =    -591.8102047803929509 [Eh]

	 ================> DF-SCS-MP2 Energies <==================
	-----------------------------------------------------------
	 SCS Same-Spin Scale       =       0.3333333333333333 [-]
	 SCS Opposite-Spin Scale   =       1.2000000000000000 [-]
	 SCS Same-Spin Energy      =      -0.0823760370162944 [Eh]
	 SCS Opposite-Spin Energy  =      -0.9948594877339465 [Eh]
	 SCS Correlation Energy    =      -1.0772355247502410 [Eh]
	 SCS Total Energy          =    -591.8112626209826885 [Eh]
	-----------------------------------------------------------

  Dipole Moment: [D]
     X:     1.8122      Y:     1.6350      Z:     0.5811     Total:     2.5089

*** Psi4 exiting successfully. Buy a developer a beer!
