                               Psi4 1.3.2 release

  ==> Input File <==

--------------------------------------------------------------------------
#psi4
#
memory 32 gb

molecule  {
0 1
  S       -2.3071990    -0.1942805    -0.1062749
  O        2.8418010    -0.5125780    -0.0335720
  C        0.4864880    -0.2823360    -0.0275950
  C       -0.7075030     0.6590380     0.0612160
  C        1.8055740     0.4668710     0.0258770
  H        0.4421100    -0.8587610    -0.9561370
  H        0.4659560    -1.0006030     0.7993460
  H       -0.6918870     1.3735120    -0.7679060
  H       -0.6788470     1.2393610     0.9882120
  H        1.8727330     1.1687090    -0.8189890
  H        1.8690250     1.0558810     0.9533790
  H       -2.1500500    -0.9869150     0.9815770
  H        3.6929260    -0.0445400    -0.0102600
units angstrom
no_reorient  #important for SAPT in psi4, default
symmetry c1  #important for SAPT in psi4, default
}

set PROPERTIES_ORIGIN ["COM"]
properties('MP2/aug-cc-pvtz', properties = ['dipole'])
--------------------------------------------------------------------------

    Molecular point group: c1
  Charge       = 0
  Multiplicity = 1
  Basis Set: AUG-CC-PVTZ
    Blend: AUG-CC-PVTZ
  Basis Set: (AUG-CC-PVTZ AUX)
    Blend: AUG-CC-PVTZ-JKFIT

    Orbital Energies [Eh]
    ---------------------

    Doubly Occupied:

       1A    -91.953124     2A    -20.565665     3A    -11.284116
       4A    -11.265042     5A    -11.229559     6A     -8.953937
       7A     -6.635256     8A     -6.634260     9A     -6.633245
      10A     -1.362344    11A     -1.087370    12A     -0.986391
      13A     -0.868658    14A     -0.811442    15A     -0.696085
      16A     -0.672056    17A     -0.608740    18A     -0.590004
      19A     -0.545536    20A     -0.529992    21A     -0.507943
      22A     -0.490831    23A     -0.452518    24A     -0.447380
      25A     -0.356895

  @DF-RHF Final Energy:  -590.73673559444035

   => Energetics <=

    Nuclear Repulsion Energy =            223.5692369690559929
    One-Electron Energy =               -1256.2751653563270793
    Two-Electron Energy =                 441.9691927928308246
    Total Energy =                       -590.7367355944402334
  Basis Set: (AUG-CC-PVTZ AUX)
    Blend: AUG-CC-PVTZ-RI
    Molecular point group: c1

    Geometry (in Angstrom), charge = 0, multiplicity = 1:

       Center              X                  Y                   Z               Mass
    ------------   -----------------  -----------------  -----------------  -----------------
         S           -2.258984502557    -0.169012117653    -0.084081355204    31.972071174400
         O            2.890015497443    -0.487309617653    -0.011378455204    15.994914619570
         C            0.534702497443    -0.257067617653    -0.005401455204    12.000000000000
         C           -0.659288502557     0.684306382347     0.083409544796    12.000000000000
         C            1.853788497443     0.492139382347     0.048070544796    12.000000000000
         H            0.490324497443    -0.833492617653    -0.933943455204     1.007825032230
         H            0.514170497443    -0.975334617653     0.821539544796     1.007825032230
         H           -0.643672502557     1.398780382347    -0.745712455204     1.007825032230
         H           -0.630632502557     1.264629382347     1.010405544796     1.007825032230
         H            1.920947497443     1.193977382347    -0.796795455204     1.007825032230
         H            1.917239497443     1.081149382347     0.975572544796     1.007825032230
         H           -2.101835502557    -0.961646617653     1.003770544796     1.007825032230
         H            3.741140497443    -0.019271617653     0.011933544796     1.007825032230

  Basis Set: AUG-CC-PVTZ
    Blend: AUG-CC-PVTZ
  Basis Set: (AUG-CC-PVTZ AUX)
    Blend: AUG-CC-PVTZ-JKFIT
	 Reference Energy          =    -590.7367355944403471 [Eh]
	 Singles Energy            =      -0.0000000000000000 [Eh]
	 Same-Spin Energy          =      -0.2473511870165607 [Eh]
	 Opposite-Spin Energy      =      -0.8297718559403842 [Eh]
	 Correlation Energy        =      -1.0771230429569449 [Eh]
	 Total Energy              =    -591.8138586373972885 [Eh]

	 ================> DF-SCS-MP2 Energies <==================
	-----------------------------------------------------------
	 SCS Same-Spin Scale       =       0.3333333333333333 [-]
	 SCS Opposite-Spin Scale   =       1.2000000000000000 [-]
	 SCS Same-Spin Energy      =      -0.0824503956721869 [Eh]
	 SCS Opposite-Spin Energy  =      -0.9957262271284609 [Eh]
	 SCS Correlation Energy    =      -1.0781766228006477 [Eh]
	 SCS Total Energy          =    -591.8149122172410443 [Eh]
	-----------------------------------------------------------

  Dipole Moment: [D]
     X:     1.6515      Y:     1.7453      Z:     0.7178     Total:     2.5077

*** Psi4 exiting successfully. Buy a developer a beer!
