                               Psi4 1.3.2 release

  ==> Input File <==

--------------------------------------------------------------------------
#psi4
#
memory 32 gb

molecule  {
0 1
  S       -2.3486919    -0.1289363     0.0324312
  O        2.8418010    -0.5125780    -0.0335720
  C        0.4864880    -0.2823360    -0.0275950
  C       -0.7075030     0.6590380     0.0612160
  C        1.8055740     0.4668710     0.0258770
  H        0.4421100    -0.8587610    -0.9561370
  H        0.4659560    -1.0006030     0.7993460
  H       -0.6918870     1.3735120    -0.7679060
  H       -0.6788470     1.2393610     0.9882120
  H        1.8727330     1.1687090    -0.8189890
  H        1.8690250     1.0558810     0.9533790
  H       -2.1500500    -0.9869150     0.9815770
  H        3.6929260    -0.0445400    -0.0102600
units angstrom
no_reorient  #important for SAPT in psi4, default
symmetry c1  #important for SAPT in psi4, default
}

set PROPERTIES_ORIGIN ["COM"]
properties('MP2/aug-cc-pvtz', properties = ['dipole'])
--------------------------------------------------------------------------

    Molecular point group: c1
  Charge       = 0
  Multiplicity = 1
  Basis Set: AUG-CC-PVTZ
    Blend: AUG-CC-PVTZ
  Basis Set: (AUG-CC-PVTZ AUX)
    Blend: AUG-CC-PVTZ-JKFIT

    Orbital Energies [Eh]
    ---------------------

    Doubly Occupied:

       1A    -91.947746     2A    -20.566559     3A    -11.285451
       4A    -11.265146     5A    -11.231513     6A     -8.950212
       7A     -6.631723     8A     -6.630572     9A     -6.629510
      10A     -1.363258    11A     -1.087918    12A     -0.990954
      13A     -0.874037    14A     -0.813265    15A     -0.697367
      16A     -0.672204    17A     -0.607700    18A     -0.591662
      19A     -0.553897    20A     -0.532175    21A     -0.509092
      22A     -0.495219    23A     -0.453169    24A     -0.444187
      25A     -0.355808

  @DF-RHF Final Energy:  -590.73599460409173

   => Energetics <=

    Nuclear Repulsion Energy =            223.3074781139647769
    One-Electron Energy =               -1255.7262602734267603
    Two-Electron Energy =                 441.6827875553701119
    Total Energy =                       -590.7359946040917293
  Basis Set: (AUG-CC-PVTZ AUX)
    Blend: AUG-CC-PVTZ-RI
    Molecular point group: c1

    Geometry (in Angstrom), charge = 0, multiplicity = 1:

       Center              X                  Y                   Z               Mass
    ------------   -----------------  -----------------  -----------------  -----------------
         S           -2.286062321398    -0.126369197783     0.006436749046    31.972071174400
         O            2.904430578602    -0.510010897783    -0.059566450954    15.994914619570
         C            0.549117578602    -0.279768897783    -0.053589450954    12.000000000000
         C           -0.644873421398     0.661605102217     0.035221549046    12.000000000000
         C            1.868203578602     0.469438102217    -0.000117450954    12.000000000000
         H            0.504739578602    -0.856193897783    -0.982131450954     1.007825032230
         H            0.528585578602    -0.998035897783     0.773351549046     1.007825032230
         H           -0.629257421398     1.376079102217    -0.793900450954     1.007825032230
         H           -0.616217421398     1.241928102217     0.962217549046     1.007825032230
         H            1.935362578602     1.171276102217    -0.844983450954     1.007825032230
         H            1.931654578602     1.058448102217     0.927384549046     1.007825032230
         H           -2.087420421398    -0.984347897783     0.955582549046     1.007825032230
         H            3.755555578602    -0.041972897783    -0.036254450954     1.007825032230

  Basis Set: AUG-CC-PVTZ
    Blend: AUG-CC-PVTZ
  Basis Set: (AUG-CC-PVTZ AUX)
    Blend: AUG-CC-PVTZ-JKFIT
	 Reference Energy          =    -590.7359946040917293 [Eh]
	 Singles Energy            =      -0.0000000000000000 [Eh]
	 Same-Spin Energy          =      -0.2471547899511622 [Eh]
	 Opposite-Spin Energy      =      -0.8291560188436535 [Eh]
	 Correlation Energy        =      -1.0763108087948157 [Eh]
	 Total Energy              =    -591.8123054128865306 [Eh]

	 ================> DF-SCS-MP2 Energies <==================
	-----------------------------------------------------------
	 SCS Same-Spin Scale       =       0.3333333333333333 [-]
	 SCS Opposite-Spin Scale   =       1.2000000000000000 [-]
	 SCS Same-Spin Energy      =      -0.0823849299837207 [Eh]
	 SCS Opposite-Spin Energy  =      -0.9949872226123841 [Eh]
	 SCS Correlation Energy    =      -1.0773721525961049 [Eh]
	 SCS Total Energy          =    -591.8133667566878557 [Eh]
	-----------------------------------------------------------

  Dipole Moment: [D]
     X:     1.7679      Y:     1.6684      Z:     0.6257     Total:     2.5101

*** Psi4 exiting successfully. Buy a developer a beer!
