                               Psi4 1.4a3.dev225

  ==> Input File <==

--------------------------------------------------------------------------
#psi4
#
memory 32 gb

molecule  {
0 1
  S       -2.3164950    -0.1817520    -0.0785600
  O        2.8418240    -0.5125870    -0.0336710
  C        0.4864850    -0.2823110    -0.0275730
  C       -0.7075220     0.6590550     0.0609310
  C        1.8055900     0.4668570     0.0262110
  H        0.4423910    -0.8587120    -0.9561410
  H        0.4657080    -1.0005910     0.7993450
  H       -0.6919970     1.3731860    -0.7684900
  H       -0.6788530     1.2397730     0.9876800
  H        1.8727880     1.1690760    -0.8183300
  H        1.8691150     1.0554390     0.9539770
  H       -2.1500900    -0.9865220     0.9819500
  H        3.6754359    -0.0541569    -0.0115401
units angstrom
no_reorient  #important for SAPT in psi4, default
symmetry c1  #important for SAPT in psi4, default
}

set PROPERTIES_ORIGIN ["COM"]
properties('MP2/aug-cc-pvtz', properties = ['dipole'])
--------------------------------------------------------------------------

    Molecular point group: c1
  Charge       = 0
  Multiplicity = 1
  Basis Set: AUG-CC-PVTZ
    Blend: AUG-CC-PVTZ
  Basis Set: (AUG-CC-PVTZ AUX)
    Blend: AUG-CC-PVTZ-JKFIT

    Orbital Energies [Eh]
    ---------------------

    Doubly Occupied:

       1A    -91.952013     2A    -20.563985     3A    -11.284631
       4A    -11.265128     5A    -11.230045     6A     -8.953164
       7A     -6.634520     8A     -6.633502     9A     -6.632476
      10A     -1.367054    11A     -1.087806    12A     -0.988123
      13A     -0.870703    14A     -0.811945    15A     -0.700608
      16A     -0.672286    17A     -0.608859    18A     -0.590742
      19A     -0.547371    20A     -0.531400    21A     -0.508530
      22A     -0.492208    23A     -0.453095    24A     -0.446930
      25A     -0.356815

  @DF-RHF Final Energy:  -590.73803484387327

   => Energetics <=

    Nuclear Repulsion Energy =            223.6316088654058376
    One-Electron Energy =               -1256.3714092938510021
    Two-Electron Energy =                 442.0017655845717854
    Total Energy =                       -590.7380348438732653
  Basis Set: (AUG-CC-PVTZ AUX)
    Blend: AUG-CC-PVTZ-RI
    Molecular point group: c1

    Geometry (in Angstrom), charge = 0, multiplicity = 1:

       Center              X                  Y                   Z               Mass
    ------------   -----------------  -----------------  -----------------  -----------------
         S           -2.264862892063    -0.160738017160    -0.065978517617    31.972071174400
         O            2.893456107937    -0.491573017160    -0.021089517617    15.994914619570
         C            0.538117107937    -0.261297017160    -0.014991517617    12.000000000000
         C           -0.655889892063     0.680068982840     0.073512482383    12.000000000000
         C            1.857222107937     0.487870982840     0.038792482383    12.000000000000
         H            0.494023107937    -0.837698017160    -0.943559517617     1.007825032230
         H            0.517340107937    -0.979577017160     0.811926482383     1.007825032230
         H           -0.640364892063     1.394199982840    -0.755908517617     1.007825032230
         H           -0.627220892063     1.260786982840     1.000261482383     1.007825032230
         H            1.924420107937     1.190089982840    -0.805748517617     1.007825032230
         H            1.920747107937     1.076452982840     0.966558482383     1.007825032230
         H           -2.098457892063    -0.965508017160     0.994531482383     1.007825032230
         H            3.727068007937    -0.033142917160     0.001041382383     1.007825032230

  Basis Set: AUG-CC-PVTZ
    Blend: AUG-CC-PVTZ
  Basis Set: (AUG-CC-PVTZ AUX)
    Blend: AUG-CC-PVTZ-JKFIT
	 Reference Energy          =    -590.7380348438732653 [Eh]
	 Singles Energy            =      -0.0000000000000000 [Eh]
	 Same-Spin Energy          =      -0.2470691053388919 [Eh]
	 Opposite-Spin Energy      =      -0.8289934703764087 [Eh]
	 Correlation Energy        =      -1.0760625757153006 [Eh]
	 Total Energy              =    -591.8140974195886201 [Eh]

	 ================> DF-SCS-MP2 Energies <==================
	-----------------------------------------------------------
	 SCS Same-Spin Scale       =       0.3333333333333333 [-]
	 SCS Opposite-Spin Scale   =       1.2000000000000000 [-]
	 SCS Same-Spin Energy      =      -0.0823563684462973 [Eh]
	 SCS Opposite-Spin Energy  =      -0.9947921644516904 [Eh]
	 SCS Correlation Energy    =      -1.0771485328979877 [Eh]
	 SCS Total Energy          =    -591.8151833767713015 [Eh]
	-----------------------------------------------------------

  Dipole Moment: [D]
     X:     1.6586      Y:     1.7266      Z:     0.7005     Total:     2.4946

*** Psi4 exiting successfully. Buy a developer a beer!
