                               Psi4 1.4a3.dev225

  ==> Input File <==

--------------------------------------------------------------------------
#psi4
#
memory 32 gb

molecule  {
0 1
  S       -2.3164950    -0.1817520    -0.0785600
  O        2.8418240    -0.5125870    -0.0336710
  C        0.4864850    -0.2823110    -0.0275730
  C       -0.7075220     0.6590550     0.0609310
  C        1.8055900     0.4668570     0.0262110
  H        0.4423910    -0.8587120    -0.9561410
  H        0.4657080    -1.0005910     0.7993450
  H       -0.6919970     1.3731860    -0.7684900
  H       -0.6788530     1.2397730     0.9876800
  H        1.8727880     1.1690760    -0.8183300
  H        1.8691150     1.0554390     0.9539770
  H       -2.1525706    -0.9745253     0.9661410
  H        3.6929560    -0.0445220    -0.0110750
units angstrom
no_reorient  #important for SAPT in psi4, default
symmetry c1  #important for SAPT in psi4, default
}

set PROPERTIES_ORIGIN ["COM"]
properties('MP2/aug-cc-pvtz', properties = ['dipole'])
--------------------------------------------------------------------------

    Molecular point group: c1
  Charge       = 0
  Multiplicity = 1
  Basis Set: AUG-CC-PVTZ
    Blend: AUG-CC-PVTZ
  Basis Set: (AUG-CC-PVTZ AUX)
    Blend: AUG-CC-PVTZ-JKFIT

    Orbital Energies [Eh]
    ---------------------

    Doubly Occupied:

       1A    -91.950367     2A    -20.565851     3A    -11.284405
       4A    -11.265015     5A    -11.229965     6A     -8.952046
       7A     -6.633455     8A     -6.632385     9A     -6.631344
      10A     -1.362528    11A     -1.087770    12A     -0.988423
      13A     -0.871240    14A     -0.812218    15A     -0.696414
      16A     -0.672136    17A     -0.609105    18A     -0.590432
      19A     -0.547828    20A     -0.531603    21A     -0.508197
      22A     -0.492388    23A     -0.452616    24A     -0.446930
      25A     -0.356800

  @DF-RHF Final Energy:  -590.73719780868748

   => Energetics <=

    Nuclear Repulsion Energy =            223.6197139178117652
    One-Electron Energy =               -1256.3709000214607840
    Two-Electron Energy =                 442.0139882949614503
    Total Energy =                       -590.7371978086874833
  Basis Set: (AUG-CC-PVTZ AUX)
    Blend: AUG-CC-PVTZ-RI
    Molecular point group: c1

    Geometry (in Angstrom), charge = 0, multiplicity = 1:

       Center              X                  Y                   Z               Mass
    ------------   -----------------  -----------------  -----------------  -----------------
         S           -2.265027591105    -0.160974906935    -0.065810485061    31.972071174400
         O            2.893291408895    -0.491809906935    -0.020921485061    15.994914619570
         C            0.537952408895    -0.261533906935    -0.014823485061    12.000000000000
         C           -0.656054591105     0.679832093065     0.073680514939    12.000000000000
         C            1.857057408895     0.487634093065     0.038960514939    12.000000000000
         H            0.493858408895    -0.837934906935    -0.943391485061     1.007825032230
         H            0.517175408895    -0.979813906935     0.812094514939     1.007825032230
         H           -0.640529591105     1.393963093065    -0.755740485061     1.007825032230
         H           -0.627385591105     1.260550093065     1.000429514939     1.007825032230
         H            1.924255408895     1.189853093065    -0.805580485061     1.007825032230
         H            1.920582408895     1.076216093065     0.966726514939     1.007825032230
         H           -2.101103191105    -0.953748206935     0.978890514939     1.007825032230
         H            3.744423408895    -0.023744906935     0.001674514939     1.007825032230

  Basis Set: AUG-CC-PVTZ
    Blend: AUG-CC-PVTZ
  Basis Set: (AUG-CC-PVTZ AUX)
    Blend: AUG-CC-PVTZ-JKFIT
	 Reference Energy          =    -590.7371978086874833 [Eh]
	 Singles Energy            =      -0.0000000000000000 [Eh]
	 Same-Spin Energy          =      -0.2473024721942046 [Eh]
	 Opposite-Spin Energy      =      -0.8295087403356362 [Eh]
	 Correlation Energy        =      -1.0768112125298408 [Eh]
	 Total Energy              =    -591.8140090212173163 [Eh]

	 ================> DF-SCS-MP2 Energies <==================
	-----------------------------------------------------------
	 SCS Same-Spin Scale       =       0.3333333333333333 [-]
	 SCS Opposite-Spin Scale   =       1.2000000000000000 [-]
	 SCS Same-Spin Energy      =      -0.0824341573980682 [Eh]
	 SCS Opposite-Spin Energy  =      -0.9954104884027634 [Eh]
	 SCS Correlation Energy    =      -1.0778446458008315 [Eh]
	 SCS Total Energy          =    -591.8150424544883208 [Eh]
	-----------------------------------------------------------

  Dipole Moment: [D]
     X:     1.6747      Y:     1.7293      Z:     0.7025     Total:     2.5077

*** Psi4 exiting successfully. Buy a developer a beer!
