                               Psi4 1.3.2 release

  ==> Input File <==

--------------------------------------------------------------------------
#psi4
#
memory 32 gb

molecule  {
0 1
  S       -2.3164830    -0.1817160    -0.0786020
  O        2.8418010    -0.5125780    -0.0335720
  C        0.4864880    -0.2823360    -0.0275950
  C       -0.7075030     0.6590380     0.0612160
  C        1.8055740     0.4668710     0.0258770
  H        0.4421100    -0.8587610    -0.9561370
  H        0.4659560    -1.0006030     0.7993460
  H       -0.6918870     1.3735120    -0.7679060
  H       -0.6788470     1.2393610     0.9882120
  H        1.8727330     1.1687090    -0.8189890
  H        1.8690250     1.0558810     0.9533790
  H       -2.1748602    -0.8668838     0.8235359
  H        3.6929260    -0.0445400    -0.0102600
units angstrom
no_reorient  #important for SAPT in psi4, default
symmetry c1  #important for SAPT in psi4, default
}

set PROPERTIES_ORIGIN ["COM"]
properties('MP2/aug-cc-pvtz', properties = ['dipole'])
--------------------------------------------------------------------------

    Molecular point group: c1
  Charge       = 0
  Multiplicity = 1
  Basis Set: AUG-CC-PVTZ
    Blend: AUG-CC-PVTZ
  Basis Set: (AUG-CC-PVTZ AUX)
    Blend: AUG-CC-PVTZ-JKFIT

    Orbital Energies [Eh]
    ---------------------

    Doubly Occupied:

       1A    -91.933948     2A    -20.565942     3A    -11.284569
       4A    -11.264674     5A    -11.230205     6A     -8.942387
       7A     -6.624744     8A     -6.622238     9A     -6.621106
      10A     -1.362635    11A     -1.092589    12A     -1.003063
      13A     -0.886562    14A     -0.815619    15A     -0.697264
      16A     -0.672658    17A     -0.614656    18A     -0.591869
      19A     -0.557212    20A     -0.535857    21A     -0.508457
      22A     -0.495167    23A     -0.452743    24A     -0.448498
      25A     -0.357822

  @DF-RHF Final Energy:  -590.71072095421630

   => Energetics <=

    Nuclear Repulsion Energy =            224.7427833283615826
    One-Electron Energy =               -1258.5420354730063082
    Two-Electron Energy =                 443.0885311904283981
    Total Energy =                       -590.7107209542162991
  Basis Set: (AUG-CC-PVTZ AUX)
    Blend: AUG-CC-PVTZ-RI
    Molecular point group: c1

    Geometry (in Angstrom), charge = 0, multiplicity = 1:

       Center              X                  Y                   Z               Mass
    ------------   -----------------  -----------------  -----------------  -----------------
         S           -2.264771441849    -0.162127133977    -0.064291595646    31.972071174400
         O            2.893512558151    -0.492989133977    -0.019261595646    15.994914619570
         C            0.538199558151    -0.262747133977    -0.013284595646    12.000000000000
         C           -0.655791441849     0.678626866023     0.075526404354    12.000000000000
         C            1.857285558151     0.486459866023     0.040187404354    12.000000000000
         H            0.493821558151    -0.839172133977    -0.941826595646     1.007825032230
         H            0.517667558151    -0.981014133977     0.813656404354     1.007825032230
         H           -0.640175441849     1.393100866023    -0.753595595646     1.007825032230
         H           -0.627135441849     1.258949866023     1.002522404354     1.007825032230
         H            1.924444558151     1.188297866023    -0.804678595646     1.007825032230
         H            1.920736558151     1.075469866023     0.967689404354     1.007825032230
         H           -2.123148641849    -0.847294933977     0.837846304354     1.007825032230
         H            3.744637558151    -0.024951133977     0.004050404354     1.007825032230

  Basis Set: AUG-CC-PVTZ
    Blend: AUG-CC-PVTZ
  Basis Set: (AUG-CC-PVTZ AUX)
    Blend: AUG-CC-PVTZ-JKFIT
	 Reference Energy          =    -590.7107209542162991 [Eh]
	 Singles Energy            =      -0.0000000000000000 [Eh]
	 Same-Spin Energy          =      -0.2474664180064423 [Eh]
	 Opposite-Spin Energy      =      -0.8292821423384895 [Eh]
	 Correlation Energy        =      -1.0767485603449318 [Eh]
	 Total Energy              =    -591.7874695145612804 [Eh]

	 ================> DF-SCS-MP2 Energies <==================
	-----------------------------------------------------------
	 SCS Same-Spin Scale       =       0.3333333333333333 [-]
	 SCS Opposite-Spin Scale   =       1.2000000000000000 [-]
	 SCS Same-Spin Energy      =      -0.0824888060021474 [Eh]
	 SCS Opposite-Spin Energy  =      -0.9951385708061874 [Eh]
	 SCS Correlation Energy    =      -1.0776273768083349 [Eh]
	 SCS Total Energy          =    -591.7883483310246220 [Eh]
	-----------------------------------------------------------

  Dipole Moment: [D]
     X:     1.6800      Y:     1.7211      Z:     0.7137     Total:     2.5088

*** Psi4 exiting successfully. Buy a developer a beer!
