                               Psi4 1.4a3.dev225

  ==> Input File <==

--------------------------------------------------------------------------
#psi4
#
memory 32 gb

molecule  {
0 1
  S       -2.3164950    -0.1817520    -0.0785600
  O        2.8418240    -0.5125870    -0.0336710
  C        0.4864850    -0.2823110    -0.0275730
  C       -0.7251955     0.6498193     0.0593988
  C        1.8055900     0.4668570     0.0262110
  H        0.4423910    -0.8587120    -0.9561410
  H        0.4657080    -1.0005910     0.7993450
  H       -0.6919970     1.3731860    -0.7684900
  H       -0.6788530     1.2397730     0.9876800
  H        1.8727880     1.1690760    -0.8183300
  H        1.8691150     1.0554390     0.9539770
  H       -2.1500900    -0.9865220     0.9819500
  H        3.6929560    -0.0445220    -0.0110750
units angstrom
no_reorient  #important for SAPT in psi4, default
symmetry c1  #important for SAPT in psi4, default
}

set PROPERTIES_ORIGIN ["COM"]
properties('MP2/aug-cc-pvtz', properties = ['dipole'])
--------------------------------------------------------------------------

    Molecular point group: c1
  Charge       = 0
  Multiplicity = 1
  Basis Set: AUG-CC-PVTZ
    Blend: AUG-CC-PVTZ
  Basis Set: (AUG-CC-PVTZ AUX)
    Blend: AUG-CC-PVTZ-JKFIT

    Orbital Energies [Eh]
    ---------------------

    Doubly Occupied:

       1A    -91.952486     2A    -20.565831     3A    -11.284380
       4A    -11.264998     5A    -11.229988     6A     -8.953888
       7A     -6.635264     8A     -6.634251     9A     -6.633199
      10A     -1.362458    11A     -1.087307    12A     -0.989472
      13A     -0.869093    14A     -0.810476    15A     -0.696002
      16A     -0.670926    17A     -0.608027    18A     -0.590253
      19A     -0.546278    20A     -0.531662    21A     -0.507351
      22A     -0.490504    23A     -0.452687    24A     -0.449253
      25A     -0.356656

  @DF-RHF Final Energy:  -590.73664183732797

   => Energetics <=

    Nuclear Repulsion Energy =            223.6354411009400565
    One-Electron Energy =               -1256.3987853479379737
    Two-Electron Energy =                 442.0267024096698947
    Total Energy =                       -590.7366418373278520
  Basis Set: (AUG-CC-PVTZ AUX)
    Blend: AUG-CC-PVTZ-RI
    Molecular point group: c1

    Geometry (in Angstrom), charge = 0, multiplicity = 1:

       Center              X                  Y                   Z               Mass
    ------------   -----------------  -----------------  -----------------  -----------------
         S           -2.262750258366    -0.159639260652    -0.065783823048    31.972071174400
         O            2.895568741634    -0.490474260652    -0.020894823048    15.994914619570
         C            0.540229741634    -0.260198260652    -0.014796823048    12.000000000000
         C           -0.671450758366     0.671932039348     0.072174976952    12.000000000000
         C            1.859334741634     0.488969739348     0.038987176952    12.000000000000
         H            0.496135741634    -0.836599260652    -0.943364823048     1.007825032230
         H            0.519452741634    -0.978478260652     0.812121176952     1.007825032230
         H           -0.638252258366     1.395298739348    -0.755713823048     1.007825032230
         H           -0.625108258366     1.261885739348     1.000456176952     1.007825032230
         H            1.926532741634     1.191188739348    -0.805553823048     1.007825032230
         H            1.922859741634     1.077551739348     0.966753176952     1.007825032230
         H           -2.096345258366    -0.964409260652     0.994726176952     1.007825032230
         H            3.746700741634    -0.022409260652     0.001701176952     1.007825032230

  Basis Set: AUG-CC-PVTZ
    Blend: AUG-CC-PVTZ
  Basis Set: (AUG-CC-PVTZ AUX)
    Blend: AUG-CC-PVTZ-JKFIT
	 Reference Energy          =    -590.7366418373279657 [Eh]
	 Singles Energy            =      -0.0000000000000000 [Eh]
	 Same-Spin Energy          =      -0.2473695498609251 [Eh]
	 Opposite-Spin Energy      =      -0.8296624384008979 [Eh]
	 Correlation Energy        =      -1.0770319882618229 [Eh]
	 Total Energy              =    -591.8136738255898308 [Eh]

	 ================> DF-SCS-MP2 Energies <==================
	-----------------------------------------------------------
	 SCS Same-Spin Scale       =       0.3333333333333333 [-]
	 SCS Opposite-Spin Scale   =       1.2000000000000000 [-]
	 SCS Same-Spin Energy      =      -0.0824565166203084 [Eh]
	 SCS Opposite-Spin Energy  =      -0.9955949260810775 [Eh]
	 SCS Correlation Energy    =      -1.0780514427013859 [Eh]
	 SCS Total Energy          =    -591.8146932800293598 [Eh]
	-----------------------------------------------------------

  Dipole Moment: [D]
     X:     1.6406      Y:     1.7221      Z:     0.6996     Total:     2.4792

*** Psi4 exiting successfully. Buy a developer a beer!
