                               Psi4 1.3.2 release

  ==> Input File <==

--------------------------------------------------------------------------
#psi4
#
memory 32 gb

molecule  {
0 1
  S       -2.3164830    -0.1817160    -0.0786020
  O        2.8418010    -0.5125780    -0.0335720
  C        0.4864880    -0.2823360    -0.0275950
  C       -0.7075030     0.6590380     0.0612160
  C        1.8055740     0.4668710     0.0258770
  H        0.4421100    -0.8587610    -0.9561370
  H        0.4659560    -1.0006030     0.7993460
  H       -0.6918870     1.3735120    -0.7679060
  H       -0.6788470     1.2393610     0.9882120
  H        1.8727330     1.1687090    -0.8189890
  H        1.8690250     1.0558810     0.9533790
  H       -2.1500500    -0.9869150     0.9815770
  H        3.6053261    -0.0927116    -0.0126593
units angstrom
no_reorient  #important for SAPT in psi4, default
symmetry c1  #important for SAPT in psi4, default
}

set PROPERTIES_ORIGIN ["COM"]
properties('MP2/aug-cc-pvtz', properties = ['dipole'])
--------------------------------------------------------------------------

    Molecular point group: c1
  Charge       = 0
  Multiplicity = 1
  Basis Set: AUG-CC-PVTZ
    Blend: AUG-CC-PVTZ
  Basis Set: (AUG-CC-PVTZ AUX)
    Blend: AUG-CC-PVTZ-JKFIT

    Orbital Energies [Eh]
    ---------------------

    Doubly Occupied:

       1A    -91.952253     2A    -20.555814     3A    -11.285657
       4A    -11.265377     5A    -11.230532     6A     -8.953402
       7A     -6.634758     8A     -6.633740     9A     -6.632714
      10A     -1.388521    11A     -1.089422    12A     -0.991837
      13A     -0.874783    14A     -0.812573    15A     -0.717647
      16A     -0.673183    17A     -0.609890    18A     -0.592699
      19A     -0.549000    20A     -0.533754    21A     -0.509993
      22A     -0.493382    23A     -0.455293    24A     -0.447790
      25A     -0.357100

  @DF-RHF Final Energy:  -590.73200985921358

   => Energetics <=

    Nuclear Repulsion Energy =            224.1571539519281941
    One-Electron Energy =               -1257.2961040548764231
    Two-Electron Energy =                 442.4069402437347094
    Total Energy =                       -590.7320098592135764
  Basis Set: (AUG-CC-PVTZ AUX)
    Blend: AUG-CC-PVTZ-RI
    Molecular point group: c1

    Geometry (in Angstrom), charge = 0, multiplicity = 1:

       Center              X                  Y                   Z               Mass
    ------------   -----------------  -----------------  -----------------  -----------------
         S           -2.264083825680    -0.160285128600    -0.065996044279    31.972071174400
         O            2.894200174320    -0.491147128600    -0.020966044279    15.994914619570
         C            0.538887174320    -0.260905128600    -0.014989044279    12.000000000000
         C           -0.655103825680     0.680468871400     0.073821955721    12.000000000000
         C            1.857973174320     0.488301871400     0.038482955721    12.000000000000
         H            0.494509174320    -0.837330128600    -0.943531044279     1.007825032230
         H            0.518355174320    -0.979172128600     0.811951955721     1.007825032230
         H           -0.639487825680     1.394942871400    -0.755300044279     1.007825032230
         H           -0.626447825680     1.260791871400     1.000817955721     1.007825032230
         H            1.925132174320     1.190139871400    -0.806383044279     1.007825032230
         H            1.921424174320     1.077311871400     0.965984955721     1.007825032230
         H           -2.097650825680    -0.965484128600     0.994182955721     1.007825032230
         H            3.657725274320    -0.071280728600    -0.000053344279     1.007825032230

  Basis Set: AUG-CC-PVTZ
    Blend: AUG-CC-PVTZ
  Basis Set: (AUG-CC-PVTZ AUX)
    Blend: AUG-CC-PVTZ-JKFIT
	 Reference Energy          =    -590.7320098592135764 [Eh]
	 Singles Energy            =      -0.0000000000000000 [Eh]
	 Same-Spin Energy          =      -0.2461519378753653 [Eh]
	 Opposite-Spin Energy      =      -0.8266708357261031 [Eh]
	 Correlation Energy        =      -1.0728227736014684 [Eh]
	 Total Energy              =    -591.8048326328150779 [Eh]

	 ================> DF-SCS-MP2 Energies <==================
	-----------------------------------------------------------
	 SCS Same-Spin Scale       =       0.3333333333333333 [-]
	 SCS Opposite-Spin Scale   =       1.2000000000000000 [-]
	 SCS Same-Spin Energy      =      -0.0820506459584551 [Eh]
	 SCS Opposite-Spin Energy  =      -0.9920050028713236 [Eh]
	 SCS Correlation Energy    =      -1.0740556488297788 [Eh]
	 SCS Total Energy          =    -591.8060655080433889 [Eh]
	-----------------------------------------------------------

  Dipole Moment: [D]
     X:     1.5874      Y:     1.7096      Z:     0.7008     Total:     2.4359

*** Psi4 exiting successfully. Buy a developer a beer!
