                               Psi4 1.3.2 release

  ==> Input File <==

--------------------------------------------------------------------------
#psi4
#
memory 32 gb

molecule  {
0 1
  S       -2.3164830    -0.1817160    -0.0786020
  O        2.8418010    -0.5125780    -0.0335720
  C        0.4864880    -0.2823360    -0.0275950
  C       -0.7075030     0.6590380     0.0612160
  C        1.6603529     0.6041350     0.0342084
  H        0.4421100    -0.8587610    -0.9561370
  H        0.4659560    -1.0006030     0.7993460
  H       -0.6918870     1.3735120    -0.7679060
  H       -0.6788470     1.2393610     0.9882120
  H        1.8727330     1.1687090    -0.8189890
  H        1.8690250     1.0558810     0.9533790
  H       -2.1500500    -0.9869150     0.9815770
  H        3.6929260    -0.0445400    -0.0102600
units angstrom
no_reorient  #important for SAPT in psi4, default
symmetry c1  #important for SAPT in psi4, default
}

set PROPERTIES_ORIGIN ["COM"]
properties('MP2/aug-cc-pvtz', properties = ['dipole'])
--------------------------------------------------------------------------

    Molecular point group: c1
  Charge       = 0
  Multiplicity = 1
  Basis Set: AUG-CC-PVTZ
    Blend: AUG-CC-PVTZ
  Basis Set: (AUG-CC-PVTZ AUX)
    Blend: AUG-CC-PVTZ-JKFIT

    Orbital Energies [Eh]
    ---------------------

    Doubly Occupied:

       1A    -91.953821     2A    -20.543331     3A    -11.288926
       4A    -11.268717     5A    -11.235757     6A     -8.955045
       7A     -6.636396     8A     -6.635391     9A     -6.634358
      10A     -1.298036    11A     -1.102541    12A     -0.998253
      13A     -0.876575    14A     -0.822756    15A     -0.688314
      16A     -0.650844    17A     -0.613228    18A     -0.590206
      19A     -0.541807    20A     -0.524477    21A     -0.502775
      22A     -0.491196    23A     -0.458239    24A     -0.446528
      25A     -0.358669

  @DF-RHF Final Energy:  -590.70570952747994

   => Energetics <=

    Nuclear Repulsion Energy =            222.8795980408785340
    One-Electron Energy =               -1254.9382461685838734
    Two-Electron Energy =                 441.3529386002254000
    Total Energy =                       -590.7057095274799394
  Basis Set: (AUG-CC-PVTZ AUX)
    Blend: AUG-CC-PVTZ-RI
    Molecular point group: c1

    Geometry (in Angstrom), charge = 0, multiplicity = 1:

       Center              X                  Y                   Z               Mass
    ------------   -----------------  -----------------  -----------------  -----------------
         S           -2.246107347691    -0.178710904669    -0.067108674238    31.972071174400
         O            2.912176652309    -0.509572904669    -0.022078674238    15.994914619570
         C            0.556863652309    -0.279330904669    -0.016101674238    12.000000000000
         C           -0.637127347691     0.662043095331     0.072709325762    12.000000000000
         C            1.730728552309     0.607140095331     0.045701725762    12.000000000000
         H            0.512485652309    -0.855755904669    -0.944643674238     1.007825032230
         H            0.536331652309    -0.997597904669     0.810839325762     1.007825032230
         H           -0.621511347691     1.376517095331    -0.756412674238     1.007825032230
         H           -0.608471347691     1.242366095331     0.999705325762     1.007825032230
         H            1.943108652309     1.171714095331    -0.807495674238     1.007825032230
         H            1.939400652309     1.058886095331     0.964872325762     1.007825032230
         H           -2.079674347691    -0.983909904669     0.993070325762     1.007825032230
         H            3.763301652309    -0.041534904669     0.001233325762     1.007825032230

  Basis Set: AUG-CC-PVTZ
    Blend: AUG-CC-PVTZ
  Basis Set: (AUG-CC-PVTZ AUX)
    Blend: AUG-CC-PVTZ-JKFIT
	 Reference Energy          =    -590.7057095274799394 [Eh]
	 Singles Energy            =      -0.0000000000000000 [Eh]
	 Same-Spin Energy          =      -0.2490057628305439 [Eh]
	 Opposite-Spin Energy      =      -0.8349243142452685 [Eh]
	 Correlation Energy        =      -1.0839300770758125 [Eh]
	 Total Energy              =    -591.7896396045557594 [Eh]

	 ================> DF-SCS-MP2 Energies <==================
	-----------------------------------------------------------
	 SCS Same-Spin Scale       =       0.3333333333333333 [-]
	 SCS Opposite-Spin Scale   =       1.2000000000000000 [-]
	 SCS Same-Spin Energy      =      -0.0830019209435146 [Eh]
	 SCS Opposite-Spin Energy  =      -1.0019091770943220 [Eh]
	 SCS Correlation Energy    =      -1.0849110980378367 [Eh]
	 SCS Total Energy          =    -591.7906206255178176 [Eh]
	-----------------------------------------------------------

  Dipole Moment: [D]
     X:     1.1045      Y:     2.0894      Z:     0.7244     Total:     2.4719

*** Psi4 exiting successfully. Buy a developer a beer!
