                               Psi4 1.3.2 release

  ==> Input File <==

--------------------------------------------------------------------------
#psi4
#
memory 32 gb

molecule  {
0 1
  S       -2.3164830    -0.1817160    -0.0786020
  O        2.7708292    -0.5823086    -0.0383526
  C        0.4864880    -0.2823360    -0.0275950
  C       -0.7075030     0.6590380     0.0612160
  C        1.8055740     0.4668710     0.0258770
  H        0.4421100    -0.8587610    -0.9561370
  H        0.4659560    -1.0006030     0.7993460
  H       -0.6918870     1.3735120    -0.7679060
  H       -0.6788470     1.2393610     0.9882120
  H        1.8727330     1.1687090    -0.8189890
  H        1.8690250     1.0558810     0.9533790
  H       -2.1500500    -0.9869150     0.9815770
  H        3.6929260    -0.0445400    -0.0102600
units angstrom
no_reorient  #important for SAPT in psi4, default
symmetry c1  #important for SAPT in psi4, default
}

set PROPERTIES_ORIGIN ["COM"]
properties('MP2/aug-cc-pvtz', properties = ['dipole'])
--------------------------------------------------------------------------

    Molecular point group: c1
  Charge       = 0
  Multiplicity = 1
  Basis Set: AUG-CC-PVTZ
    Blend: AUG-CC-PVTZ
  Basis Set: (AUG-CC-PVTZ AUX)
    Blend: AUG-CC-PVTZ-JKFIT

    Orbital Energies [Eh]
    ---------------------

    Doubly Occupied:

       1A    -91.950547     2A    -20.577731     3A    -11.283728
       4A    -11.263171     5A    -11.227410     6A     -8.951719
       7A     -6.633079     8A     -6.632061     9A     -6.631038
      10A     -1.350012    11A     -1.084564    12A     -0.982873
      13A     -0.865306    14A     -0.811777    15A     -0.676826
      16A     -0.671956    17A     -0.607634    18A     -0.587735
      19A     -0.541508    20A     -0.529410    21A     -0.507882
      22A     -0.491238    23A     -0.455048    24A     -0.443132
      25A     -0.355158

  @DF-RHF Final Energy:  -590.72126847146228

   => Energetics <=

    Nuclear Repulsion Energy =            223.7438737857943920
    One-Electron Energy =               -1256.7051990972108797
    Two-Electron Energy =                 442.2400568399541498
    Total Energy =                       -590.7212684714622810
  Basis Set: (AUG-CC-PVTZ AUX)
    Blend: AUG-CC-PVTZ-RI
    Molecular point group: c1

    Geometry (in Angstrom), charge = 0, multiplicity = 1:

       Center              X                  Y                   Z               Mass
    ------------   -----------------  -----------------  -----------------  -----------------
         S           -2.252708108867    -0.148693351490    -0.065191442004    31.972071174400
         O            2.834604091133    -0.549285951490    -0.024942042004    15.994914619570
         C            0.550262891133    -0.249313351490    -0.014184442004    12.000000000000
         C           -0.643728108867     0.692060648510     0.074626557996    12.000000000000
         C            1.869348891133     0.499893648510     0.039287557996    12.000000000000
         H            0.505884891133    -0.825738351490    -0.942726442004     1.007825032230
         H            0.529730891133    -0.967580351490     0.812756557996     1.007825032230
         H           -0.628112108867     1.406534648510    -0.754495442004     1.007825032230
         H           -0.615072108867     1.272383648510     1.001622557996     1.007825032230
         H            1.936507891133     1.201731648510    -0.805578442004     1.007825032230
         H            1.932799891133     1.088903648510     0.966789557996     1.007825032230
         H           -2.086275108867    -0.953892351490     0.994987557996     1.007825032230
         H            3.756700891133    -0.011517351490     0.003150557996     1.007825032230

  Basis Set: AUG-CC-PVTZ
    Blend: AUG-CC-PVTZ
  Basis Set: (AUG-CC-PVTZ AUX)
    Blend: AUG-CC-PVTZ-JKFIT
	 Reference Energy          =    -590.7212684714622810 [Eh]
	 Singles Energy            =      -0.0000000000000000 [Eh]
	 Same-Spin Energy          =      -0.2488394216986912 [Eh]
	 Opposite-Spin Energy      =      -0.8336231559406804 [Eh]
	 Correlation Energy        =      -1.0824625776393715 [Eh]
	 Total Energy              =    -591.8037310491016569 [Eh]

	 ================> DF-SCS-MP2 Energies <==================
	-----------------------------------------------------------
	 SCS Same-Spin Scale       =       0.3333333333333333 [-]
	 SCS Opposite-Spin Scale   =       1.2000000000000000 [-]
	 SCS Same-Spin Energy      =      -0.0829464738995637 [Eh]
	 SCS Opposite-Spin Energy  =      -1.0003477871288164 [Eh]
	 SCS Correlation Energy    =      -1.0832942610283802 [Eh]
	 SCS Total Energy          =    -591.8045627324906945 [Eh]
	-----------------------------------------------------------

  Dipole Moment: [D]
     X:     1.8483      Y:     1.8028      Z:     0.7061     Total:     2.6767

*** Psi4 exiting successfully. Buy a developer a beer!
