                               Psi4 1.3.2 release

  ==> Input File <==

--------------------------------------------------------------------------
#psi4
#
memory 32 gb

molecule  {
0 1
  S       -2.3164830    -0.1817160    -0.0786020
  O        2.8330025    -0.5228396    -0.0126517
  C        0.4864880    -0.2823360    -0.0275950
  C       -0.7075030     0.6590380     0.0612160
  C        1.8055740     0.4668710     0.0258770
  H        0.4421100    -0.8587610    -0.9561370
  H        0.4659560    -1.0006030     0.7993460
  H       -0.6918870     1.3735120    -0.7679060
  H       -0.6788470     1.2393610     0.9882120
  H        1.8727330     1.1687090    -0.8189890
  H        1.8690250     1.0558810     0.9533790
  H       -2.1500500    -0.9869150     0.9815770
  H        3.6929260    -0.0445400    -0.0102600
units angstrom
no_reorient  #important for SAPT in psi4, default
symmetry c1  #important for SAPT in psi4, default
}

set PROPERTIES_ORIGIN ["COM"]
properties('MP2/aug-cc-pvtz', properties = ['dipole'])
--------------------------------------------------------------------------

    Molecular point group: c1
  Charge       = 0
  Multiplicity = 1
  Basis Set: AUG-CC-PVTZ
    Blend: AUG-CC-PVTZ
  Basis Set: (AUG-CC-PVTZ AUX)
    Blend: AUG-CC-PVTZ-JKFIT

    Orbital Energies [Eh]
    ---------------------

    Doubly Occupied:

       1A    -91.951769     2A    -20.567491     3A    -11.284239
       4A    -11.264827     5A    -11.229593     6A     -8.952923
       7A     -6.634279     8A     -6.633262     9A     -6.632236
      10A     -1.360615    11A     -1.087061    12A     -0.986674
      13A     -0.869080    14A     -0.811739    15A     -0.693750
      16A     -0.672058    17A     -0.608468    18A     -0.589745
      19A     -0.546403    20A     -0.530611    21A     -0.508454
      22A     -0.491764    23A     -0.452659    24A     -0.446427
      25A     -0.356540

  @DF-RHF Final Energy:  -590.73599765831466

   => Energetics <=

    Nuclear Repulsion Energy =            223.5332530502392672
    One-Electron Energy =               -1256.2131692808238768
    Two-Electron Energy =                 441.9439185722700358
    Total Energy =                       -590.7359976583146590
  Basis Set: (AUG-CC-PVTZ AUX)
    Blend: AUG-CC-PVTZ-RI
    Molecular point group: c1

    Geometry (in Angstrom), charge = 0, multiplicity = 1:

       Center              X                  Y                   Z               Mass
    ------------   -----------------  -----------------  -----------------  -----------------
         S           -2.263513944987    -0.159029175200    -0.069658306616    31.972071174400
         O            2.885971555013    -0.500152775200    -0.003708006616    15.994914619570
         C            0.539457055013    -0.259649175200    -0.018651306616    12.000000000000
         C           -0.654533944987     0.681724824800     0.070159693384    12.000000000000
         C            1.858543055013     0.489557824800     0.034820693384    12.000000000000
         H            0.495079055013    -0.836074175200    -0.947193306616     1.007825032230
         H            0.518925055013    -0.977916175200     0.808289693384     1.007825032230
         H           -0.638917944987     1.396198824800    -0.758962306616     1.007825032230
         H           -0.625877944987     1.262047824800     0.997155693384     1.007825032230
         H            1.925702055013     1.191395824800    -0.810045306616     1.007825032230
         H            1.921994055013     1.078567824800     0.962322693384     1.007825032230
         H           -2.097080944987    -0.964228175200     0.990520693384     1.007825032230
         H            3.745895055013    -0.021853175200    -0.001316306616     1.007825032230

  Basis Set: AUG-CC-PVTZ
    Blend: AUG-CC-PVTZ
  Basis Set: (AUG-CC-PVTZ AUX)
    Blend: AUG-CC-PVTZ-JKFIT
	 Reference Energy          =    -590.7359976583146590 [Eh]
	 Singles Energy            =      -0.0000000000000000 [Eh]
	 Same-Spin Energy          =      -0.2474880266971430 [Eh]
	 Opposite-Spin Energy      =      -0.8300873762720387 [Eh]
	 Correlation Energy        =      -1.0775754029691818 [Eh]
	 Total Energy              =    -591.8135730612838188 [Eh]

	 ================> DF-SCS-MP2 Energies <==================
	-----------------------------------------------------------
	 SCS Same-Spin Scale       =       0.3333333333333333 [-]
	 SCS Opposite-Spin Scale   =       1.2000000000000000 [-]
	 SCS Same-Spin Energy      =      -0.0824960088990477 [Eh]
	 SCS Opposite-Spin Energy  =      -0.9961048515264463 [Eh]
	 SCS Correlation Energy    =      -1.0786008604254940 [Eh]
	 SCS Total Energy          =    -591.8145985187401266 [Eh]
	-----------------------------------------------------------

  Dipole Moment: [D]
     X:     1.6989      Y:     1.7429      Z:     0.6516     Total:     2.5196

*** Psi4 exiting successfully. Buy a developer a beer!
