                               Psi4 1.3.2 release

  ==> Input File <==

--------------------------------------------------------------------------
#psi4
#
memory 32 gb

molecule  {
0 1
  S       -2.3164830    -0.1817160    -0.0786020
  O        2.8418010    -0.5125780    -0.0335720
  C        0.4864880    -0.2823360    -0.0275950
  C       -0.7075030     0.6590380     0.0612160
  C        1.8055740     0.4668710     0.0258770
  H        0.4421100    -0.8587610    -0.9561370
  H        0.4659560    -1.0006030     0.7993460
  H       -0.6918870     1.3735120    -0.7679060
  H       -0.6788470     1.2393610     0.9882120
  H        1.8727330     1.1687090    -0.8189890
  H        1.8690250     1.0558810     0.9533790
  H       -2.1500500    -0.9869150     0.9815770
  H        3.5177262    -0.1408832    -0.0150587
units angstrom
no_reorient  #important for SAPT in psi4, default
symmetry c1  #important for SAPT in psi4, default
}

set PROPERTIES_ORIGIN ["COM"]
properties('MP2/aug-cc-pvtz', properties = ['dipole'])
--------------------------------------------------------------------------

    Molecular point group: c1
  Charge       = 0
  Multiplicity = 1
  Basis Set: AUG-CC-PVTZ
    Blend: AUG-CC-PVTZ
  Basis Set: (AUG-CC-PVTZ AUX)
    Blend: AUG-CC-PVTZ-JKFIT

    Orbital Energies [Eh]
    ---------------------

    Doubly Occupied:

       1A    -91.952637     2A    -20.543999     3A    -11.287093
       4A    -11.265801     5A    -11.231321     6A     -8.953785
       7A     -6.635140     8A     -6.634122     9A     -6.633095
      10A     -1.424133    11A     -1.091945    12A     -0.997527
      13A     -0.880959    14A     -0.813466    15A     -0.737735
      16A     -0.674489    17A     -0.611396    18A     -0.595458
      19A     -0.551052    20A     -0.536579    21A     -0.511908
      22A     -0.494781    23A     -0.458522    24A     -0.448829
      25A     -0.357532

  @DF-RHF Final Energy:  -590.69030531177123

   => Energetics <=

    Nuclear Repulsion Energy =            224.9360423645547939
    One-Electron Energy =               -1258.6060850911592297
    Two-Electron Energy =                 442.9797374148331528
    Total Energy =                       -590.6903053117712261
  Basis Set: (AUG-CC-PVTZ AUX)
    Blend: AUG-CC-PVTZ-RI
    Molecular point group: c1

    Geometry (in Angstrom), charge = 0, multiplicity = 1:

       Center              X                  Y                   Z               Mass
    ------------   -----------------  -----------------  -----------------  -----------------
         S           -2.263124510574    -0.159757596679    -0.065969768214    31.972071174400
         O            2.895159489426    -0.490619596679    -0.020939768214    15.994914619570
         C            0.539846489426    -0.260377596679    -0.014962768214    12.000000000000
         C           -0.654144510574     0.680996403321     0.073848231786    12.000000000000
         C            1.858932489426     0.488829403321     0.038509231786    12.000000000000
         H            0.495468489426    -0.836802596679    -0.943504768214     1.007825032230
         H            0.519314489426    -0.978644596679     0.811978231786     1.007825032230
         H           -0.638528510574     1.395470403321    -0.755273768214     1.007825032230
         H           -0.625488510574     1.261319403321     1.000844231786     1.007825032230
         H            1.926091489426     1.190667403321    -0.806356768214     1.007825032230
         H            1.922383489426     1.077839403321     0.966011231786     1.007825032230
         H           -2.096691510574    -0.964956596679     0.994209231786     1.007825032230
         H            3.571084689426    -0.118924796679    -0.002426468214     1.007825032230

  Basis Set: AUG-CC-PVTZ
    Blend: AUG-CC-PVTZ
  Basis Set: (AUG-CC-PVTZ AUX)
    Blend: AUG-CC-PVTZ-JKFIT
	 Reference Energy          =    -590.6903053117712261 [Eh]
	 Singles Energy            =      -0.0000000000000000 [Eh]
	 Same-Spin Energy          =      -0.2450539465067668 [Eh]
	 Opposite-Spin Energy      =      -0.8241112749012980 [Eh]
	 Correlation Energy        =      -1.0691652214080647 [Eh]
	 Total Energy              =    -591.7594705331792966 [Eh]

	 ================> DF-SCS-MP2 Energies <==================
	-----------------------------------------------------------
	 SCS Same-Spin Scale       =       0.3333333333333333 [-]
	 SCS Opposite-Spin Scale   =       1.2000000000000000 [-]
	 SCS Same-Spin Energy      =      -0.0816846488355889 [Eh]
	 SCS Opposite-Spin Energy  =      -0.9889335298815576 [Eh]
	 SCS Correlation Energy    =      -1.0706181787171465 [Eh]
	 SCS Total Energy          =    -591.7609234904883806 [Eh]
	-----------------------------------------------------------

  Dipole Moment: [D]
     X:     1.4851      Y:     1.6924      Z:     0.7004     Total:     2.3580

*** Psi4 exiting successfully. Buy a developer a beer!
