                               Psi4 1.3.2 release

  ==> Input File <==

--------------------------------------------------------------------------
#psi4
#
memory 32 gb

molecule  {
0 1
  S       -2.3164830    -0.1817160    -0.0786020
  O        2.8878764    -0.4448586    -0.1584911
  C        0.4864880    -0.2823360    -0.0275950
  C       -0.7075030     0.6590380     0.0612160
  C        1.8055740     0.4668710     0.0258770
  H        0.4421100    -0.8587610    -0.9561370
  H        0.4659560    -1.0006030     0.7993460
  H       -0.6918870     1.3735120    -0.7679060
  H       -0.6788470     1.2393610     0.9882120
  H        1.8727330     1.1687090    -0.8189890
  H        1.8690250     1.0558810     0.9533790
  H       -2.1500500    -0.9869150     0.9815770
  H        3.6929260    -0.0445400    -0.0102600
units angstrom
no_reorient  #important for SAPT in psi4, default
symmetry c1  #important for SAPT in psi4, default
}

set PROPERTIES_ORIGIN ["COM"]
properties('MP2/aug-cc-pvtz', properties = ['dipole'])
--------------------------------------------------------------------------

    Molecular point group: c1
  Charge       = 0
  Multiplicity = 1
  Basis Set: AUG-CC-PVTZ
    Blend: AUG-CC-PVTZ
  Basis Set: (AUG-CC-PVTZ AUX)
    Blend: AUG-CC-PVTZ-JKFIT

    Orbital Energies [Eh]
    ---------------------

    Doubly Occupied:

       1A    -91.953021     2A    -20.557137     3A    -11.285217
       4A    -11.266431     5A    -11.231912     6A     -8.954153
       7A     -6.635506     8A     -6.634486     9A     -6.633458
      10A     -1.373362    11A     -1.089555    12A     -0.990736
      13A     -0.874187    14A     -0.812547    15A     -0.710381
      16A     -0.670122    17A     -0.609843    18A     -0.593610
      19A     -0.548973    20A     -0.532255    21A     -0.506768
      22A     -0.492880    23A     -0.453484    24A     -0.445082
      25A     -0.357881

  @DF-RHF Final Energy:  -590.73579181632397

   => Energetics <=

    Nuclear Repulsion Energy =            223.4012655808553518
    One-Electron Energy =               -1255.8481363673736269
    Two-Electron Energy =                 441.7110789701943077
    Total Energy =                       -590.7357918163239674
  Basis Set: (AUG-CC-PVTZ AUX)
    Blend: AUG-CC-PVTZ-RI
    Molecular point group: c1

    Geometry (in Angstrom), charge = 0, multiplicity = 1:

       Center              X                  Y                   Z               Mass
    ------------   -----------------  -----------------  -----------------  -----------------
         S           -2.273051131701    -0.172582419221    -0.044311145434    31.972071174400
         O            2.931308268299    -0.435725019221    -0.124200245434    15.994914619570
         C            0.529919868299    -0.273202419221     0.006695854566    12.000000000000
         C           -0.664071131701     0.668171580779     0.095506854566    12.000000000000
         C            1.849005868299     0.476004580779     0.060167854566    12.000000000000
         H            0.485541868299    -0.849627419221    -0.921846145434     1.007825032230
         H            0.509387868299    -0.991469419221     0.833636854566     1.007825032230
         H           -0.648455131701     1.382645580779    -0.733615145434     1.007825032230
         H           -0.635415131701     1.248494580779     1.022502854566     1.007825032230
         H            1.916164868299     1.177842580779    -0.784698145434     1.007825032230
         H            1.912456868299     1.065014580779     0.987669854566     1.007825032230
         H           -2.106618131701    -0.977781419221     1.015867854566     1.007825032230
         H            3.736357868299    -0.035406419221     0.024030854566     1.007825032230

  Basis Set: AUG-CC-PVTZ
    Blend: AUG-CC-PVTZ
  Basis Set: (AUG-CC-PVTZ AUX)
    Blend: AUG-CC-PVTZ-JKFIT
	 Reference Energy          =    -590.7357918163239674 [Eh]
	 Singles Energy            =      -0.0000000000000000 [Eh]
	 Same-Spin Energy          =      -0.2464590068943412 [Eh]
	 Opposite-Spin Energy      =      -0.8275180264011665 [Eh]
	 Correlation Energy        =      -1.0739770332955076 [Eh]
	 Total Energy              =    -591.8097688496194451 [Eh]

	 ================> DF-SCS-MP2 Energies <==================
	-----------------------------------------------------------
	 SCS Same-Spin Scale       =       0.3333333333333333 [-]
	 SCS Opposite-Spin Scale   =       1.2000000000000000 [-]
	 SCS Same-Spin Energy      =      -0.0821530022981137 [Eh]
	 SCS Opposite-Spin Energy  =      -0.9930216316813997 [Eh]
	 SCS Correlation Energy    =      -1.0751746339795134 [Eh]
	 SCS Total Energy          =    -591.8109664503034537 [Eh]
	-----------------------------------------------------------

  Dipole Moment: [D]
     X:     1.5395      Y:     1.6293      Z:     1.0148     Total:     2.4606

*** Psi4 exiting successfully. Buy a developer a beer!
