                               Psi4 1.3.2 release

  ==> Input File <==

--------------------------------------------------------------------------
#psi4
#
memory 32 gb

molecule  {
0 1
  S       -2.2857922    -0.2370317    -0.0847131
  O        2.8418010    -0.5125780    -0.0335720
  C        0.4864880    -0.2823360    -0.0275950
  C       -0.7075030     0.6590380     0.0612160
  C        1.8055740     0.4668710     0.0258770
  H        0.4421100    -0.8587610    -0.9561370
  H        0.4659560    -1.0006030     0.7993460
  H       -0.6918870     1.3735120    -0.7679060
  H       -0.6788470     1.2393610     0.9882120
  H        1.8727330     1.1687090    -0.8189890
  H        1.8690250     1.0558810     0.9533790
  H       -2.1500500    -0.9869150     0.9815770
  H        3.6929260    -0.0445400    -0.0102600
units angstrom
no_reorient  #important for SAPT in psi4, default
symmetry c1  #important for SAPT in psi4, default
}

set PROPERTIES_ORIGIN ["COM"]
properties('MP2/aug-cc-pvtz', properties = ['dipole'])
--------------------------------------------------------------------------

    Molecular point group: c1
  Charge       = 0
  Multiplicity = 1
  Basis Set: AUG-CC-PVTZ
    Blend: AUG-CC-PVTZ
  Basis Set: (AUG-CC-PVTZ AUX)
    Blend: AUG-CC-PVTZ-JKFIT

    Orbital Energies [Eh]
    ---------------------

    Doubly Occupied:

       1A    -91.949102     2A    -20.565470     3A    -11.283747
       4A    -11.265448     5A    -11.229165     6A     -8.951134
       7A     -6.632581     8A     -6.631491     9A     -6.630444
      10A     -1.362144    11A     -1.088395    12A     -0.987967
      13A     -0.871945    14A     -0.812738    15A     -0.696079
      16A     -0.672070    17A     -0.609840    18A     -0.590707
      19A     -0.546232    20A     -0.534653    21A     -0.507545
      22A     -0.493304    23A     -0.452313    24A     -0.445362
      25A     -0.356492

  @DF-RHF Final Energy:  -590.73680967047198

   => Energetics <=

    Nuclear Repulsion Energy =            224.0718886115504631
    One-Electron Energy =               -1257.2846655744945110
    Two-Electron Energy =                 442.4759672924718643
    Total Energy =                       -590.7368096704720983
  Basis Set: (AUG-CC-PVTZ AUX)
    Blend: AUG-CC-PVTZ-RI
    Molecular point group: c1

    Geometry (in Angstrom), charge = 0, multiplicity = 1:

       Center              X                  Y                   Z               Mass
    ------------   -----------------  -----------------  -----------------  -----------------
         S           -2.245014655852    -0.196911089496    -0.070010357171    31.972071174400
         O            2.882578544148    -0.472457389496    -0.018869257171    15.994914619570
         C            0.527265544148    -0.242215389496    -0.012892257171    12.000000000000
         C           -0.666725455852     0.699158610504     0.075918742829    12.000000000000
         C            1.846351544148     0.506991610504     0.040579742829    12.000000000000
         H            0.482887544148    -0.818640389496    -0.941434257171     1.007825032230
         H            0.506733544148    -0.960482389496     0.814048742829     1.007825032230
         H           -0.651109455852     1.413632610504    -0.753203257171     1.007825032230
         H           -0.638069455852     1.279481610504     1.002914742829     1.007825032230
         H            1.913510544148     1.208829610504    -0.804286257171     1.007825032230
         H            1.909802544148     1.096001610504     0.968081742829     1.007825032230
         H           -2.109272455852    -0.946794389496     0.996279742829     1.007825032230
         H            3.733703544148    -0.004419389496     0.004442742829     1.007825032230

  Basis Set: AUG-CC-PVTZ
    Blend: AUG-CC-PVTZ
  Basis Set: (AUG-CC-PVTZ AUX)
    Blend: AUG-CC-PVTZ-JKFIT
	 Reference Energy          =    -590.7368096704719846 [Eh]
	 Singles Energy            =      -0.0000000000000000 [Eh]
	 Same-Spin Energy          =      -0.2473148673110511 [Eh]
	 Opposite-Spin Energy      =      -0.8294692626487394 [Eh]
	 Correlation Energy        =      -1.0767841299597904 [Eh]
	 Total Energy              =    -591.8135938004318177 [Eh]

	 ================> DF-SCS-MP2 Energies <==================
	-----------------------------------------------------------
	 SCS Same-Spin Scale       =       0.3333333333333333 [-]
	 SCS Opposite-Spin Scale   =       1.2000000000000000 [-]
	 SCS Same-Spin Energy      =      -0.0824382891036837 [Eh]
	 SCS Opposite-Spin Energy  =      -0.9953631151784873 [Eh]
	 SCS Correlation Energy    =      -1.0778014042821711 [Eh]
	 SCS Total Energy          =    -591.8146110747541115 [Eh]
	-----------------------------------------------------------

  Dipole Moment: [D]
     X:     1.6518      Y:     1.7749      Z:     0.7309     Total:     2.5324

*** Psi4 exiting successfully. Buy a developer a beer!
