                               Psi4 1.3.2 release

  ==> Input File <==

--------------------------------------------------------------------------
#psi4
#
memory 32 gb

molecule  {
0 1
  S       -2.2974277    -0.2065851    -0.1338969
  O        2.8418010    -0.5125780    -0.0335720
  C        0.4864880    -0.2823360    -0.0275950
  C       -0.7075030     0.6590380     0.0612160
  C        1.8055740     0.4668710     0.0258770
  H        0.4421100    -0.8587610    -0.9561370
  H        0.4659560    -1.0006030     0.7993460
  H       -0.6918870     1.3735120    -0.7679060
  H       -0.6788470     1.2393610     0.9882120
  H        1.8727330     1.1687090    -0.8189890
  H        1.8690250     1.0558810     0.9533790
  H       -2.1500500    -0.9869150     0.9815770
  H        3.6929260    -0.0445400    -0.0102600
units angstrom
no_reorient  #important for SAPT in psi4, default
symmetry c1  #important for SAPT in psi4, default
}

set PROPERTIES_ORIGIN ["COM"]
properties('MP2/aug-cc-pvtz', properties = ['dipole'])
--------------------------------------------------------------------------

    Molecular point group: c1
  Charge       = 0
  Multiplicity = 1
  Basis Set: AUG-CC-PVTZ
    Blend: AUG-CC-PVTZ
  Basis Set: (AUG-CC-PVTZ AUX)
    Blend: AUG-CC-PVTZ-JKFIT

    Orbital Energies [Eh]
    ---------------------

    Doubly Occupied:

       1A    -91.954318     2A    -20.565481     3A    -11.283838
       4A    -11.265002     5A    -11.229181     6A     -8.954794
       7A     -6.636077     8A     -6.635099     9A     -6.634095
      10A     -1.362155    11A     -1.087300    12A     -0.985479
      13A     -0.867489    14A     -0.811089    15A     -0.695833
      16A     -0.672023    17A     -0.608824    18A     -0.589710
      19A     -0.544319    20A     -0.528969    21A     -0.507716
      22A     -0.489639    23A     -0.452456    24A     -0.448057
      25A     -0.357003

  @DF-RHF Final Energy:  -590.73598630417837

   => Energetics <=

    Nuclear Repulsion Energy =            223.6289491916631391
    One-Electron Energy =               -1256.3979767885166439
    Two-Electron Energy =                 442.0330412926750228
    Total Energy =                       -590.7359863041783683
  Basis Set: (AUG-CC-PVTZ AUX)
    Blend: AUG-CC-PVTZ-RI
    Molecular point group: c1

    Geometry (in Angstrom), charge = 0, multiplicity = 1:

       Center              X                  Y                   Z               Mass
    ------------   -----------------  -----------------  -----------------  -----------------
         S           -2.252607857608    -0.177041966849    -0.102107174368    31.972071174400
         O            2.886620842392    -0.483034866849    -0.001782274368    15.994914619570
         C            0.531307842392    -0.252792866849     0.004194725632    12.000000000000
         C           -0.662683157608     0.688581133151     0.093005725632    12.000000000000
         C            1.850393842392     0.496414133151     0.057666725632    12.000000000000
         H            0.486929842392    -0.829217866849    -0.924347274368     1.007825032230
         H            0.510775842392    -0.971059866849     0.831135725632     1.007825032230
         H           -0.647067157608     1.403055133151    -0.736116274368     1.007825032230
         H           -0.634027157608     1.268904133151     1.020001725632     1.007825032230
         H            1.917552842392     1.198252133151    -0.787199274368     1.007825032230
         H            1.913844842392     1.085424133151     0.985168725632     1.007825032230
         H           -2.105230157608    -0.957371866849     1.013366725632     1.007825032230
         H            3.737745842392    -0.014996866849     0.021529725632     1.007825032230

  Basis Set: AUG-CC-PVTZ
    Blend: AUG-CC-PVTZ
  Basis Set: (AUG-CC-PVTZ AUX)
    Blend: AUG-CC-PVTZ-JKFIT
	 Reference Energy          =    -590.7359863041783683 [Eh]
	 Singles Energy            =      -0.0000000000000000 [Eh]
	 Same-Spin Energy          =      -0.2474141079148025 [Eh]
	 Opposite-Spin Energy      =      -0.8299622015982331 [Eh]
	 Correlation Energy        =      -1.0773763095130355 [Eh]
	 Total Energy              =    -591.8133626136914245 [Eh]

	 ================> DF-SCS-MP2 Energies <==================
	-----------------------------------------------------------
	 SCS Same-Spin Scale       =       0.3333333333333333 [-]
	 SCS Opposite-Spin Scale   =       1.2000000000000000 [-]
	 SCS Same-Spin Energy      =      -0.0824713693049342 [Eh]
	 SCS Opposite-Spin Energy  =      -0.9959546419178796 [Eh]
	 SCS Correlation Energy    =      -1.0784260112228137 [Eh]
	 SCS Total Energy          =    -591.8144123154012277 [Eh]
	-----------------------------------------------------------

  Dipole Moment: [D]
     X:     1.6284      Y:     1.7597      Z:     0.7331     Total:     2.5071

*** Psi4 exiting successfully. Buy a developer a beer!
