                               Psi4 1.4a3.dev225

  ==> Input File <==

--------------------------------------------------------------------------
#psi4
#
memory 32 gb

molecule  {
0 1
  S       -2.3164950    -0.1817520    -0.0785600
  O        2.8418240    -0.5125870    -0.0336710
  C        0.4864850    -0.2823110    -0.0275730
  C       -0.7075220     0.6590550     0.0609310
  C        1.8055900     0.4668570     0.0262110
  H        0.4423910    -0.8587120    -0.9561410
  H        0.4657080    -1.0005910     0.7993450
  H       -0.6919970     1.3731860    -0.7684900
  H       -0.6788530     1.2397730     0.9876800
  H        1.8727880     1.1690760    -0.8183300
  H        1.8691150     1.0554390     0.9539770
  H       -2.1500900    -0.9865220     0.9819500
  H        3.7104761    -0.0348871    -0.0106099
units angstrom
no_reorient  #important for SAPT in psi4, default
symmetry c1  #important for SAPT in psi4, default
}

set PROPERTIES_ORIGIN ["COM"]
properties('MP2/aug-cc-pvtz', properties = ['dipole'])
--------------------------------------------------------------------------

    Molecular point group: c1
  Charge       = 0
  Multiplicity = 1
  Basis Set: AUG-CC-PVTZ
    Blend: AUG-CC-PVTZ
  Basis Set: (AUG-CC-PVTZ AUX)
    Blend: AUG-CC-PVTZ-JKFIT

    Orbital Energies [Eh]
    ---------------------

    Doubly Occupied:

       1A    -91.951919     2A    -20.567637     3A    -11.284165
       4A    -11.265036     5A    -11.229855     6A     -8.953069
       7A     -6.634426     8A     -6.633407     9A     -6.632382
      10A     -1.358287    11A     -1.087129    12A     -0.986545
      13A     -0.868961    14A     -0.811667    15A     -0.692086
      16A     -0.671893    17A     -0.608400    18A     -0.589872
      19A     -0.546567    20A     -0.530180    21A     -0.507815
      22A     -0.491584    23A     -0.452147    24A     -0.446477
      25A     -0.356696

  @DF-RHF Final Energy:  -590.73557160623125

   => Energetics <=

    Nuclear Repulsion Energy =            223.3951391854173778
    One-Electron Energy =               -1255.9450179013992965
    Two-Electron Energy =                 441.8143071097507573
    Total Energy =                       -590.7355716062312467
  Basis Set: (AUG-CC-PVTZ AUX)
    Blend: AUG-CC-PVTZ-RI
    Molecular point group: c1

    Geometry (in Angstrom), charge = 0, multiplicity = 1:

       Center              X                  Y                   Z               Mass
    ------------   -----------------  -----------------  -----------------  -----------------
         S           -2.265246620734    -0.160949042632    -0.065988704328    31.972071174400
         O            2.893072379266    -0.491784042632    -0.021099704328    15.994914619570
         C            0.537733379266    -0.261508042632    -0.015001704328    12.000000000000
         C           -0.656273620734     0.679857957368     0.073502295672    12.000000000000
         C            1.856838379266     0.487659957368     0.038782295672    12.000000000000
         H            0.493639379266    -0.837909042632    -0.943569704328     1.007825032230
         H            0.516956379266    -0.979788042632     0.811916295672     1.007825032230
         H           -0.640748620734     1.393988957368    -0.755918704328     1.007825032230
         H           -0.627604620734     1.260575957368     1.000251295672     1.007825032230
         H            1.924036379266     1.189878957368    -0.805758704328     1.007825032230
         H            1.920363379266     1.076241957368     0.966548295672     1.007825032230
         H           -2.098841620734    -0.965719042632     0.994521295672     1.007825032230
         H            3.761724479266    -0.014084142632     0.001961395672     1.007825032230

  Basis Set: AUG-CC-PVTZ
    Blend: AUG-CC-PVTZ
  Basis Set: (AUG-CC-PVTZ AUX)
    Blend: AUG-CC-PVTZ-JKFIT
	 Reference Energy          =    -590.7355716062312467 [Eh]
	 Singles Energy            =      -0.0000000000000000 [Eh]
	 Same-Spin Energy          =      -0.2475206736694983 [Eh]
	 Opposite-Spin Energy      =      -0.8302274944009627 [Eh]
	 Correlation Energy        =      -1.0777481680704610 [Eh]
	 Total Energy              =    -591.8133197743017035 [Eh]

	 ================> DF-SCS-MP2 Energies <==================
	-----------------------------------------------------------
	 SCS Same-Spin Scale       =       0.3333333333333333 [-]
	 SCS Opposite-Spin Scale   =       1.2000000000000000 [-]
	 SCS Same-Spin Energy      =      -0.0825068912231661 [Eh]
	 SCS Opposite-Spin Energy  =      -0.9962729932811552 [Eh]
	 SCS Correlation Energy    =      -1.0787798845043213 [Eh]
	 SCS Total Energy          =    -591.8143514907355893 [Eh]
	-----------------------------------------------------------

  Dipole Moment: [D]
     X:     1.6901      Y:     1.7355      Z:     0.7008     Total:     2.5218

*** Psi4 exiting successfully. Buy a developer a beer!
