                               Psi4 1.3.2 release

  ==> Input File <==

--------------------------------------------------------------------------
#psi4
#
memory 32 gb

molecule  {
0 1
  S       -2.3164830    -0.1817160    -0.0786020
  O        2.8587681    -0.4943860    -0.0323307
  C        0.4864880    -0.2823360    -0.0275950
  C       -0.7075030     0.6590380     0.0612160
  C        1.8055740     0.4668710     0.0258770
  H        0.4421100    -0.8587610    -0.9561370
  H        0.4659560    -1.0006030     0.7993460
  H       -0.6918870     1.3735120    -0.7679060
  H       -0.6788470     1.2393610     0.9882120
  H        1.8727330     1.1687090    -0.8189890
  H        1.8690250     1.0558810     0.9533790
  H       -2.1500500    -0.9869150     0.9815770
  H        3.6929260    -0.0445400    -0.0102600
units angstrom
no_reorient  #important for SAPT in psi4, default
symmetry c1  #important for SAPT in psi4, default
}

set PROPERTIES_ORIGIN ["COM"]
properties('MP2/aug-cc-pvtz', properties = ['dipole'])
--------------------------------------------------------------------------

    Molecular point group: c1
  Charge       = 0
  Multiplicity = 1
  Basis Set: AUG-CC-PVTZ
    Blend: AUG-CC-PVTZ
  Basis Set: (AUG-CC-PVTZ AUX)
    Blend: AUG-CC-PVTZ-JKFIT

    Orbital Energies [Eh]
    ---------------------

    Doubly Occupied:

       1A    -91.952337     2A    -20.562608     3A    -11.284730
       4A    -11.265572     5A    -11.230642     6A     -8.953481
       7A     -6.634837     8A     -6.633819     9A     -6.632792
      10A     -1.366462    11A     -1.088236    12A     -0.988584
      13A     -0.871329    14A     -0.811992    15A     -0.701345
      16A     -0.672194    17A     -0.608903    18A     -0.591143
      19A     -0.548481    20A     -0.530676    21A     -0.508170
      22A     -0.491834    23A     -0.452178    24A     -0.447428
      25A     -0.357158

  @DF-RHF Final Energy:  -590.73835519423335

   => Energetics <=

    Nuclear Repulsion Energy =            223.4756063872325740
    One-Electron Energy =               -1256.0540592493775875
    Two-Electron Energy =                 441.8400976679116638
    Total Energy =                       -590.7383551942333497
  Basis Set: (AUG-CC-PVTZ AUX)
    Blend: AUG-CC-PVTZ-RI
    Molecular point group: c1

    Geometry (in Angstrom), charge = 0, multiplicity = 1:

       Center              X                  Y                   Z               Mass
    ------------   -----------------  -----------------  -----------------  -----------------
         S           -2.267992054580    -0.163974464233    -0.066238059516    31.972071174400
         O            2.907259045420    -0.476644464233    -0.019966759516    15.994914619570
         C            0.534978945420    -0.264594464233    -0.015231059516    12.000000000000
         C           -0.659012054580     0.676779535767     0.073579940484    12.000000000000
         C            1.854064945420     0.484612535767     0.038240940484    12.000000000000
         H            0.490600945420    -0.841019464233    -0.943773059516     1.007825032230
         H            0.514446945420    -0.982861464233     0.811709940484     1.007825032230
         H           -0.643396054580     1.391253535767    -0.755542059516     1.007825032230
         H           -0.630356054580     1.257102535767     1.000575940484     1.007825032230
         H            1.921223945420     1.186450535767    -0.806625059516     1.007825032230
         H            1.917515945420     1.073622535767     0.965742940484     1.007825032230
         H           -2.101559054580    -0.969173464233     0.993940940484     1.007825032230
         H            3.741416945420    -0.026798464233     0.002103940484     1.007825032230

  Basis Set: AUG-CC-PVTZ
    Blend: AUG-CC-PVTZ
  Basis Set: (AUG-CC-PVTZ AUX)
    Blend: AUG-CC-PVTZ-JKFIT
	 Reference Energy          =    -590.7383551942333497 [Eh]
	 Singles Energy            =      -0.0000000000000000 [Eh]
	 Same-Spin Energy          =      -0.2469401861249267 [Eh]
	 Opposite-Spin Energy      =      -0.8287183353644110 [Eh]
	 Correlation Energy        =      -1.0756585214893377 [Eh]
	 Total Energy              =    -591.8140137157226945 [Eh]

	 ================> DF-SCS-MP2 Energies <==================
	-----------------------------------------------------------
	 SCS Same-Spin Scale       =       0.3333333333333333 [-]
	 SCS Opposite-Spin Scale   =       1.2000000000000000 [-]
	 SCS Same-Spin Energy      =      -0.0823133953749756 [Eh]
	 SCS Opposite-Spin Energy  =      -0.9944620024372931 [Eh]
	 SCS Correlation Energy    =      -1.0767753978122687 [Eh]
	 SCS Total Energy          =    -591.8151305920456480 [Eh]
	-----------------------------------------------------------

  Dipole Moment: [D]
     X:     1.6267      Y:     1.7109      Z:     0.7002     Total:     2.4624

*** Psi4 exiting successfully. Buy a developer a beer!
