                               Psi4 1.3.2 release

  ==> Input File <==

--------------------------------------------------------------------------
#psi4
#
memory 32 gb

molecule  {
0 1
  S       -2.3164830    -0.1817160    -0.0786020
  O        2.8418010    -0.5125780    -0.0335720
  C        0.4864880    -0.2823360    -0.0275950
  C       -0.6835173     0.5866259     0.1628657
  C        1.8055740     0.4668710     0.0258770
  H        0.4421100    -0.8587610    -0.9561370
  H        0.4659560    -1.0006030     0.7993460
  H       -0.6918870     1.3735120    -0.7679060
  H       -0.6788470     1.2393610     0.9882120
  H        1.8727330     1.1687090    -0.8189890
  H        1.8690250     1.0558810     0.9533790
  H       -2.1500500    -0.9869150     0.9815770
  H        3.6929260    -0.0445400    -0.0102600
units angstrom
no_reorient  #important for SAPT in psi4, default
symmetry c1  #important for SAPT in psi4, default
}

set PROPERTIES_ORIGIN ["COM"]
properties('MP2/aug-cc-pvtz', properties = ['dipole'])
--------------------------------------------------------------------------

    Molecular point group: c1
  Charge       = 0
  Multiplicity = 1
  Basis Set: AUG-CC-PVTZ
    Blend: AUG-CC-PVTZ
  Basis Set: (AUG-CC-PVTZ AUX)
    Blend: AUG-CC-PVTZ-JKFIT

    Orbital Energies [Eh]
    ---------------------

    Doubly Occupied:

       1A    -91.954696     2A    -20.566298     3A    -11.285391
       4A    -11.269154     5A    -11.228078     6A     -8.955585
       7A     -6.636890     8A     -6.635796     9A     -6.634773
      10A     -1.363032    11A     -1.095275    12A     -0.988507
      13A     -0.873387    14A     -0.808335    15A     -0.697539
      16A     -0.671933    17A     -0.607214    18A     -0.591374
      19A     -0.559268    20A     -0.529410    21A     -0.511775
      22A     -0.460352    23A     -0.454912    24A     -0.451933
      25A     -0.361266

  @DF-RHF Final Energy:  -590.72090240501620

   => Energetics <=

    Nuclear Repulsion Energy =            224.0714753825655805
    One-Electron Energy =               -1257.2004112843078474
    Two-Electron Energy =                 442.4080334967261479
    Total Energy =                       -590.7209024050162043
  Basis Set: (AUG-CC-PVTZ AUX)
    Blend: AUG-CC-PVTZ-RI
    Molecular point group: c1

    Geometry (in Angstrom), charge = 0, multiplicity = 1:

       Center              X                  Y                   Z               Mass
    ------------   -----------------  -----------------  -----------------  -----------------
         S           -2.268170704565    -0.151370640435    -0.079276713323    31.972071174400
         O            2.890113295435    -0.482232640435    -0.034246713323    15.994914619570
         C            0.534800295435    -0.251990640435    -0.028269713323    12.000000000000
         C           -0.635205004565     0.616971259565     0.162190986677    12.000000000000
         C            1.853886295435     0.497216359565     0.025202286677    12.000000000000
         H            0.490422295435    -0.828415640435    -0.956811713323     1.007825032230
         H            0.514268295435    -0.970257640435     0.798671286677     1.007825032230
         H           -0.643574704565     1.403857359565    -0.768580713323     1.007825032230
         H           -0.630534704565     1.269706359565     0.987537286677     1.007825032230
         H            1.921045295435     1.199054359565    -0.819663713323     1.007825032230
         H            1.917337295435     1.086226359565     0.952704286677     1.007825032230
         H           -2.101737704565    -0.956569640435     0.980902286677     1.007825032230
         H            3.741238295435    -0.014194640435    -0.010934713323     1.007825032230

  Basis Set: AUG-CC-PVTZ
    Blend: AUG-CC-PVTZ
  Basis Set: (AUG-CC-PVTZ AUX)
    Blend: AUG-CC-PVTZ-JKFIT
	 Reference Energy          =    -590.7209024050162043 [Eh]
	 Singles Energy            =      -0.0000000000000000 [Eh]
	 Same-Spin Energy          =      -0.2483435631630239 [Eh]
	 Opposite-Spin Energy      =      -0.8313904906651617 [Eh]
	 Correlation Energy        =      -1.0797340538281857 [Eh]
	 Total Energy              =    -591.8006364588443375 [Eh]

	 ================> DF-SCS-MP2 Energies <==================
	-----------------------------------------------------------
	 SCS Same-Spin Scale       =       0.3333333333333333 [-]
	 SCS Opposite-Spin Scale   =       1.2000000000000000 [-]
	 SCS Same-Spin Energy      =      -0.0827811877210080 [Eh]
	 SCS Opposite-Spin Energy  =      -0.9976685887981940 [Eh]
	 SCS Correlation Energy    =      -1.0804497765192020 [Eh]
	 SCS Total Energy          =    -591.8013521815354352 [Eh]
	-----------------------------------------------------------

  Dipole Moment: [D]
     X:     1.6436      Y:     1.6682      Z:     0.7329     Total:     2.4539

*** Psi4 exiting successfully. Buy a developer a beer!
