                               Psi4 1.3.2 release

  ==> Input File <==

--------------------------------------------------------------------------
#psi4
#
memory 32 gb

molecule  {
0 1
  S       -2.3164830    -0.1817160    -0.0786020
  O        2.9077244    -0.4380756    -0.0285018
  C        0.4864880    -0.2823360    -0.0275950
  C       -0.7075030     0.6590380     0.0612160
  C        1.8055740     0.4668710     0.0258770
  H        0.4421100    -0.8587610    -0.9561370
  H        0.4659560    -1.0006030     0.7993460
  H       -0.6918870     1.3735120    -0.7679060
  H       -0.6788470     1.2393610     0.9882120
  H        1.8727330     1.1687090    -0.8189890
  H        1.8690250     1.0558810     0.9533790
  H       -2.1500500    -0.9869150     0.9815770
  H        3.6929260    -0.0445400    -0.0102600
units angstrom
no_reorient  #important for SAPT in psi4, default
symmetry c1  #important for SAPT in psi4, default
}

set PROPERTIES_ORIGIN ["COM"]
properties('MP2/aug-cc-pvtz', properties = ['dipole'])
--------------------------------------------------------------------------

    Molecular point group: c1
  Charge       = 0
  Multiplicity = 1
  Basis Set: AUG-CC-PVTZ
    Blend: AUG-CC-PVTZ
  Basis Set: (AUG-CC-PVTZ AUX)
    Blend: AUG-CC-PVTZ-JKFIT

    Orbital Energies [Eh]
    ---------------------

    Doubly Occupied:

       1A    -91.953505     2A    -20.552238     3A    -11.286213
       4A    -11.267090     5A    -11.232883     6A     -8.954632
       7A     -6.635984     8A     -6.634966     9A     -6.633937
      10A     -1.380247    11A     -1.090725    12A     -0.992865
      13A     -0.877032    14A     -0.813154    15A     -0.715687
      16A     -0.672706    17A     -0.609860    18A     -0.594005
      19A     -0.552583    20A     -0.530209    21A     -0.508164
      22A     -0.490828    23A     -0.451558    24A     -0.448954
      25A     -0.358398

  @DF-RHF Final Energy:  -590.73280266590928

   => Energetics <=

    Nuclear Repulsion Energy =            223.4173392592213077
    One-Electron Energy =               -1255.8234389258680039
    Two-Electron Energy =                 441.6732970007374774
    Total Energy =                       -590.7328026659092757
  Basis Set: (AUG-CC-PVTZ AUX)
    Blend: AUG-CC-PVTZ-RI
    Molecular point group: c1

    Geometry (in Angstrom), charge = 0, multiplicity = 1:

       Center              X                  Y                   Z               Mass
    ------------   -----------------  -----------------  -----------------  -----------------
         S           -2.276500751317    -0.173761317340    -0.066903529516    31.972071174400
         O            2.947706648683    -0.430120917340    -0.016803329516    15.994914619570
         C            0.526470248683    -0.274381317340    -0.015896529516    12.000000000000
         C           -0.667520751317     0.666992682660     0.072914470484    12.000000000000
         C            1.845556248683     0.474825682660     0.037575470484    12.000000000000
         H            0.482092248683    -0.850806317340    -0.944438529516     1.007825032230
         H            0.505938248683    -0.992648317340     0.811044470484     1.007825032230
         H           -0.651904751317     1.381466682660    -0.756207529516     1.007825032230
         H           -0.638864751317     1.247315682660     0.999910470484     1.007825032230
         H            1.912715248683     1.176663682660    -0.807290529516     1.007825032230
         H            1.909007248683     1.063835682660     0.965077470484     1.007825032230
         H           -2.110067751317    -0.978960317340     0.993275470484     1.007825032230
         H            3.732908248683    -0.036585317340     0.001438470484     1.007825032230

  Basis Set: AUG-CC-PVTZ
    Blend: AUG-CC-PVTZ
  Basis Set: (AUG-CC-PVTZ AUX)
    Blend: AUG-CC-PVTZ-JKFIT
	 Reference Energy          =    -590.7328026659092757 [Eh]
	 Singles Energy            =      -0.0000000000000000 [Eh]
	 Same-Spin Energy          =      -0.2459657907112784 [Eh]
	 Opposite-Spin Energy      =      -0.8263638302247944 [Eh]
	 Correlation Energy        =      -1.0723296209360729 [Eh]
	 Total Energy              =    -591.8051322868453781 [Eh]

	 ================> DF-SCS-MP2 Energies <==================
	-----------------------------------------------------------
	 SCS Same-Spin Scale       =       0.3333333333333333 [-]
	 SCS Opposite-Spin Scale   =       1.2000000000000000 [-]
	 SCS Same-Spin Energy      =      -0.0819885969037595 [Eh]
	 SCS Opposite-Spin Energy  =      -0.9916365962697533 [Eh]
	 SCS Correlation Energy    =      -1.0736251931735128 [Eh]
	 SCS Total Energy          =    -591.8064278590827598 [Eh]
	-----------------------------------------------------------

  Dipole Moment: [D]
     X:     1.4706      Y:     1.6469      Z:     0.6960     Total:     2.3150

*** Psi4 exiting successfully. Buy a developer a beer!
