                               Psi4 1.3.2 release

  ==> Input File <==

--------------------------------------------------------------------------
#psi4
#
memory 32 gb

molecule  {
0 1
  S       -2.3164830    -0.1817160    -0.0786020
  O        2.9386916    -0.3991475    -0.0258657
  C        0.4864880    -0.2823360    -0.0275950
  C       -0.7075030     0.6590380     0.0612160
  C        1.8055740     0.4668710     0.0258770
  H        0.4421100    -0.8587610    -0.9561370
  H        0.4659560    -1.0006030     0.7993460
  H       -0.6918870     1.3735120    -0.7679060
  H       -0.6788470     1.2393610     0.9882120
  H        1.8727330     1.1687090    -0.8189890
  H        1.8690250     1.0558810     0.9533790
  H       -2.1500500    -0.9869150     0.9815770
  H        3.6929260    -0.0445400    -0.0102600
units angstrom
no_reorient  #important for SAPT in psi4, default
symmetry c1  #important for SAPT in psi4, default
}

set PROPERTIES_ORIGIN ["COM"]
properties('MP2/aug-cc-pvtz', properties = ['dipole'])
--------------------------------------------------------------------------

    Molecular point group: c1
  Charge       = 0
  Multiplicity = 1
  Basis Set: AUG-CC-PVTZ
    Blend: AUG-CC-PVTZ
  Basis Set: (AUG-CC-PVTZ AUX)
    Blend: AUG-CC-PVTZ-JKFIT

    Orbital Energies [Eh]
    ---------------------

    Doubly Occupied:

       1A    -91.954321     2A    -20.544822     3A    -11.287624
       4A    -11.268133     5A    -11.234482     6A     -8.955435
       7A     -6.636785     8A     -6.635767     9A     -6.634736
      10A     -1.391055    11A     -1.092512    12A     -0.996138
      13A     -0.881848    14A     -0.814499    15A     -0.724075
      16A     -0.673196    17A     -0.610571    18A     -0.596137
      19A     -0.554836    20A     -0.530028    21A     -0.508270
      22A     -0.489373    23A     -0.452051    24A     -0.449044
      25A     -0.359243

  @DF-RHF Final Energy:  -590.71961202095429

   => Energetics <=

    Nuclear Repulsion Energy =            223.4223984325991523
    One-Electron Energy =               -1255.7340630456774306
    Two-Electron Energy =                 441.5920525921241051
    Total Energy =                       -590.7196120209542869
  Basis Set: (AUG-CC-PVTZ AUX)
    Blend: AUG-CC-PVTZ-RI
    Molecular point group: c1

    Geometry (in Angstrom), charge = 0, multiplicity = 1:

       Center              X                  Y                   Z               Mass
    ------------   -----------------  -----------------  -----------------  -----------------
         S           -2.281882908744    -0.180527094113    -0.067361688639    31.972071174400
         O            2.973291691256    -0.397958594113    -0.014625388639    15.994914619570
         C            0.521088091256    -0.281147094113    -0.016354688639    12.000000000000
         C           -0.672902908744     0.660226905887     0.072456311361    12.000000000000
         C            1.840174091256     0.468059905887     0.037117311361    12.000000000000
         H            0.476710091256    -0.857572094113    -0.944896688639     1.007825032230
         H            0.500556091256    -0.999414094113     0.810586311361     1.007825032230
         H           -0.657286908744     1.374700905887    -0.756665688639     1.007825032230
         H           -0.644246908744     1.240549905887     0.999452311361     1.007825032230
         H            1.907333091256     1.169897905887    -0.807748688639     1.007825032230
         H            1.903625091256     1.057069905887     0.964619311361     1.007825032230
         H           -2.115449908744    -0.985726094113     0.992817311361     1.007825032230
         H            3.727526091256    -0.043351094113     0.000980311361     1.007825032230

  Basis Set: AUG-CC-PVTZ
    Blend: AUG-CC-PVTZ
  Basis Set: (AUG-CC-PVTZ AUX)
    Blend: AUG-CC-PVTZ-JKFIT
	 Reference Energy          =    -590.7196120209542869 [Eh]
	 Singles Energy            =      -0.0000000000000000 [Eh]
	 Same-Spin Energy          =      -0.2454120089737466 [Eh]
	 Opposite-Spin Energy      =      -0.8250645022225537 [Eh]
	 Correlation Energy        =      -1.0704765111963004 [Eh]
	 Total Energy              =    -591.7900885321505484 [Eh]

	 ================> DF-SCS-MP2 Energies <==================
	-----------------------------------------------------------
	 SCS Same-Spin Scale       =       0.3333333333333333 [-]
	 SCS Opposite-Spin Scale   =       1.2000000000000000 [-]
	 SCS Same-Spin Energy      =      -0.0818040029912489 [Eh]
	 SCS Opposite-Spin Energy  =      -0.9900774026670643 [Eh]
	 SCS Correlation Energy    =      -1.0718814056583132 [Eh]
	 SCS Total Energy          =    -591.7914934266126465 [Eh]
	-----------------------------------------------------------

  Dipole Moment: [D]
     X:     1.3574      Y:     1.5997      Z:     0.6928     Total:     2.2095

*** Psi4 exiting successfully. Buy a developer a beer!
