                               Psi4 1.3.2 release

  ==> Input File <==

--------------------------------------------------------------------------
#psi4
#
memory 32 gb

molecule  {
0 1
  S       -2.3164830    -0.1817160    -0.0786020
  O        2.8418010    -0.5125780    -0.0335720
  C        0.4864880    -0.2823360    -0.0275950
  C       -0.7075030     0.6590380     0.0612160
  C        1.8404499     0.5023878     0.0277585
  H        0.4421100    -0.8587610    -0.9561370
  H        0.4659560    -1.0006030     0.7993460
  H       -0.6918870     1.3735120    -0.7679060
  H       -0.6788470     1.2393610     0.9882120
  H        1.8727330     1.1687090    -0.8189890
  H        1.8690250     1.0558810     0.9533790
  H       -2.1500500    -0.9869150     0.9815770
  H        3.6929260    -0.0445400    -0.0102600
units angstrom
no_reorient  #important for SAPT in psi4, default
symmetry c1  #important for SAPT in psi4, default
}

set PROPERTIES_ORIGIN ["COM"]
properties('MP2/aug-cc-pvtz', properties = ['dipole'])
--------------------------------------------------------------------------

    Molecular point group: c1
  Charge       = 0
  Multiplicity = 1
  Basis Set: AUG-CC-PVTZ
    Blend: AUG-CC-PVTZ
  Basis Set: (AUG-CC-PVTZ AUX)
    Blend: AUG-CC-PVTZ-JKFIT

    Orbital Energies [Eh]
    ---------------------

    Doubly Occupied:

       1A    -91.951050     2A    -20.567497     3A    -11.282685
       4A    -11.263765     5A    -11.230985     6A     -8.952218
       7A     -6.633573     8A     -6.632557     9A     -6.631533
      10A     -1.363895    11A     -1.082753    12A     -0.982188
      13A     -0.871908    14A     -0.812088    15A     -0.695304
      16A     -0.673237    17A     -0.611980    18A     -0.586289
      19A     -0.545004    20A     -0.531070    21A     -0.507666
      22A     -0.488827    23A     -0.460214    24A     -0.441399
      25A     -0.355537

  @DF-RHF Final Energy:  -590.73461448570094

   => Energetics <=

    Nuclear Repulsion Energy =            222.9681459020696934
    One-Electron Energy =               -1255.0950758807230159
    Two-Electron Energy =                 441.3923154929523776
    Total Energy =                       -590.7346144857010586
  Basis Set: (AUG-CC-PVTZ AUX)
    Blend: AUG-CC-PVTZ-RI
    Molecular point group: c1

    Geometry (in Angstrom), charge = 0, multiplicity = 1:

       Center              X                  Y                   Z               Mass
    ------------   -----------------  -----------------  -----------------  -----------------
         S           -2.269590708779    -0.165443797292    -0.066267653396    31.972071174400
         O            2.888693291221    -0.496305797292    -0.021237653396    15.994914619570
         C            0.533380291221    -0.266063797292    -0.015260653396    12.000000000000
         C           -0.660610708779     0.675310202708     0.073550346604    12.000000000000
         C            1.887342191221     0.518660002708     0.040092846604    12.000000000000
         H            0.489002291221    -0.842488797292    -0.943802653396     1.007825032230
         H            0.512848291221    -0.984330797292     0.811680346604     1.007825032230
         H           -0.644994708779     1.389784202708    -0.755571653396     1.007825032230
         H           -0.631954708779     1.255633202708     1.000546346604     1.007825032230
         H            1.919625291221     1.184981202708    -0.806654653396     1.007825032230
         H            1.915917291221     1.072153202708     0.965713346604     1.007825032230
         H           -2.103157708779    -0.970642797292     0.993911346604     1.007825032230
         H            3.739818291221    -0.028267797292     0.002074346604     1.007825032230

  Basis Set: AUG-CC-PVTZ
    Blend: AUG-CC-PVTZ
  Basis Set: (AUG-CC-PVTZ AUX)
    Blend: AUG-CC-PVTZ-JKFIT
	 Reference Energy          =    -590.7346144857009449 [Eh]
	 Singles Energy            =      -0.0000000000000000 [Eh]
	 Same-Spin Energy          =      -0.2472233293515959 [Eh]
	 Opposite-Spin Energy      =      -0.8298061751068475 [Eh]
	 Correlation Energy        =      -1.0770295044584435 [Eh]
	 Total Energy              =    -591.8116439901593822 [Eh]

	 ================> DF-SCS-MP2 Energies <==================
	-----------------------------------------------------------
	 SCS Same-Spin Scale       =       0.3333333333333333 [-]
	 SCS Opposite-Spin Scale   =       1.2000000000000000 [-]
	 SCS Same-Spin Energy      =      -0.0824077764505320 [Eh]
	 SCS Opposite-Spin Energy  =      -0.9957674101282170 [Eh]
	 SCS Correlation Energy    =      -1.0781751865787490 [Eh]
	 SCS Total Energy          =    -591.8127896722796777 [Eh]
	-----------------------------------------------------------

  Dipole Moment: [D]
     X:     1.7548      Y:     1.7634      Z:     0.7023     Total:     2.5850

*** Psi4 exiting successfully. Buy a developer a beer!
