                               Psi4 1.3.2 release

  ==> Input File <==

--------------------------------------------------------------------------
#psi4
#
memory 32 gb

molecule  {
0 1
  S       -2.2764353    -0.2303996    -0.1889540
  O        2.8418010    -0.5125780    -0.0335720
  C        0.4864880    -0.2823360    -0.0275950
  C       -0.7075030     0.6590380     0.0612160
  C        1.8055740     0.4668710     0.0258770
  H        0.4421100    -0.8587610    -0.9561370
  H        0.4659560    -1.0006030     0.7993460
  H       -0.6918870     1.3735120    -0.7679060
  H       -0.6788470     1.2393610     0.9882120
  H        1.8727330     1.1687090    -0.8189890
  H        1.8690250     1.0558810     0.9533790
  H       -2.1500500    -0.9869150     0.9815770
  H        3.6929260    -0.0445400    -0.0102600
units angstrom
no_reorient  #important for SAPT in psi4, default
symmetry c1  #important for SAPT in psi4, default
}

set PROPERTIES_ORIGIN ["COM"]
properties('MP2/aug-cc-pvtz', properties = ['dipole'])
--------------------------------------------------------------------------

    Molecular point group: c1
  Charge       = 0
  Multiplicity = 1
  Basis Set: AUG-CC-PVTZ
    Blend: AUG-CC-PVTZ
  Basis Set: (AUG-CC-PVTZ AUX)
    Blend: AUG-CC-PVTZ-JKFIT

    Orbital Energies [Eh]
    ---------------------

    Doubly Occupied:

       1A    -91.956786     2A    -20.565111     3A    -11.283276
       4A    -11.264919     5A    -11.228445     6A     -8.956598
       7A     -6.637814     8A     -6.636854     9A     -6.635874
      10A     -1.361778    11A     -1.087216    12A     -0.983695
      13A     -0.865113    14A     -0.810421    15A     -0.695342
      16A     -0.671950    17A     -0.608886    18A     -0.589160
      19A     -0.542530    20A     -0.526328    21A     -0.507270
      22A     -0.486835    23A     -0.452564    24A     -0.449241
      25A     -0.357121

  @DF-RHF Final Energy:  -590.73346596737088

   => Energetics <=

    Nuclear Repulsion Energy =            223.7580304000398996
    One-Electron Energy =               -1256.6607386263974604
    Two-Electron Energy =                 442.1692422589868556
    Total Energy =                       -590.7334659673707620
  Basis Set: (AUG-CC-PVTZ AUX)
    Blend: AUG-CC-PVTZ-RI
    Molecular point group: c1

    Geometry (in Angstrom), charge = 0, multiplicity = 1:

       Center              X                  Y                   Z               Mass
    ------------   -----------------  -----------------  -----------------  -----------------
         S           -2.238908443871    -0.192583052595    -0.138036843773    31.972071174400
         O            2.879327856129    -0.474761452595     0.017345156227    15.994914619570
         C            0.524014856129    -0.244519452595     0.023322156227    12.000000000000
         C           -0.669976143871     0.696854547405     0.112133156227    12.000000000000
         C            1.843100856129     0.504687547405     0.076794156227    12.000000000000
         H            0.479636856129    -0.820944452595    -0.905219843773     1.007825032230
         H            0.503482856129    -0.962786452595     0.850263156227     1.007825032230
         H           -0.654360143871     1.411328547405    -0.716988843773     1.007825032230
         H           -0.641320143871     1.277177547405     1.039129156227     1.007825032230
         H            1.910259856129     1.206525547405    -0.768071843773     1.007825032230
         H            1.906551856129     1.093697547405     1.004296156227     1.007825032230
         H           -2.112523143871    -0.949098452595     1.032494156227     1.007825032230
         H            3.730452856129    -0.006723452595     0.040657156227     1.007825032230

  Basis Set: AUG-CC-PVTZ
    Blend: AUG-CC-PVTZ
  Basis Set: (AUG-CC-PVTZ AUX)
    Blend: AUG-CC-PVTZ-JKFIT
	 Reference Energy          =    -590.7334659673708757 [Eh]
	 Singles Energy            =      -0.0000000000000000 [Eh]
	 Same-Spin Energy          =      -0.2475646726560343 [Eh]
	 Opposite-Spin Energy      =      -0.8304164556112272 [Eh]
	 Correlation Energy        =      -1.0779811282672616 [Eh]
	 Total Energy              =    -591.8114470956381865 [Eh]

	 ================> DF-SCS-MP2 Energies <==================
	-----------------------------------------------------------
	 SCS Same-Spin Scale       =       0.3333333333333333 [-]
	 SCS Opposite-Spin Scale   =       1.2000000000000000 [-]
	 SCS Same-Spin Energy      =      -0.0825215575520114 [Eh]
	 SCS Opposite-Spin Energy  =      -0.9964997467334726 [Eh]
	 SCS Correlation Energy    =      -1.0790213042854842 [Eh]
	 SCS Total Energy          =    -591.8124872716563232 [Eh]
	-----------------------------------------------------------

  Dipole Moment: [D]
     X:     1.5832      Y:     1.7875      Z:     0.7611     Total:     2.5062

*** Psi4 exiting successfully. Buy a developer a beer!
