                               Psi4 1.3.2 release

  ==> Input File <==

--------------------------------------------------------------------------
#psi4
#
memory 32 gb

molecule  {
0 1
  S       -2.3719487    -0.0680802    -0.0658764
  O        2.8418010    -0.5125780    -0.0335720
  C        0.4864880    -0.2823360    -0.0275950
  C       -0.7075030     0.6590380     0.0612160
  C        1.8055740     0.4668710     0.0258770
  H        0.4421100    -0.8587610    -0.9561370
  H        0.4659560    -1.0006030     0.7993460
  H       -0.6918870     1.3735120    -0.7679060
  H       -0.6788470     1.2393610     0.9882120
  H        1.8727330     1.1687090    -0.8189890
  H        1.8690250     1.0558810     0.9533790
  H       -2.1500500    -0.9869150     0.9815770
  H        3.6929260    -0.0445400    -0.0102600
units angstrom
no_reorient  #important for SAPT in psi4, default
symmetry c1  #important for SAPT in psi4, default
}

set PROPERTIES_ORIGIN ["COM"]
properties('MP2/aug-cc-pvtz', properties = ['dipole'])
--------------------------------------------------------------------------

    Molecular point group: c1
  Charge       = 0
  Multiplicity = 1
  Basis Set: AUG-CC-PVTZ
    Blend: AUG-CC-PVTZ
  Basis Set: (AUG-CC-PVTZ AUX)
    Blend: AUG-CC-PVTZ-JKFIT

    Orbital Energies [Eh]
    ---------------------

    Doubly Occupied:

       1A    -91.957906     2A    -20.566576     3A    -11.285584
       4A    -11.264384     5A    -11.231584     6A     -8.957405
       7A     -6.638610     8A     -6.637642     9A     -6.636667
      10A     -1.363272    11A     -1.085945    12A     -0.986264
      13A     -0.866018    14A     -0.809320    15A     -0.696742
      16A     -0.672229    17A     -0.606783    18A     -0.589823
      19A     -0.547969    20A     -0.523214    21A     -0.509456
      22A     -0.486739    23A     -0.453270    24A     -0.449628
      25A     -0.356887

  @DF-RHF Final Energy:  -590.73290147818682

   => Energetics <=

    Nuclear Repulsion Energy =            222.4580856084117499
    One-Electron Energy =               -1254.0221454830107177
    Two-Electron Energy =                 440.8311583964123201
    Total Energy =                       -590.7329014781867045
  Basis Set: (AUG-CC-PVTZ AUX)
    Blend: AUG-CC-PVTZ-RI
    Molecular point group: c1

    Geometry (in Angstrom), charge = 0, multiplicity = 1:

       Center              X                  Y                   Z               Mass
    ------------   -----------------  -----------------  -----------------  -----------------
         S           -2.301239458142    -0.086655163547    -0.057717729995    31.972071174400
         O            2.912510241858    -0.531152963547    -0.025413329995    15.994914619570
         C            0.557197241858    -0.300910963547    -0.019436329995    12.000000000000
         C           -0.636793758142     0.640463036453     0.069374670005    12.000000000000
         C            1.876283241858     0.448296036453     0.034035670005    12.000000000000
         H            0.512819241858    -0.877335963547    -0.947978329995     1.007825032230
         H            0.536665241858    -1.019177963547     0.807504670005     1.007825032230
         H           -0.621177758142     1.354937036453    -0.759747329995     1.007825032230
         H           -0.608137758142     1.220786036453     0.996370670005     1.007825032230
         H            1.943442241858     1.150134036453    -0.810830329995     1.007825032230
         H            1.939734241858     1.037306036453     0.961537670005     1.007825032230
         H           -2.079340758142    -1.005489963547     0.989735670005     1.007825032230
         H            3.763635241858    -0.063114963547    -0.002101329995     1.007825032230

  Basis Set: AUG-CC-PVTZ
    Blend: AUG-CC-PVTZ
  Basis Set: (AUG-CC-PVTZ AUX)
    Blend: AUG-CC-PVTZ-JKFIT
	 Reference Energy          =    -590.7329014781868182 [Eh]
	 Singles Energy            =      -0.0000000000000000 [Eh]
	 Same-Spin Energy          =      -0.2473774958994623 [Eh]
	 Opposite-Spin Energy      =      -0.8302144852585527 [Eh]
	 Correlation Energy        =      -1.0775919811580150 [Eh]
	 Total Energy              =    -591.8104934593447979 [Eh]

	 ================> DF-SCS-MP2 Energies <==================
	-----------------------------------------------------------
	 SCS Same-Spin Scale       =       0.3333333333333333 [-]
	 SCS Opposite-Spin Scale   =       1.2000000000000000 [-]
	 SCS Same-Spin Energy      =      -0.0824591652998208 [Eh]
	 SCS Opposite-Spin Energy  =      -0.9962573823102632 [Eh]
	 SCS Correlation Energy    =      -1.0787165476100840 [Eh]
	 SCS Total Energy          =    -591.8116180257968608 [Eh]
	-----------------------------------------------------------

  Dipole Moment: [D]
     X:     1.7178      Y:     1.6509      Z:     0.6418     Total:     2.4674

*** Psi4 exiting successfully. Buy a developer a beer!
