                               Psi4 1.3.2 release

  ==> Input File <==

--------------------------------------------------------------------------
#psi4
#
memory 32 gb

molecule  {
0 1
  S       -2.3164830    -0.1817160    -0.0786020
  O        2.8418010    -0.5125780    -0.0335720
  C        0.4864880    -0.2823360    -0.0275950
  C       -0.7007665     0.6413055     0.0867117
  C        1.8055740     0.4668710     0.0258770
  H        0.4421100    -0.8587610    -0.9561370
  H        0.4659560    -1.0006030     0.7993460
  H       -0.6918870     1.3735120    -0.7679060
  H       -0.6788470     1.2393610     0.9882120
  H        1.8727330     1.1687090    -0.8189890
  H        1.8690250     1.0558810     0.9533790
  H       -2.1500500    -0.9869150     0.9815770
  H        3.6929260    -0.0445400    -0.0102600
units angstrom
no_reorient  #important for SAPT in psi4, default
symmetry c1  #important for SAPT in psi4, default
}

set PROPERTIES_ORIGIN ["COM"]
properties('MP2/aug-cc-pvtz', properties = ['dipole'])
--------------------------------------------------------------------------

    Molecular point group: c1
  Charge       = 0
  Multiplicity = 1
  Basis Set: AUG-CC-PVTZ
    Blend: AUG-CC-PVTZ
  Basis Set: (AUG-CC-PVTZ AUX)
    Blend: AUG-CC-PVTZ-JKFIT

    Orbital Energies [Eh]
    ---------------------

    Doubly Occupied:

       1A    -91.952457     2A    -20.565944     3A    -11.284605
       4A    -11.265759     5A    -11.229267     6A     -8.953562
       7A     -6.634907     8A     -6.633867     9A     -6.632844
      10A     -1.362635    11A     -1.089285    12A     -0.987483
      13A     -0.870411    14A     -0.810484    15A     -0.696422
      16A     -0.672257    17A     -0.608110    18A     -0.590467
      19A     -0.549562    20A     -0.530177    21A     -0.508949
      22A     -0.485390    23A     -0.452860    24A     -0.448577
      25A     -0.357910

  @DF-RHF Final Energy:  -590.73578611512119

   => Energetics <=

    Nuclear Repulsion Energy =            223.6630399928185966
    One-Electron Energy =               -1256.4492705906541232
    Two-Electron Energy =                 442.0504444827143402
    Total Energy =                       -590.7357861151213001
  Basis Set: (AUG-CC-PVTZ AUX)
    Blend: AUG-CC-PVTZ-RI
    Molecular point group: c1

    Geometry (in Angstrom), charge = 0, multiplicity = 1:

       Center              X                  Y                   Z               Mass
    ------------   -----------------  -----------------  -----------------  -----------------
         S           -2.265921532218    -0.158500469310    -0.069346776232    31.972071174400
         O            2.892362467782    -0.489362469310    -0.024316776232    15.994914619570
         C            0.537049467782    -0.259120469310    -0.018339776232    12.000000000000
         C           -0.650205032218     0.664521030690     0.095966923768    12.000000000000
         C            1.856135467782     0.490086530690     0.035132223768    12.000000000000
         H            0.492671467782    -0.835545469310    -0.946881776232     1.007825032230
         H            0.516517467782    -0.977387469310     0.808601223768     1.007825032230
         H           -0.641325532218     1.396727530690    -0.758650776232     1.007825032230
         H           -0.628285532218     1.262576530690     0.997467223768     1.007825032230
         H            1.923294467782     1.191924530690    -0.809733776232     1.007825032230
         H            1.919586467782     1.079096530690     0.962634223768     1.007825032230
         H           -2.099488532218    -0.963699469310     0.990832223768     1.007825032230
         H            3.743487467782    -0.021324469310    -0.001004776232     1.007825032230

  Basis Set: AUG-CC-PVTZ
    Blend: AUG-CC-PVTZ
  Basis Set: (AUG-CC-PVTZ AUX)
    Blend: AUG-CC-PVTZ-JKFIT
	 Reference Energy          =    -590.7357861151211864 [Eh]
	 Singles Energy            =      -0.0000000000000000 [Eh]
	 Same-Spin Energy          =      -0.2475045193928004 [Eh]
	 Opposite-Spin Energy      =      -0.8298938216991018 [Eh]
	 Correlation Energy        =      -1.0773983410919021 [Eh]
	 Total Energy              =    -591.8131844562130937 [Eh]

	 ================> DF-SCS-MP2 Energies <==================
	-----------------------------------------------------------
	 SCS Same-Spin Scale       =       0.3333333333333333 [-]
	 SCS Opposite-Spin Scale   =       1.2000000000000000 [-]
	 SCS Same-Spin Energy      =      -0.0825015064642668 [Eh]
	 SCS Opposite-Spin Energy  =      -0.9958725860389220 [Eh]
	 SCS Correlation Energy    =      -1.0783740925031888 [Eh]
	 SCS Total Energy          =    -591.8141602076243544 [Eh]
	-----------------------------------------------------------

  Dipole Moment: [D]
     X:     1.6672      Y:     1.7203      Z:     0.7071     Total:     2.4978

*** Psi4 exiting successfully. Buy a developer a beer!
