                               Psi4 1.3.2 release

  ==> Input File <==

--------------------------------------------------------------------------
#psi4
#
memory 32 gb

molecule  {
0 1
  S       -2.3164830    -0.1817160    -0.0786020
  O        2.8069251    -0.5480616    -0.0360000
  C        0.4864880    -0.2823360    -0.0275950
  C       -0.7075030     0.6590380     0.0612160
  C        1.8055740     0.4668710     0.0258770
  H        0.4421100    -0.8587610    -0.9561370
  H        0.4659560    -1.0006030     0.7993460
  H       -0.6918870     1.3735120    -0.7679060
  H       -0.6788470     1.2393610     0.9882120
  H        1.8727330     1.1687090    -0.8189890
  H        1.8690250     1.0558810     0.9533790
  H       -2.1500500    -0.9869150     0.9815770
  H        3.6929260    -0.0445400    -0.0102600
units angstrom
no_reorient  #important for SAPT in psi4, default
symmetry c1  #important for SAPT in psi4, default
}

set PROPERTIES_ORIGIN ["COM"]
properties('MP2/aug-cc-pvtz', properties = ['dipole'])
--------------------------------------------------------------------------

    Molecular point group: c1
  Charge       = 0
  Multiplicity = 1
  Basis Set: AUG-CC-PVTZ
    Blend: AUG-CC-PVTZ
  Basis Set: (AUG-CC-PVTZ AUX)
    Blend: AUG-CC-PVTZ-JKFIT

    Orbital Energies [Eh]
    ---------------------

    Doubly Occupied:

       1A    -91.951239     2A    -20.572002     3A    -11.283928
       4A    -11.264112     5A    -11.228621     6A     -8.952400
       7A     -6.633758     8A     -6.632740     9A     -6.631716
      10A     -1.355644    11A     -1.085965    12A     -0.984968
      13A     -0.867258    14A     -0.811664    15A     -0.686365
      16A     -0.671970    17A     -0.608092    18A     -0.588867
      19A     -0.543914    20A     -0.530673    21A     -0.508104
      22A     -0.491735    23A     -0.453710    24A     -0.445030
      25A     -0.355950

  @DF-RHF Final Energy:  -590.73117119868027

   => Energetics <=

    Nuclear Repulsion Energy =            223.6114103715217141
    One-Electron Energy =               -1256.4043077064177396
    Two-Electron Energy =                 442.0617261362157251
    Total Energy =                       -590.7311711986802720
  Basis Set: (AUG-CC-PVTZ AUX)
    Blend: AUG-CC-PVTZ-RI
    Molecular point group: c1

    Geometry (in Angstrom), charge = 0, multiplicity = 1:

       Center              X                  Y                   Z               Mass
    ------------   -----------------  -----------------  -----------------  -----------------
         S           -2.258981643970    -0.154645544306    -0.065600328296    31.972071174400
         O            2.864426456030    -0.520991144306    -0.022998328296    15.994914619570
         C            0.543989356030    -0.255265544306    -0.014593328296    12.000000000000
         C           -0.650001643970     0.686108455694     0.074217671704    12.000000000000
         C            1.863075356030     0.493941455694     0.038878671704    12.000000000000
         H            0.499611356030    -0.831690544306    -0.943135328296     1.007825032230
         H            0.523457356030    -0.973532544306     0.812347671704     1.007825032230
         H           -0.634385643970     1.400582455694    -0.754904328296     1.007825032230
         H           -0.621345643970     1.266431455694     1.001213671704     1.007825032230
         H            1.930234356030     1.195779455694    -0.805987328296     1.007825032230
         H            1.926526356030     1.082951455694     0.966380671704     1.007825032230
         H           -2.092548643970    -0.959844544306     0.994578671704     1.007825032230
         H            3.750427356030    -0.017469544306     0.002741671704     1.007825032230

  Basis Set: AUG-CC-PVTZ
    Blend: AUG-CC-PVTZ
  Basis Set: (AUG-CC-PVTZ AUX)
    Blend: AUG-CC-PVTZ-JKFIT
	 Reference Energy          =    -590.7311711986802720 [Eh]
	 Singles Energy            =      -0.0000000000000000 [Eh]
	 Same-Spin Energy          =      -0.2480464260143714 [Eh]
	 Opposite-Spin Energy      =      -0.8315224655107090 [Eh]
	 Correlation Energy        =      -1.0795688915250805 [Eh]
	 Total Energy              =    -591.8107400902053996 [Eh]

	 ================> DF-SCS-MP2 Energies <==================
	-----------------------------------------------------------
	 SCS Same-Spin Scale       =       0.3333333333333333 [-]
	 SCS Opposite-Spin Scale   =       1.2000000000000000 [-]
	 SCS Same-Spin Energy      =      -0.0826821420047905 [Eh]
	 SCS Opposite-Spin Energy  =      -0.9978269586128508 [Eh]
	 SCS Correlation Energy    =      -1.0805091006176413 [Eh]
	 SCS Total Energy          =    -591.8116802992979046 [Eh]
	-----------------------------------------------------------

  Dipole Moment: [D]
     X:     1.7654      Y:     1.7680      Z:     0.7039     Total:     2.5958

*** Psi4 exiting successfully. Buy a developer a beer!
