                               Psi4 1.3.2 release

  ==> Input File <==

--------------------------------------------------------------------------
#psi4
#
memory 32 gb

molecule  {
0 1
  S       -2.3164830    -0.1817160    -0.0786020
  O        2.8418010    -0.5125780    -0.0335720
  C        0.4864880    -0.2823360    -0.0275950
  C       -0.7075030     0.6590380     0.0612160
  C        1.8055740     0.4668710     0.0258770
  H        0.4421100    -0.8587610    -0.9561370
  H        0.4659560    -1.0006030     0.7993460
  H       -0.6918870     1.3735120    -0.7679060
  H       -0.6788470     1.2393610     0.9882120
  H        1.8727330     1.1687090    -0.8189890
  H        1.8690250     1.0558810     0.9533790
  H       -2.1500500    -0.9869150     0.9815770
  H        3.7805259     0.0036316    -0.0078607
units angstrom
no_reorient  #important for SAPT in psi4, default
symmetry c1  #important for SAPT in psi4, default
}

set PROPERTIES_ORIGIN ["COM"]
properties('MP2/aug-cc-pvtz', properties = ['dipole'])
--------------------------------------------------------------------------

    Molecular point group: c1
  Charge       = 0
  Multiplicity = 1
  Basis Set: AUG-CC-PVTZ
    Blend: AUG-CC-PVTZ
  Basis Set: (AUG-CC-PVTZ AUX)
    Blend: AUG-CC-PVTZ-JKFIT

    Orbital Energies [Eh]
    ---------------------

    Doubly Occupied:

       1A    -91.951787     2A    -20.574159     3A    -11.283340
       4A    -11.264926     5A    -11.229594     6A     -8.952938
       7A     -6.634294     8A     -6.633276     9A     -6.632250
      10A     -1.344020    11A     -1.086019    12A     -0.983910
      13A     -0.866038    14A     -0.811195    15A     -0.675674
      16A     -0.671161    17A     -0.607606    18A     -0.588365
      19A     -0.545029    20A     -0.527646    21A     -0.506402
      22A     -0.490191    23A     -0.450569    24A     -0.445516
      25A     -0.356507

  @DF-RHF Final Energy:  -590.72377431502832

   => Energetics <=

    Nuclear Repulsion Energy =            222.9656250825778159
    One-Electron Energy =               -1255.1539792015473722
    Two-Electron Energy =                 441.4645798039412057
    Total Energy =                       -590.7237743150283222
  Basis Set: (AUG-CC-PVTZ AUX)
    Blend: AUG-CC-PVTZ-RI
    Molecular point group: c1

    Geometry (in Angstrom), charge = 0, multiplicity = 1:

       Center              X                  Y                   Z               Mass
    ------------   -----------------  -----------------  -----------------  -----------------
         S           -2.266002455890    -0.161340192442    -0.066048594218    31.972071174400
         O            2.892281544110    -0.492202192442    -0.021018594218    15.994914619570
         C            0.536968544110    -0.261960192442    -0.015041594218    12.000000000000
         C           -0.657022455890     0.679413807558     0.073769405782    12.000000000000
         C            1.856054544110     0.487246807558     0.038430405782    12.000000000000
         H            0.492590544110    -0.838385192442    -0.943583594218     1.007825032230
         H            0.516436544110    -0.980227192442     0.811899405782     1.007825032230
         H           -0.641406455890     1.393887807558    -0.755352594218     1.007825032230
         H           -0.628366455890     1.259736807558     1.000765405782     1.007825032230
         H            1.923213544110     1.189084807558    -0.806435594218     1.007825032230
         H            1.919505544110     1.076256807558     0.965932405782     1.007825032230
         H           -2.099569455890    -0.966539192442     0.994130405782     1.007825032230
         H            3.831006444110     0.024007407558     0.004692705782     1.007825032230

  Basis Set: AUG-CC-PVTZ
    Blend: AUG-CC-PVTZ
  Basis Set: (AUG-CC-PVTZ AUX)
    Blend: AUG-CC-PVTZ-JKFIT
	 Reference Energy          =    -590.7237743150283222 [Eh]
	 Singles Energy            =      -0.0000000000000000 [Eh]
	 Same-Spin Energy          =      -0.2483858451500211 [Eh]
	 Opposite-Spin Energy      =      -0.8328230455032086 [Eh]
	 Correlation Energy        =      -1.0812088906532298 [Eh]
	 Total Energy              =    -591.8049832056815376 [Eh]

	 ================> DF-SCS-MP2 Energies <==================
	-----------------------------------------------------------
	 SCS Same-Spin Scale       =       0.3333333333333333 [-]
	 SCS Opposite-Spin Scale   =       1.2000000000000000 [-]
	 SCS Same-Spin Energy      =      -0.0827952817166737 [Eh]
	 SCS Opposite-Spin Energy  =      -0.9993876546038503 [Eh]
	 SCS Correlation Energy    =      -1.0821829363205240 [Eh]
	 SCS Total Energy          =    -591.8059572513489002 [Eh]
	-----------------------------------------------------------

  Dipole Moment: [D]
     X:     1.7436      Y:     1.7536      Z:     0.7024     Total:     2.5707

*** Psi4 exiting successfully. Buy a developer a beer!
