                               Psi4 1.4a3.dev225

  ==> Input File <==

--------------------------------------------------------------------------
#psi4
#
memory 32 gb

molecule  {
0 1
  S       -2.3164950    -0.1817520    -0.0785600
  O        2.8418240    -0.5125870    -0.0336710
  C        0.4864850    -0.2823110    -0.0275730
  C       -0.7075220     0.6590550     0.0609310
  C        1.8055900     0.4668570     0.0262110
  H        0.4423910    -0.8587120    -0.9561410
  H        0.4657080    -1.0005910     0.7993450
  H       -0.6919970     1.3731860    -0.7684900
  H       -0.6788530     1.2397730     0.9876800
  H        1.8727880     1.1690760    -0.8183300
  H        1.8691150     1.0554390     0.9539770
  H       -2.1562915    -0.9565302     0.9424274
  H        3.6929560    -0.0445220    -0.0110750
units angstrom
no_reorient  #important for SAPT in psi4, default
symmetry c1  #important for SAPT in psi4, default
}

set PROPERTIES_ORIGIN ["COM"]
properties('MP2/aug-cc-pvtz', properties = ['dipole'])
--------------------------------------------------------------------------

    Molecular point group: c1
  Charge       = 0
  Multiplicity = 1
  Basis Set: AUG-CC-PVTZ
    Blend: AUG-CC-PVTZ
  Basis Set: (AUG-CC-PVTZ AUX)
    Blend: AUG-CC-PVTZ-JKFIT

    Orbital Energies [Eh]
    ---------------------

    Doubly Occupied:

       1A    -91.947893     2A    -20.565861     3A    -11.284426
       4A    -11.264930     5A    -11.229999     6A     -8.950431
       7A     -6.631933     8A     -6.630759     9A     -6.629695
      10A     -1.362539    11A     -1.088303    12A     -0.990261
      13A     -0.873512    14A     -0.812832    15A     -0.696538
      16A     -0.672215    17A     -0.609880    18A     -0.590644
      19A     -0.549252    20A     -0.532669    21A     -0.508237
      22A     -0.493036    23A     -0.452629    24A     -0.447242
      25A     -0.356897

  @DF-RHF Final Energy:  -590.73640161491926

   => Energetics <=

    Nuclear Repulsion Energy =            223.7875722405333647
    One-Electron Energy =               -1256.7027212116856845
    Two-Electron Energy =                 442.1787473562331456
    Total Energy =                       -590.7364016149192594
  Basis Set: (AUG-CC-PVTZ AUX)
    Blend: AUG-CC-PVTZ-RI
    Molecular point group: c1

    Geometry (in Angstrom), charge = 0, multiplicity = 1:

       Center              X                  Y                   Z               Mass
    ------------   -----------------  -----------------  -----------------  -----------------
         S           -2.264986843163    -0.161171973042    -0.065550795099    31.972071174400
         O            2.893332156837    -0.492006973042    -0.020661795099    15.994914619570
         C            0.537993156837    -0.261730973042    -0.014563795099    12.000000000000
         C           -0.656013843163     0.679635026958     0.073940204901    12.000000000000
         C            1.857098156837     0.487437026958     0.039220204901    12.000000000000
         H            0.493899156837    -0.838131973042    -0.943131795099     1.007825032230
         H            0.517216156837    -0.980010973042     0.812354204901     1.007825032230
         H           -0.640488843163     1.393766026958    -0.755480795099     1.007825032230
         H           -0.627344843163     1.260353026958     1.000689204901     1.007825032230
         H            1.924296156837     1.189656026958    -0.805320795099     1.007825032230
         H            1.920623156837     1.076019026958     0.966986204901     1.007825032230
         H           -2.104783343163    -0.935950173042     0.955436604901     1.007825032230
         H            3.744464156837    -0.023941973042     0.001934204901     1.007825032230

  Basis Set: AUG-CC-PVTZ
    Blend: AUG-CC-PVTZ
  Basis Set: (AUG-CC-PVTZ AUX)
    Blend: AUG-CC-PVTZ-JKFIT
	 Reference Energy          =    -590.7364016149192594 [Eh]
	 Singles Energy            =      -0.0000000000000000 [Eh]
	 Same-Spin Energy          =      -0.2473162429123890 [Eh]
	 Opposite-Spin Energy      =      -0.8293904999127517 [Eh]
	 Correlation Energy        =      -1.0767067428251407 [Eh]
	 Total Energy              =    -591.8131083577444542 [Eh]

	 ================> DF-SCS-MP2 Energies <==================
	-----------------------------------------------------------
	 SCS Same-Spin Scale       =       0.3333333333333333 [-]
	 SCS Opposite-Spin Scale   =       1.2000000000000000 [-]
	 SCS Same-Spin Energy      =      -0.0824387476374630 [Eh]
	 SCS Opposite-Spin Energy  =      -0.9952685998953020 [Eh]
	 SCS Correlation Energy    =      -1.0777073475327650 [Eh]
	 SCS Total Energy          =    -591.8141089624519964 [Eh]
	-----------------------------------------------------------

  Dipole Moment: [D]
     X:     1.6748      Y:     1.7271      Z:     0.7049     Total:     2.5070

*** Psi4 exiting successfully. Buy a developer a beer!
