                               Psi4 1.3.2 release

  ==> Input File <==

--------------------------------------------------------------------------
#psi4
#
memory 32 gb

molecule  {
0 1
  S       -2.3164830    -0.1817160    -0.0786020
  O        2.8418010    -0.5125780    -0.0335720
  C        0.4864880    -0.2823360    -0.0275950
  C       -0.7581323     0.7598711    -0.0923800
  C        1.8055740     0.4668710     0.0258770
  H        0.4421100    -0.8587610    -0.9561370
  H        0.4659560    -1.0006030     0.7993460
  H       -0.6918870     1.3735120    -0.7679060
  H       -0.6788470     1.2393610     0.9882120
  H        1.8727330     1.1687090    -0.8189890
  H        1.8690250     1.0558810     0.9533790
  H       -2.1500500    -0.9869150     0.9815770
  H        3.6929260    -0.0445400    -0.0102600
units angstrom
no_reorient  #important for SAPT in psi4, default
symmetry c1  #important for SAPT in psi4, default
}

set PROPERTIES_ORIGIN ["COM"]
properties('MP2/aug-cc-pvtz', properties = ['dipole'])
--------------------------------------------------------------------------

    Molecular point group: c1
  Charge       = 0
  Multiplicity = 1
  Basis Set: AUG-CC-PVTZ
    Blend: AUG-CC-PVTZ
  Basis Set: (AUG-CC-PVTZ AUX)
    Blend: AUG-CC-PVTZ-JKFIT

    Orbital Energies [Eh]
    ---------------------

    Doubly Occupied:

       1A    -91.951753     2A    -20.565524     3A    -11.283643
       4A    -11.265221     5A    -11.236408     6A     -8.952874
       7A     -6.634271     8A     -6.633426     9A     -6.632351
      10A     -1.362207    11A     -1.079343    12A     -0.987983
      13A     -0.876000    14A     -0.823976    15A     -0.698478
      16A     -0.667509    17A     -0.613976    18A     -0.591452
      19A     -0.553863    20A     -0.538718    21A     -0.504774
      22A     -0.489862    23A     -0.451748    24A     -0.434506
      25A     -0.348918

  @DF-RHF Final Energy:  -590.69203205243412

   => Energetics <=

    Nuclear Repulsion Energy =            222.5322322041615735
    One-Electron Energy =               -1254.0909562238841772
    Two-Electron Energy =                 440.8666919672883751
    Total Energy =                       -590.6920320524342287
  Basis Set: (AUG-CC-PVTZ AUX)
    Blend: AUG-CC-PVTZ-RI
    Molecular point group: c1

    Geometry (in Angstrom), charge = 0, multiplicity = 1:

       Center              X                  Y                   Z               Mass
    ------------   -----------------  -----------------  -----------------  -----------------
         S           -2.258441442070    -0.173960575794    -0.045994499076    31.972071174400
         O            2.899842557930    -0.504822575794    -0.000964499076    15.994914619570
         C            0.544529557930    -0.274580575794     0.005012500924    12.000000000000
         C           -0.700090742070     0.767626524206    -0.059772499076    12.000000000000
         C            1.863615557930     0.474626424206     0.058484500924    12.000000000000
         H            0.500151557930    -0.851005575794    -0.923529499076     1.007825032230
         H            0.523997557930    -0.992847575794     0.831953500924     1.007825032230
         H           -0.633845442070     1.381267424206    -0.735298499076     1.007825032230
         H           -0.620805442070     1.247116424206     1.020819500924     1.007825032230
         H            1.930774557930     1.176464424206    -0.786381499076     1.007825032230
         H            1.927066557930     1.063636424206     0.985986500924     1.007825032230
         H           -2.092008442070    -0.979159575794     1.014184500924     1.007825032230
         H            3.750967557930    -0.036784575794     0.022347500924     1.007825032230

  Basis Set: AUG-CC-PVTZ
    Blend: AUG-CC-PVTZ
  Basis Set: (AUG-CC-PVTZ AUX)
    Blend: AUG-CC-PVTZ-JKFIT
	 Reference Energy          =    -590.6920320524341150 [Eh]
	 Singles Energy            =      -0.0000000000000000 [Eh]
	 Same-Spin Energy          =      -0.2469042393992154 [Eh]
	 Opposite-Spin Energy      =      -0.8305226910281245 [Eh]
	 Correlation Energy        =      -1.0774269304273398 [Eh]
	 Total Energy              =    -591.7694589828614653 [Eh]

	 ================> DF-SCS-MP2 Energies <==================
	-----------------------------------------------------------
	 SCS Same-Spin Scale       =       0.3333333333333333 [-]
	 SCS Opposite-Spin Scale   =       1.2000000000000000 [-]
	 SCS Same-Spin Energy      =      -0.0823014131330718 [Eh]
	 SCS Opposite-Spin Energy  =      -0.9966272292337494 [Eh]
	 SCS Correlation Energy    =      -1.0789286423668212 [Eh]
	 SCS Total Energy          =    -591.7709606948009196 [Eh]
	-----------------------------------------------------------

  Dipole Moment: [D]
     X:     1.7123      Y:     1.7183      Z:     0.6946     Total:     2.5233

*** Psi4 exiting successfully. Buy a developer a beer!
