                               Psi4 1.3.2 release

  ==> Input File <==

--------------------------------------------------------------------------
#psi4
#
memory 32 gb

molecule  {
0 1
  S       -2.3164830    -0.1817160    -0.0786020
  O        2.8502839    -0.5020180    -0.0544742
  C        0.4864880    -0.2823360    -0.0275950
  C       -0.7075030     0.6590380     0.0612160
  C        1.8055740     0.4668710     0.0258770
  H        0.4421100    -0.8587610    -0.9561370
  H        0.4659560    -1.0006030     0.7993460
  H       -0.6918870     1.3735120    -0.7679060
  H       -0.6788470     1.2393610     0.9882120
  H        1.8727330     1.1687090    -0.8189890
  H        1.8690250     1.0558810     0.9533790
  H       -2.1500500    -0.9869150     0.9815770
  H        3.6929260    -0.0445400    -0.0102600
units angstrom
no_reorient  #important for SAPT in psi4, default
symmetry c1  #important for SAPT in psi4, default
}

set PROPERTIES_ORIGIN ["COM"]
properties('MP2/aug-cc-pvtz', properties = ['dipole'])
--------------------------------------------------------------------------

    Molecular point group: c1
  Charge       = 0
  Multiplicity = 1
  Basis Set: AUG-CC-PVTZ
    Blend: AUG-CC-PVTZ
  Basis Set: (AUG-CC-PVTZ AUX)
    Blend: AUG-CC-PVTZ-JKFIT

    Orbital Energies [Eh]
    ---------------------

    Doubly Occupied:

       1A    -91.952153     2A    -20.564246     3A    -11.284546
       4A    -11.265324     5A    -11.230289     6A     -8.953300
       7A     -6.634656     8A     -6.633638     9A     -6.632611
      10A     -1.364442    11A     -1.087841    12A     -0.987935
      13A     -0.870541    14A     -0.811886    15A     -0.698909
      16A     -0.671993    17A     -0.608781    18A     -0.590883
      19A     -0.547455    20A     -0.530985    21A     -0.507894
      22A     -0.492048    23A     -0.452619    24A     -0.446823
      25A     -0.356959

  @DF-RHF Final Energy:  -590.73788041810826

   => Energetics <=

    Nuclear Repulsion Energy =            223.4926638187083370
    One-Electron Energy =               -1256.1035723891593534
    Two-Electron Energy =                 441.8730281523428403
    Total Energy =                       -590.7378804181082614
  Basis Set: (AUG-CC-PVTZ AUX)
    Blend: AUG-CC-PVTZ-RI
    Molecular point group: c1

    Geometry (in Angstrom), charge = 0, multiplicity = 1:

       Center              X                  Y                   Z               Mass
    ------------   -----------------  -----------------  -----------------  -----------------
         S           -2.266517484711    -0.162648008322    -0.062389477695    31.972071174400
         O            2.900249415289    -0.482950008322    -0.038261677695    15.994914619570
         C            0.536453515289    -0.263268008322    -0.011382477695    12.000000000000
         C           -0.657537484711     0.678105991678     0.077428522305    12.000000000000
         C            1.855539515289     0.485938991678     0.042089522305    12.000000000000
         H            0.492075515289    -0.839693008322    -0.939924477695     1.007825032230
         H            0.515921515289    -0.981535008322     0.815558522305     1.007825032230
         H           -0.641921484711     1.392579991678    -0.751693477695     1.007825032230
         H           -0.628881484711     1.258428991678     1.004424522305     1.007825032230
         H            1.922698515289     1.187776991678    -0.802776477695     1.007825032230
         H            1.918990515289     1.074948991678     0.969591522305     1.007825032230
         H           -2.100084484711    -0.967847008322     0.997789522305     1.007825032230
         H            3.742891515289    -0.025472008322     0.005952522305     1.007825032230

  Basis Set: AUG-CC-PVTZ
    Blend: AUG-CC-PVTZ
  Basis Set: (AUG-CC-PVTZ AUX)
    Blend: AUG-CC-PVTZ-JKFIT
	 Reference Energy          =    -590.7378804181082614 [Eh]
	 Singles Energy            =      -0.0000000000000000 [Eh]
	 Same-Spin Energy          =      -0.2471190078498538 [Eh]
	 Opposite-Spin Energy      =      -0.8291611891606352 [Eh]
	 Correlation Energy        =      -1.0762801970104889 [Eh]
	 Total Energy              =    -591.8141606151187943 [Eh]

	 ================> DF-SCS-MP2 Energies <==================
	-----------------------------------------------------------
	 SCS Same-Spin Scale       =       0.3333333333333333 [-]
	 SCS Opposite-Spin Scale   =       1.2000000000000000 [-]
	 SCS Same-Spin Energy      =      -0.0823730026166179 [Eh]
	 SCS Opposite-Spin Energy  =      -0.9949934269927622 [Eh]
	 SCS Correlation Energy    =      -1.0773664296093801 [Eh]
	 SCS Total Energy          =    -591.8152468477176171 [Eh]
	-----------------------------------------------------------

  Dipole Moment: [D]
     X:     1.6511      Y:     1.7172      Z:     0.7521     Total:     2.4981

*** Psi4 exiting successfully. Buy a developer a beer!
