                               Psi4 1.3.2 release

  ==> Input File <==

--------------------------------------------------------------------------
#psi4
#
memory 32 gb

molecule  {
0 1
  S       -2.3164830    -0.1817160    -0.0786020
  O        2.8418010    -0.5125780    -0.0335720
  C        0.4864880    -0.2823360    -0.0275950
  C       -0.7075030     0.6590380     0.0612160
  C        1.7719606     0.4301609     0.0239231
  H        0.4421100    -0.8587610    -0.9561370
  H        0.4659560    -1.0006030     0.7993460
  H       -0.6918870     1.3735120    -0.7679060
  H       -0.6788470     1.2393610     0.9882120
  H        1.8727330     1.1687090    -0.8189890
  H        1.8690250     1.0558810     0.9533790
  H       -2.1500500    -0.9869150     0.9815770
  H        3.6929260    -0.0445400    -0.0102600
units angstrom
no_reorient  #important for SAPT in psi4, default
symmetry c1  #important for SAPT in psi4, default
}

set PROPERTIES_ORIGIN ["COM"]
properties('MP2/aug-cc-pvtz', properties = ['dipole'])
--------------------------------------------------------------------------

    Molecular point group: c1
  Charge       = 0
  Multiplicity = 1
  Basis Set: AUG-CC-PVTZ
    Blend: AUG-CC-PVTZ
  Basis Set: (AUG-CC-PVTZ AUX)
    Blend: AUG-CC-PVTZ-JKFIT

    Orbital Energies [Eh]
    ---------------------

    Doubly Occupied:

       1A    -91.952921     2A    -20.564438     3A    -11.286814
       4A    -11.266547     5A    -11.228817     6A     -8.954056
       7A     -6.635412     8A     -6.634393     9A     -6.633365
      10A     -1.361427    11A     -1.093093    12A     -0.992963
      13A     -0.868261    14A     -0.810850    15A     -0.697308
      16A     -0.672012    17A     -0.605971    18A     -0.595965
      19A     -0.550096    20A     -0.529652    21A     -0.507774
      22A     -0.494016    23A     -0.451709    24A     -0.442986
      25A     -0.357950

  @DF-RHF Final Energy:  -590.73439996638365

   => Energetics <=

    Nuclear Repulsion Energy =            224.0652471520711515
    One-Electron Energy =               -1257.2217033838651332
    Two-Electron Energy =                 442.4220562654103333
    Total Energy =                       -590.7343999663836485
  Basis Set: (AUG-CC-PVTZ AUX)
    Blend: AUG-CC-PVTZ-RI
    Molecular point group: c1

    Geometry (in Angstrom), charge = 0, multiplicity = 1:

       Center              X                  Y                   Z               Mass
    ------------   -----------------  -----------------  -----------------  -----------------
         S           -2.260660193764    -0.156025925962    -0.065767544659    31.972071174400
         O            2.897623806236    -0.486887925962    -0.020737544659    15.994914619570
         C            0.542310806236    -0.256645925962    -0.014760544659    12.000000000000
         C           -0.651680193764     0.684728074038     0.074050455341    12.000000000000
         C            1.827783406236     0.455850974038     0.036757555341    12.000000000000
         H            0.497932806236    -0.833070925962    -0.943302544659     1.007825032230
         H            0.521778806236    -0.974912925962     0.812180455341     1.007825032230
         H           -0.636064193764     1.399202074038    -0.755071544659     1.007825032230
         H           -0.623024193764     1.265051074038     1.001046455341     1.007825032230
         H            1.928555806236     1.194399074038    -0.806154544659     1.007825032230
         H            1.924847806236     1.081571074038     0.966213455341     1.007825032230
         H           -2.094227193764    -0.961224925962     0.994411455341     1.007825032230
         H            3.748748806236    -0.018849925962     0.002574455341     1.007825032230

  Basis Set: AUG-CC-PVTZ
    Blend: AUG-CC-PVTZ
  Basis Set: (AUG-CC-PVTZ AUX)
    Blend: AUG-CC-PVTZ-JKFIT
	 Reference Energy          =    -590.7343999663836485 [Eh]
	 Singles Energy            =      -0.0000000000000000 [Eh]
	 Same-Spin Energy          =      -0.2475629475441206 [Eh]
	 Opposite-Spin Energy      =      -0.8297658629601019 [Eh]
	 Correlation Energy        =      -1.0773288105042225 [Eh]
	 Total Energy              =    -591.8117287768878896 [Eh]

	 ================> DF-SCS-MP2 Energies <==================
	-----------------------------------------------------------
	 SCS Same-Spin Scale       =       0.3333333333333333 [-]
	 SCS Opposite-Spin Scale   =       1.2000000000000000 [-]
	 SCS Same-Spin Energy      =      -0.0825209825147069 [Eh]
	 SCS Opposite-Spin Energy  =      -0.9957190355521223 [Eh]
	 SCS Correlation Energy    =      -1.0782400180668290 [Eh]
	 SCS Total Energy          =    -591.8126399844504704 [Eh]
	-----------------------------------------------------------

  Dipole Moment: [D]
     X:     1.5901      Y:     1.6867      Z:     0.7000     Total:     2.4214

*** Psi4 exiting successfully. Buy a developer a beer!
