                               Psi4 1.4a3.dev225

  ==> Input File <==

--------------------------------------------------------------------------
#psi4
#
memory 32 gb

molecule  {
0 1
  S       -2.3164950    -0.1817520    -0.0785600
  O        2.8418240    -0.5125870    -0.0336710
  C        0.4864850    -0.2823110    -0.0275730
  C       -0.7075220     0.6590550     0.0609310
  C        1.8055900     0.4668570     0.0262110
  H        0.4423910    -0.8587120    -0.9561410
  H        0.4657080    -1.0005910     0.7993450
  H       -0.6919970     1.3731860    -0.7684900
  H       -0.6788530     1.2397730     0.9876800
  H        1.8727880     1.1690760    -0.8183300
  H        1.8691150     1.0554390     0.9539770
  H       -2.1500900    -0.9865220     0.9819500
  H        3.7367562    -0.0204349    -0.0099122
units angstrom
no_reorient  #important for SAPT in psi4, default
symmetry c1  #important for SAPT in psi4, default
}

set PROPERTIES_ORIGIN ["COM"]
properties('MP2/aug-cc-pvtz', properties = ['dipole'])
--------------------------------------------------------------------------

    Molecular point group: c1
  Charge       = 0
  Multiplicity = 1
  Basis Set: AUG-CC-PVTZ
    Blend: AUG-CC-PVTZ
  Basis Set: (AUG-CC-PVTZ AUX)
    Blend: AUG-CC-PVTZ-JKFIT

    Orbital Energies [Eh]
    ---------------------

    Doubly Occupied:

       1A    -91.951860     2A    -20.570199     3A    -11.283838
       4A    -11.264983     5A    -11.229738     6A     -8.953011
       7A     -6.634367     8A     -6.633349     9A     -6.632323
      10A     -1.352458    11A     -1.086675    12A     -0.985478
      13A     -0.867780    14A     -0.811476    15A     -0.685791
      16A     -0.671621    17A     -0.608084    18A     -0.589266
      19A     -0.545979    20A     -0.529244    21A     -0.507283
      22A     -0.491089    23A     -0.451503    24A     -0.446129
      25A     -0.356617

  @DF-RHF Final Energy:  -590.73204694683545

   => Energetics <=

    Nuclear Repulsion Energy =            223.2275107196650197
    One-Electron Energy =               -1255.6388300747814810
    Two-Electron Energy =                 441.6792724082810082
    Total Energy =                       -590.7320469468355668
  Basis Set: (AUG-CC-PVTZ AUX)
    Blend: AUG-CC-PVTZ-RI
    Molecular point group: c1

    Geometry (in Angstrom), charge = 0, multiplicity = 1:

       Center              X                  Y                   Z               Mass
    ------------   -----------------  -----------------  -----------------  -----------------
         S           -2.265534416689    -0.161107310093    -0.065996344909    31.972071174400
         O            2.892784583311    -0.491942310093    -0.021107344909    15.994914619570
         C            0.537445583311    -0.261666310093    -0.015009344909    12.000000000000
         C           -0.656561416689     0.679699689907     0.073494655091    12.000000000000
         C            1.856550583311     0.487501689907     0.038774655091    12.000000000000
         H            0.493351583311    -0.838067310093    -0.943577344909     1.007825032230
         H            0.516668583311    -0.979946310093     0.811908655091     1.007825032230
         H           -0.641036416689     1.393830689907    -0.755926344909     1.007825032230
         H           -0.627892416689     1.260417689907     1.000243655091     1.007825032230
         H            1.923748583311     1.189720689907    -0.805766344909     1.007825032230
         H            1.920075583311     1.076083689907     0.966540655091     1.007825032230
         H           -2.099129416689    -0.965877310093     0.994513655091     1.007825032230
         H            3.787716783311     0.000209789907     0.002651455091     1.007825032230

  Basis Set: AUG-CC-PVTZ
    Blend: AUG-CC-PVTZ
  Basis Set: (AUG-CC-PVTZ AUX)
    Blend: AUG-CC-PVTZ-JKFIT
	 Reference Energy          =    -590.7320469468354531 [Eh]
	 Singles Energy            =      -0.0000000000000000 [Eh]
	 Same-Spin Energy          =      -0.2478517886958886 [Eh]
	 Opposite-Spin Energy      =      -0.8311815243026190 [Eh]
	 Correlation Energy        =      -1.0790333129985077 [Eh]
	 Total Energy              =    -591.8110802598339433 [Eh]

	 ================> DF-SCS-MP2 Energies <==================
	-----------------------------------------------------------
	 SCS Same-Spin Scale       =       0.3333333333333333 [-]
	 SCS Opposite-Spin Scale   =       1.2000000000000000 [-]
	 SCS Same-Spin Energy      =      -0.0826172628986295 [Eh]
	 SCS Opposite-Spin Energy  =      -0.9974178291631428 [Eh]
	 SCS Correlation Energy    =      -1.0800350920617723 [Eh]
	 SCS Total Energy          =    -591.8120820388971879 [Eh]
	-----------------------------------------------------------

  Dipole Moment: [D]
     X:     1.7117      Y:     1.7423      Z:     0.7010     Total:     2.5411

*** Psi4 exiting successfully. Buy a developer a beer!
