                               Psi4 1.3.2 release

  ==> Input File <==

--------------------------------------------------------------------------
#psi4
#
memory 32 gb

molecule  {
0 1
  S       -2.3164830    -0.1817160    -0.0786020
  O        2.8418010    -0.5125780    -0.0335720
  C        0.4864880    -0.2823360    -0.0275950
  C       -0.7393275     0.7273540    -0.0411149
  C        1.8055740     0.4668710     0.0258770
  H        0.4421100    -0.8587610    -0.9561370
  H        0.4659560    -1.0006030     0.7993460
  H       -0.6918870     1.3735120    -0.7679060
  H       -0.6788470     1.2393610     0.9882120
  H        1.8727330     1.1687090    -0.8189890
  H        1.8690250     1.0558810     0.9533790
  H       -2.1500500    -0.9869150     0.9815770
  H        3.6929260    -0.0445400    -0.0102600
units angstrom
no_reorient  #important for SAPT in psi4, default
symmetry c1  #important for SAPT in psi4, default
}

set PROPERTIES_ORIGIN ["COM"]
properties('MP2/aug-cc-pvtz', properties = ['dipole'])
--------------------------------------------------------------------------

    Molecular point group: c1
  Charge       = 0
  Multiplicity = 1
  Basis Set: AUG-CC-PVTZ
    Blend: AUG-CC-PVTZ
  Basis Set: (AUG-CC-PVTZ AUX)
    Blend: AUG-CC-PVTZ-JKFIT

    Orbital Energies [Eh]
    ---------------------

    Doubly Occupied:

       1A    -91.951292     2A    -20.565583     3A    -11.283792
       4A    -11.264382     5A    -11.233852     6A     -8.952482
       7A     -6.633869     8A     -6.632960     9A     -6.631907
      10A     -1.362256    11A     -1.081384    12A     -0.987443
      13A     -0.871280    14A     -0.819713    15A     -0.697485
      16A     -0.669578    17A     -0.611581    18A     -0.590717
      19A     -0.546262    20A     -0.538402    21A     -0.505700
      22A     -0.496490    23A     -0.451984    24A     -0.438684
      25A     -0.351751

  @DF-RHF Final Energy:  -590.71888194341773

   => Energetics <=

    Nuclear Repulsion Energy =            222.8663424261630155
    One-Electron Energy =               -1254.8287937812383461
    Two-Electron Energy =                 441.2435694116575178
    Total Energy =                       -590.7188819434177276
  Basis Set: (AUG-CC-PVTZ AUX)
    Blend: AUG-CC-PVTZ-RI
    Molecular point group: c1

    Geometry (in Angstrom), charge = 0, multiplicity = 1:

       Center              X                  Y                   Z               Mass
    ------------   -----------------  -----------------  -----------------  -----------------
         S           -2.260893453534    -0.169720578454    -0.052679101565    31.972071174400
         O            2.897390546466    -0.500582578454    -0.007649101565    15.994914619570
         C            0.542077546466    -0.270340578454    -0.001672101565    12.000000000000
         C           -0.683737953534     0.739349421546    -0.015192001565    12.000000000000
         C            1.861163546466     0.478866421546     0.051799898435    12.000000000000
         H            0.497699546466    -0.846765578454    -0.930214101565     1.007825032230
         H            0.521545546466    -0.988607578454     0.825268898435     1.007825032230
         H           -0.636297453534     1.385507421546    -0.741983101565     1.007825032230
         H           -0.623257453534     1.251356421546     1.014134898435     1.007825032230
         H            1.928322546466     1.180704421546    -0.793066101565     1.007825032230
         H            1.924614546466     1.067876421546     0.979301898435     1.007825032230
         H           -2.094460453534    -0.974919578454     1.007499898435     1.007825032230
         H            3.748515546466    -0.032544578454     0.015662898435     1.007825032230

  Basis Set: AUG-CC-PVTZ
    Blend: AUG-CC-PVTZ
  Basis Set: (AUG-CC-PVTZ AUX)
    Blend: AUG-CC-PVTZ-JKFIT
	 Reference Energy          =    -590.7188819434177276 [Eh]
	 Singles Energy            =      -0.0000000000000000 [Eh]
	 Same-Spin Energy          =      -0.2468645012671934 [Eh]
	 Opposite-Spin Energy      =      -0.8296761215844083 [Eh]
	 Correlation Energy        =      -1.0765406228516017 [Eh]
	 Total Energy              =    -591.7954225662692807 [Eh]

	 ================> DF-SCS-MP2 Energies <==================
	-----------------------------------------------------------
	 SCS Same-Spin Scale       =       0.3333333333333333 [-]
	 SCS Opposite-Spin Scale   =       1.2000000000000000 [-]
	 SCS Same-Spin Energy      =      -0.0822881670890644 [Eh]
	 SCS Opposite-Spin Energy  =      -0.9956113459012899 [Eh]
	 SCS Correlation Energy    =      -1.0778995129903544 [Eh]
	 SCS Total Energy          =    -591.7967814564080982 [Eh]
	-----------------------------------------------------------

  Dipole Moment: [D]
     X:     1.7019      Y:     1.7364      Z:     0.6922     Total:     2.5279

*** Psi4 exiting successfully. Buy a developer a beer!
