                               Psi4 1.3.2 release

  ==> Input File <==

--------------------------------------------------------------------------
#psi4
#
memory 32 gb

molecule  {
0 1
  S       -2.3164830    -0.1817160    -0.0786020
  O        2.8418010    -0.5125780    -0.0335720
  C        0.4864880    -0.2823360    -0.0275950
  C       -0.7958707     0.6128625     0.0535370
  C        1.8055740     0.4668710     0.0258770
  H        0.4421100    -0.8587610    -0.9561370
  H        0.4659560    -1.0006030     0.7993460
  H       -0.6918870     1.3735120    -0.7679060
  H       -0.6788470     1.2393610     0.9882120
  H        1.8727330     1.1687090    -0.8189890
  H        1.8690250     1.0558810     0.9533790
  H       -2.1500500    -0.9869150     0.9815770
  H        3.6929260    -0.0445400    -0.0102600
units angstrom
no_reorient  #important for SAPT in psi4, default
symmetry c1  #important for SAPT in psi4, default
}

set PROPERTIES_ORIGIN ["COM"]
properties('MP2/aug-cc-pvtz', properties = ['dipole'])
--------------------------------------------------------------------------

    Molecular point group: c1
  Charge       = 0
  Multiplicity = 1
  Basis Set: AUG-CC-PVTZ
    Blend: AUG-CC-PVTZ
  Basis Set: (AUG-CC-PVTZ AUX)
    Blend: AUG-CC-PVTZ-JKFIT

    Orbital Energies [Eh]
    ---------------------

    Doubly Occupied:

       1A    -91.953691     2A    -20.565980     3A    -11.284651
       4A    -11.265928     5A    -11.230639     6A     -8.956414
       7A     -6.637894     8A     -6.636862     9A     -6.635692
      10A     -1.362432    11A     -1.089693    12A     -0.997822
      13A     -0.865828    14A     -0.805105    15A     -0.695084
      16A     -0.667067    17A     -0.607287    18A     -0.590105
      19A     -0.548607    20A     -0.532998    21A     -0.504287
      22A     -0.485878    23A     -0.455862    24A     -0.451383
      25A     -0.354781

  @DF-RHF Final Energy:  -590.72776482948007

   => Energetics <=

    Nuclear Repulsion Energy =            224.1888805908809559
    One-Electron Energy =               -1257.4693508636416936
    Two-Electron Energy =                 442.5527054432806722
    Total Energy =                       -590.7277648294800656
  Basis Set: (AUG-CC-PVTZ AUX)
    Blend: AUG-CC-PVTZ-RI
    Molecular point group: c1

    Geometry (in Angstrom), charge = 0, multiplicity = 1:

       Center              X                  Y                   Z               Mass
    ------------   -----------------  -----------------  -----------------  -----------------
         S           -2.253520624543    -0.154791705481    -0.065021032554    31.972071174400
         O            2.904763375457    -0.485653705481    -0.019991032554    15.994914619570
         C            0.549450375457    -0.255411705481    -0.014014032554    12.000000000000
         C           -0.732908324543     0.639786794519     0.067117967446    12.000000000000
         C            1.868536375457     0.493795294519     0.039457967446    12.000000000000
         H            0.505072375457    -0.831836705481    -0.942556032554     1.007825032230
         H            0.528918375457    -0.973678705481     0.812926967446     1.007825032230
         H           -0.628924624543     1.400436294519    -0.754325032554     1.007825032230
         H           -0.615884624543     1.266285294519     1.001792967446     1.007825032230
         H            1.935695375457     1.195633294519    -0.805408032554     1.007825032230
         H            1.931987375457     1.082805294519     0.966959967446     1.007825032230
         H           -2.087087624543    -0.959990705481     0.995157967446     1.007825032230
         H            3.755888375457    -0.017615705481     0.003320967446     1.007825032230

  Basis Set: AUG-CC-PVTZ
    Blend: AUG-CC-PVTZ
  Basis Set: (AUG-CC-PVTZ AUX)
    Blend: AUG-CC-PVTZ-JKFIT
	 Reference Energy          =    -590.7277648294800656 [Eh]
	 Singles Energy            =      -0.0000000000000000 [Eh]
	 Same-Spin Energy          =      -0.2479709716447548 [Eh]
	 Opposite-Spin Energy      =      -0.8303683981911114 [Eh]
	 Correlation Energy        =      -1.0783393698358661 [Eh]
	 Total Energy              =    -591.8061041993158824 [Eh]

	 ================> DF-SCS-MP2 Energies <==================
	-----------------------------------------------------------
	 SCS Same-Spin Scale       =       0.3333333333333333 [-]
	 SCS Opposite-Spin Scale   =       1.2000000000000000 [-]
	 SCS Same-Spin Energy      =      -0.0826569905482516 [Eh]
	 SCS Opposite-Spin Energy  =      -0.9964420778293337 [Eh]
	 SCS Correlation Energy    =      -1.0790990683775852 [Eh]
	 SCS Total Energy          =    -591.8068638978576246 [Eh]
	-----------------------------------------------------------

  Dipole Moment: [D]
     X:     1.5179      Y:     1.6877      Z:     0.6919     Total:     2.3730

*** Psi4 exiting successfully. Buy a developer a beer!
