                               Psi4 1.4a3.dev225

  ==> Input File <==

--------------------------------------------------------------------------
#psi4
#
memory 32 gb

molecule  {
0 1
  S       -2.3164950    -0.1817520    -0.0785600
  O        2.8418240    -0.5125870    -0.0336710
  C        0.4864850    -0.2823110    -0.0275730
  C       -0.7075220     0.6590550     0.0609310
  C        1.8055900     0.4668570     0.0262110
  H        0.4423910    -0.8587120    -0.9561410
  H        0.4657080    -1.0005910     0.7993450
  H       -0.6919970     1.3731860    -0.7684900
  H       -0.6788530     1.2397730     0.9876800
  H        1.8727880     1.1690760    -0.8183300
  H        1.8691150     1.0554390     0.9539770
  H       -2.1500900    -0.9865220     0.9819500
  H        3.6491558    -0.0686091    -0.0122378
units angstrom
no_reorient  #important for SAPT in psi4, default
symmetry c1  #important for SAPT in psi4, default
}

set PROPERTIES_ORIGIN ["COM"]
properties('MP2/aug-cc-pvtz', properties = ['dipole'])
--------------------------------------------------------------------------

    Molecular point group: c1
  Charge       = 0
  Multiplicity = 1
  Basis Set: AUG-CC-PVTZ
    Blend: AUG-CC-PVTZ
  Basis Set: (AUG-CC-PVTZ AUX)
    Blend: AUG-CC-PVTZ-JKFIT

    Orbital Energies [Eh]
    ---------------------

    Doubly Occupied:

       1A    -91.952096     2A    -20.561058     3A    -11.285002
       4A    -11.265211     5A    -11.230212     6A     -8.953246
       7A     -6.634602     8A     -6.633584     9A     -6.632558
      10A     -1.374449    11A     -1.088371    12A     -0.989428
      13A     -0.872140    14A     -0.812170    15A     -0.707029
      16A     -0.672605    17A     -0.609230    18A     -0.591440
      19A     -0.547983    20A     -0.532294    21A     -0.509073
      22A     -0.492657    23A     -0.453872    24A     -0.447262
      25A     -0.356916

  @DF-RHF Final Energy:  -590.73776562213527

   => Energetics <=

    Nuclear Repulsion Energy =            223.8196791045540408
    One-Electron Energy =               -1256.7059149725496354
    Two-Electron Energy =                 442.1484702458602669
    Total Energy =                       -590.7377656221352709
  Basis Set: (AUG-CC-PVTZ AUX)
    Blend: AUG-CC-PVTZ-RI
    Molecular point group: c1

    Geometry (in Angstrom), charge = 0, multiplicity = 1:

       Center              X                  Y                   Z               Mass
    ------------   -----------------  -----------------  -----------------  -----------------
         S           -2.264575096108    -0.160579749699    -0.065970877035    31.972071174400
         O            2.893743903892    -0.491414749699    -0.021081877035    15.994914619570
         C            0.538404903892    -0.261138749699    -0.014983877035    12.000000000000
         C           -0.655602096108     0.680227250301     0.073520122965    12.000000000000
         C            1.857509903892     0.488029250301     0.038800122965    12.000000000000
         H            0.494310903892    -0.837539749699    -0.943551877035     1.007825032230
         H            0.517627903892    -0.979418749699     0.811934122965     1.007825032230
         H           -0.640077096108     1.394358250301    -0.755900877035     1.007825032230
         H           -0.626933096108     1.260945250301     1.000269122965     1.007825032230
         H            1.924707903892     1.190248250301    -0.805740877035     1.007825032230
         H            1.921034903892     1.076611250301     0.966566122965     1.007825032230
         H           -2.098170096108    -0.965349749699     0.994539122965     1.007825032230
         H            3.701075703892    -0.047436849699     0.000351322965     1.007825032230

  Basis Set: AUG-CC-PVTZ
    Blend: AUG-CC-PVTZ
  Basis Set: (AUG-CC-PVTZ AUX)
    Blend: AUG-CC-PVTZ-JKFIT
	 Reference Energy          =    -590.7377656221352709 [Eh]
	 Singles Energy            =      -0.0000000000000000 [Eh]
	 Same-Spin Energy          =      -0.2467254995657568 [Eh]
	 Opposite-Spin Energy      =      -0.8280983481470141 [Eh]
	 Correlation Energy        =      -1.0748238477127710 [Eh]
	 Total Energy              =    -591.8125894698480352 [Eh]

	 ================> DF-SCS-MP2 Energies <==================
	-----------------------------------------------------------
	 SCS Same-Spin Scale       =       0.3333333333333333 [-]
	 SCS Opposite-Spin Scale   =       1.2000000000000000 [-]
	 SCS Same-Spin Energy      =      -0.0822418331885856 [Eh]
	 SCS Opposite-Spin Energy  =      -0.9937180177764169 [Eh]
	 SCS Correlation Energy    =      -1.0759598509650026 [Eh]
	 SCS Total Energy          =    -591.8137254731002486 [Eh]
	-----------------------------------------------------------

  Dipole Moment: [D]
     X:     1.6331      Y:     1.7201      Z:     0.7003     Total:     2.4731

*** Psi4 exiting successfully. Buy a developer a beer!
