                               Psi4 1.3.2 release

  ==> Input File <==

--------------------------------------------------------------------------
#psi4
#
memory 32 gb

molecule  {
0 1
  S       -2.3164830    -0.1817160    -0.0786020
  O        2.8584485    -0.4911629    -0.0753519
  C        0.4864880    -0.2823360    -0.0275950
  C       -0.7075030     0.6590380     0.0612160
  C        1.8055740     0.4668710     0.0258770
  H        0.4421100    -0.8587610    -0.9561370
  H        0.4659560    -1.0006030     0.7993460
  H       -0.6918870     1.3735120    -0.7679060
  H       -0.6788470     1.2393610     0.9882120
  H        1.8727330     1.1687090    -0.8189890
  H        1.8690250     1.0558810     0.9533790
  H       -2.1500500    -0.9869150     0.9815770
  H        3.6929260    -0.0445400    -0.0102600
units angstrom
no_reorient  #important for SAPT in psi4, default
symmetry c1  #important for SAPT in psi4, default
}

set PROPERTIES_ORIGIN ["COM"]
properties('MP2/aug-cc-pvtz', properties = ['dipole'])
--------------------------------------------------------------------------

    Molecular point group: c1
  Charge       = 0
  Multiplicity = 1
  Basis Set: AUG-CC-PVTZ
    Blend: AUG-CC-PVTZ
  Basis Set: (AUG-CC-PVTZ AUX)
    Blend: AUG-CC-PVTZ-JKFIT

    Orbital Energies [Eh]
    ---------------------

    Doubly Occupied:

       1A    -91.952339     2A    -20.562691     3A    -11.284699
       4A    -11.265563     5A    -11.230631     6A     -8.953483
       7A     -6.634838     8A     -6.633820     9A     -6.632793
      10A     -1.366333    11A     -1.088216    12A     -0.988544
      13A     -0.871284    14A     -0.811986    15A     -0.701417
      16A     -0.671795    17A     -0.608963    18A     -0.591453
      19A     -0.547889    20A     -0.531191    21A     -0.507628
      22A     -0.492197    23A     -0.452678    24A     -0.446795
      25A     -0.357160

  @DF-RHF Final Energy:  -590.73817830086944

   => Energetics <=

    Nuclear Repulsion Energy =            223.4738448702600806
    One-Electron Energy =               -1256.0512751639289490
    Two-Electron Energy =                 441.8392519927994044
    Total Energy =                       -590.7381783008694356
  Basis Set: (AUG-CC-PVTZ AUX)
    Blend: AUG-CC-PVTZ-RI
    Molecular point group: c1

    Geometry (in Angstrom), charge = 0, multiplicity = 1:

       Center              X                  Y                   Z               Mass
    ------------   -----------------  -----------------  -----------------  -----------------
         S           -2.267936507501    -0.164534645056    -0.058760894287    31.972071174400
         O            2.906994992499    -0.473981545056    -0.055510794287    15.994914619570
         C            0.535034492499    -0.265154645056    -0.007753894287    12.000000000000
         C           -0.658956507501     0.676219354944     0.081057105713    12.000000000000
         C            1.854120492499     0.484052354944     0.045718105713    12.000000000000
         H            0.490656492499    -0.841579645056    -0.936295894287     1.007825032230
         H            0.514502492499    -0.983421645056     0.819187105713     1.007825032230
         H           -0.643340507501     1.390693354944    -0.748064894287     1.007825032230
         H           -0.630300507501     1.256542354944     1.008053105713     1.007825032230
         H            1.921279492499     1.185890354944    -0.799147894287     1.007825032230
         H            1.917571492499     1.073062354944     0.973220105713     1.007825032230
         H           -2.101503507501    -0.969733645056     1.001418105713     1.007825032230
         H            3.741472492499    -0.027358645056     0.009581105713     1.007825032230

  Basis Set: AUG-CC-PVTZ
    Blend: AUG-CC-PVTZ
  Basis Set: (AUG-CC-PVTZ AUX)
    Blend: AUG-CC-PVTZ-JKFIT
	 Reference Energy          =    -590.7381783008694356 [Eh]
	 Singles Energy            =      -0.0000000000000000 [Eh]
	 Same-Spin Energy          =      -0.2469563765068902 [Eh]
	 Opposite-Spin Energy      =      -0.8287558663509154 [Eh]
	 Correlation Energy        =      -1.0757122428578056 [Eh]
	 Total Energy              =    -591.8138905437272115 [Eh]

	 ================> DF-SCS-MP2 Energies <==================
	-----------------------------------------------------------
	 SCS Same-Spin Scale       =       0.3333333333333333 [-]
	 SCS Opposite-Spin Scale   =       1.2000000000000000 [-]
	 SCS Same-Spin Energy      =      -0.0823187921689634 [Eh]
	 SCS Opposite-Spin Energy  =      -0.9945070396210984 [Eh]
	 SCS Correlation Energy    =      -1.0768258317900619 [Eh]
	 SCS Total Energy          =    -591.8150041326595101 [Eh]
	-----------------------------------------------------------

  Dipole Moment: [D]
     X:     1.6276      Y:     1.7024      Z:     0.8035     Total:     2.4886

*** Psi4 exiting successfully. Buy a developer a beer!
