                               Psi4 1.3.2 release

  ==> Input File <==

--------------------------------------------------------------------------
#psi4
#
memory 32 gb

molecule  {
0 1
  S       -2.3164830    -0.1817160    -0.0786020
  O        2.8418010    -0.5125780    -0.0335720
  C        0.4864880    -0.2823360    -0.0275950
  C       -0.7147296     0.6765144     0.0356777
  C        1.8055740     0.4668710     0.0258770
  H        0.4421100    -0.8587610    -0.9561370
  H        0.4659560    -1.0006030     0.7993460
  H       -0.6918870     1.3735120    -0.7679060
  H       -0.6788470     1.2393610     0.9882120
  H        1.8727330     1.1687090    -0.8189890
  H        1.8690250     1.0558810     0.9533790
  H       -2.1500500    -0.9869150     0.9815770
  H        3.6929260    -0.0445400    -0.0102600
units angstrom
no_reorient  #important for SAPT in psi4, default
symmetry c1  #important for SAPT in psi4, default
}

set PROPERTIES_ORIGIN ["COM"]
properties('MP2/aug-cc-pvtz', properties = ['dipole'])
--------------------------------------------------------------------------

    Molecular point group: c1
  Charge       = 0
  Multiplicity = 1
  Basis Set: AUG-CC-PVTZ
    Blend: AUG-CC-PVTZ
  Basis Set: (AUG-CC-PVTZ AUX)
    Blend: AUG-CC-PVTZ-JKFIT

    Orbital Energies [Eh]
    ---------------------

    Doubly Occupied:

       1A    -91.951598     2A    -20.565765     3A    -11.284204
       4A    -11.264607     5A    -11.230747     6A     -8.952780
       7A     -6.634146     8A     -6.633152     9A     -6.632122
      10A     -1.362441    11A     -1.085734    12A     -0.987221
      13A     -0.869491    14A     -0.813435    15A     -0.696426
      16A     -0.671731    17A     -0.609209    18A     -0.590251
      19A     -0.544980    20A     -0.532121    21A     -0.507474
      22A     -0.496455    23A     -0.452427    24A     -0.444741
      25A     -0.355565

  @DF-RHF Final Energy:  -590.73638920721635

   => Energetics <=

    Nuclear Repulsion Energy =            223.3562691415348525
    One-Electron Energy =               -1255.8476729108772361
    Two-Electron Energy =                 441.7550145621261208
    Total Energy =                       -590.7363892072163480
  Basis Set: (AUG-CC-PVTZ AUX)
    Blend: AUG-CC-PVTZ-RI
    Molecular point group: c1

    Geometry (in Angstrom), charge = 0, multiplicity = 1:

       Center              X                  Y                   Z               Mass
    ------------   -----------------  -----------------  -----------------  -----------------
         S           -2.264100843816    -0.163091458123    -0.062692307530    31.972071174400
         O            2.894183156184    -0.493953458123    -0.017662307530    15.994914619570
         C            0.538870156184    -0.263711458123    -0.011685307530    12.000000000000
         C           -0.662347443816     0.695138941877     0.051587392470    12.000000000000
         C            1.857956156184     0.485495541877     0.041786692470    12.000000000000
         H            0.494492156184    -0.840136458123    -0.940227307530     1.007825032230
         H            0.518338156184    -0.981978458123     0.815255692470     1.007825032230
         H           -0.639504843816     1.392136541877    -0.751996307530     1.007825032230
         H           -0.626464843816     1.257985541877     1.004121692470     1.007825032230
         H            1.925115156184     1.187333541877    -0.803079307530     1.007825032230
         H            1.921407156184     1.074505541877     0.969288692470     1.007825032230
         H           -2.097667843816    -0.968290458123     0.997486692470     1.007825032230
         H            3.745308156184    -0.025915458123     0.005649692470     1.007825032230

  Basis Set: AUG-CC-PVTZ
    Blend: AUG-CC-PVTZ
  Basis Set: (AUG-CC-PVTZ AUX)
    Blend: AUG-CC-PVTZ-JKFIT
	 Reference Energy          =    -590.7363892072163480 [Eh]
	 Singles Energy            =      -0.0000000000000000 [Eh]
	 Same-Spin Energy          =      -0.2471268616649203 [Eh]
	 Opposite-Spin Energy      =      -0.8294320437412780 [Eh]
	 Correlation Energy        =      -1.0765589054061984 [Eh]
	 Total Energy              =    -591.8129481126225073 [Eh]

	 ================> DF-SCS-MP2 Energies <==================
	-----------------------------------------------------------
	 SCS Same-Spin Scale       =       0.3333333333333333 [-]
	 SCS Opposite-Spin Scale   =       1.2000000000000000 [-]
	 SCS Same-Spin Energy      =      -0.0823756205549734 [Eh]
	 SCS Opposite-Spin Energy  =      -0.9953184524895335 [Eh]
	 SCS Correlation Energy    =      -1.0776940730445070 [Eh]
	 SCS Total Energy          =    -591.8140832802608884 [Eh]
	-----------------------------------------------------------

  Dipole Moment: [D]
     X:     1.6822      Y:     1.7374      Z:     0.6972     Total:     2.5168

*** Psi4 exiting successfully. Buy a developer a beer!
