                               Psi4 1.4a3.dev225

  ==> Input File <==

--------------------------------------------------------------------------
#psi4
#
memory 32 gb

molecule  {
0 1
  S       -2.3164950    -0.1817520    -0.0785600
  O        2.8418240    -0.5125870    -0.0336710
  C        0.4864850    -0.2823110    -0.0275730
  C       -0.7075220     0.6590550     0.0609310
  C        1.8055900     0.4668570     0.0262110
  H        0.4423910    -0.8587120    -0.9561410
  H        0.4657080    -1.0005910     0.7993450
  H       -0.6919970     1.3731860    -0.7684900
  H       -0.6788530     1.2397730     0.9876800
  H        1.8727880     1.1690760    -0.8183300
  H        1.8691150     1.0554390     0.9539770
  H       -2.1438885    -1.0165138     1.0214726
  H        3.6929560    -0.0445220    -0.0110750
units angstrom
no_reorient  #important for SAPT in psi4, default
symmetry c1  #important for SAPT in psi4, default
}

set PROPERTIES_ORIGIN ["COM"]
properties('MP2/aug-cc-pvtz', properties = ['dipole'])
--------------------------------------------------------------------------

    Molecular point group: c1
  Charge       = 0
  Multiplicity = 1
  Basis Set: AUG-CC-PVTZ
    Blend: AUG-CC-PVTZ
  Basis Set: (AUG-CC-PVTZ AUX)
    Blend: AUG-CC-PVTZ-JKFIT

    Orbital Energies [Eh]
    ---------------------

    Doubly Occupied:

       1A    -91.955782     2A    -20.565837     3A    -11.284370
       4A    -11.265263     5A    -11.229900     6A     -8.955751
       7A     -6.636997     8A     -6.636062     9A     -6.635071
      10A     -1.362510    11A     -1.086802    12A     -0.984893
      13A     -0.866529    14A     -0.810761    15A     -0.696154
      16A     -0.671970    17A     -0.607548    18A     -0.589992
      19A     -0.545167    20A     -0.528461    21A     -0.508109
      22A     -0.490461    23A     -0.452594    24A     -0.446067
      25A     -0.356697

  @DF-RHF Final Energy:  -590.73539097385560

   => Energetics <=

    Nuclear Repulsion Energy =            223.2524983266522440
    One-Electron Energy =               -1255.6362820984809332
    Two-Electron Energy =                 441.6483927979731448
    Total Energy =                       -590.7353909738556013
  Basis Set: (AUG-CC-PVTZ AUX)
    Blend: AUG-CC-PVTZ-RI
    Molecular point group: c1

    Geometry (in Angstrom), charge = 0, multiplicity = 1:

       Center              X                  Y                   Z               Mass
    ------------   -----------------  -----------------  -----------------  -----------------
         S           -2.265122669634    -0.160515086749    -0.066416426845    31.972071174400
         O            2.893196330366    -0.491350086749    -0.021527426845    15.994914619570
         C            0.537857330366    -0.261074086749    -0.015429426845    12.000000000000
         C           -0.656149669634     0.680291913251     0.073074573155    12.000000000000
         C            1.856962330366     0.488093913251     0.038354573155    12.000000000000
         H            0.493763330366    -0.837475086749    -0.943997426845     1.007825032230
         H            0.517080330366    -0.979354086749     0.811488573155     1.007825032230
         H           -0.640624669634     1.394422913251    -0.756346426845     1.007825032230
         H           -0.627480669634     1.261009913251     0.999823573155     1.007825032230
         H            1.924160330366     1.190312913251    -0.806186426845     1.007825032230
         H            1.920487330366     1.076675913251     0.966120573155     1.007825032230
         H           -2.092516169634    -0.995276886749     1.033616173155     1.007825032230
         H            3.744328330366    -0.023285086749     0.001068573155     1.007825032230

  Basis Set: AUG-CC-PVTZ
    Blend: AUG-CC-PVTZ
  Basis Set: (AUG-CC-PVTZ AUX)
    Blend: AUG-CC-PVTZ-JKFIT
	 Reference Energy          =    -590.7353909738556013 [Eh]
	 Singles Energy            =      -0.0000000000000000 [Eh]
	 Same-Spin Energy          =      -0.2472889513214383 [Eh]
	 Opposite-Spin Energy      =      -0.8299032669297095 [Eh]
	 Correlation Energy        =      -1.0771922182511477 [Eh]
	 Total Energy              =    -591.8125831921067856 [Eh]

	 ================> DF-SCS-MP2 Energies <==================
	-----------------------------------------------------------
	 SCS Same-Spin Scale       =       0.3333333333333333 [-]
	 SCS Opposite-Spin Scale   =       1.2000000000000000 [-]
	 SCS Same-Spin Energy      =      -0.0824296504404794 [Eh]
	 SCS Opposite-Spin Energy  =      -0.9958839203156513 [Eh]
	 SCS Correlation Energy    =      -1.0783135707561307 [Eh]
	 SCS Total Energy          =    -591.8137045446117099 [Eh]
	-----------------------------------------------------------

  Dipole Moment: [D]
     X:     1.6755      Y:     1.7360      Z:     0.6953     Total:     2.5108

*** Psi4 exiting successfully. Buy a developer a beer!
