                               Psi4 1.3.2 release

  ==> Input File <==

--------------------------------------------------------------------------
#psi4
#
memory 32 gb

molecule  {
0 1
  S       -2.3164830    -0.1817160    -0.0786020
  O        2.8418010    -0.5125780    -0.0335720
  C        0.4864880    -0.2823360    -0.0275950
  C       -0.7075030     0.6590380     0.0612160
  C        1.8055740     0.4668710     0.0258770
  H        0.4421100    -0.8587610    -0.9561370
  H        0.4659560    -1.0006030     0.7993460
  H       -0.6918870     1.3735120    -0.7679060
  H       -0.6788470     1.2393610     0.9882120
  H        1.8727330     1.1687090    -0.8189890
  H        1.8690250     1.0558810     0.9533790
  H       -2.1376449    -1.0469306     1.0605975
  H        3.6929260    -0.0445400    -0.0102600
units angstrom
no_reorient  #important for SAPT in psi4, default
symmetry c1  #important for SAPT in psi4, default
}

set PROPERTIES_ORIGIN ["COM"]
properties('MP2/aug-cc-pvtz', properties = ['dipole'])
--------------------------------------------------------------------------

    Molecular point group: c1
  Charge       = 0
  Multiplicity = 1
  Basis Set: AUG-CC-PVTZ
    Blend: AUG-CC-PVTZ
  Basis Set: (AUG-CC-PVTZ AUX)
    Blend: AUG-CC-PVTZ-JKFIT

    Orbital Energies [Eh]
    ---------------------

    Doubly Occupied:

       1A    -91.959367     2A    -20.565839     3A    -11.284354
       4A    -11.265482     5A    -11.229864     6A     -8.958329
       7A     -6.639485     8A     -6.638591     9A     -6.637628
      10A     -1.362515    11A     -1.086300    12A     -0.982925
      13A     -0.863683    14A     -0.809731    15A     -0.696003
      16A     -0.671873    17A     -0.606637    18A     -0.589740
      19A     -0.543855    20A     -0.525843    21A     -0.508049
      22A     -0.488669    23A     -0.452597    24A     -0.445272
      25A     -0.356727

  @DF-RHF Final Energy:  -590.73166599094429

   => Energetics <=

    Nuclear Repulsion Energy =            223.0099236620275462
    One-Electron Energy =               -1255.1444607414177881
    Two-Electron Energy =                 441.4028710884458064
    Total Energy =                       -590.7316659909442933
  Basis Set: (AUG-CC-PVTZ AUX)
    Blend: AUG-CC-PVTZ-RI
    Molecular point group: c1

    Geometry (in Angstrom), charge = 0, multiplicity = 1:

       Center              X                  Y                   Z               Mass
    ------------   -----------------  -----------------  -----------------  -----------------
         S           -2.265178990253    -0.160155423793    -0.066887680502    31.972071174400
         O            2.893105009747    -0.491017423793    -0.021857680502    15.994914619570
         C            0.537792009747    -0.260775423793    -0.015880680502    12.000000000000
         C           -0.656198990253     0.680598576207     0.072930319498    12.000000000000
         C            1.856878009747     0.488431576207     0.037591319498    12.000000000000
         H            0.493414009747    -0.837200423793    -0.944422680502     1.007825032230
         H            0.517260009747    -0.979042423793     0.811060319498     1.007825032230
         H           -0.640582990253     1.395072576207    -0.756191680502     1.007825032230
         H           -0.627542990253     1.260921576207     0.999926319498     1.007825032230
         H            1.924037009747     1.190269576207    -0.807274680502     1.007825032230
         H            1.920329009747     1.077441576207     0.965093319498     1.007825032230
         H           -2.086340890253    -1.025370023793     1.072311819498     1.007825032230
         H            3.744230009747    -0.022979423793     0.001454319498     1.007825032230

  Basis Set: AUG-CC-PVTZ
    Blend: AUG-CC-PVTZ
  Basis Set: (AUG-CC-PVTZ AUX)
    Blend: AUG-CC-PVTZ-JKFIT
	 Reference Energy          =    -590.7316659909442933 [Eh]
	 Singles Energy            =      -0.0000000000000000 [Eh]
	 Same-Spin Energy          =      -0.2472921112466989 [Eh]
	 Opposite-Spin Energy      =      -0.8302792272690918 [Eh]
	 Correlation Energy        =      -1.0775713385157906 [Eh]
	 Total Energy              =    -591.8092373294600748 [Eh]

	 ================> DF-SCS-MP2 Energies <==================
	-----------------------------------------------------------
	 SCS Same-Spin Scale       =       0.3333333333333333 [-]
	 SCS Opposite-Spin Scale   =       1.2000000000000000 [-]
	 SCS Same-Spin Energy      =      -0.0824307037488996 [Eh]
	 SCS Opposite-Spin Energy  =      -0.9963350727229101 [Eh]
	 SCS Correlation Energy    =      -1.0787657764718097 [Eh]
	 SCS Total Energy          =    -591.8104317674160484 [Eh]
	-----------------------------------------------------------

  Dipole Moment: [D]
     X:     1.6771      Y:     1.7418      Z:     0.6897     Total:     2.5144

*** Psi4 exiting successfully. Buy a developer a beer!
