                               Psi4 1.4a3.dev225

  ==> Input File <==

--------------------------------------------------------------------------
#psi4
#
memory 32 gb

molecule  {
0 1
  S       -2.3164950    -0.1817520    -0.0785600
  O        2.8418240    -0.5125870    -0.0336710
  C        0.4864850    -0.2823110    -0.0275730
  C       -0.6898485     0.6682907     0.0624632
  C        1.8055900     0.4668570     0.0262110
  H        0.4423910    -0.8587120    -0.9561410
  H        0.4657080    -1.0005910     0.7993450
  H       -0.6919970     1.3731860    -0.7684900
  H       -0.6788530     1.2397730     0.9876800
  H        1.8727880     1.1690760    -0.8183300
  H        1.8691150     1.0554390     0.9539770
  H       -2.1500900    -0.9865220     0.9819500
  H        3.6929560    -0.0445220    -0.0110750
units angstrom
no_reorient  #important for SAPT in psi4, default
symmetry c1  #important for SAPT in psi4, default
}

set PROPERTIES_ORIGIN ["COM"]
properties('MP2/aug-cc-pvtz', properties = ['dipole'])
--------------------------------------------------------------------------

    Molecular point group: c1
  Charge       = 0
  Multiplicity = 1
  Basis Set: AUG-CC-PVTZ
    Blend: AUG-CC-PVTZ
  Basis Set: (AUG-CC-PVTZ AUX)
    Blend: AUG-CC-PVTZ-JKFIT

    Orbital Energies [Eh]
    ---------------------

    Doubly Occupied:

       1A    -91.951352     2A    -20.565884     3A    -11.284444
       4A    -11.265297     5A    -11.229954     6A     -8.952279
       7A     -6.633617     8A     -6.632592     9A     -6.631590
      10A     -1.362609    11A     -1.087853    12A     -0.985158
      13A     -0.870478    14A     -0.813127    15A     -0.696710
      16A     -0.673322    17A     -0.609343    18A     -0.590363
      19A     -0.548147    20A     -0.529744    21A     -0.508964
      22A     -0.493289    23A     -0.452711    24A     -0.443603
      25A     -0.356721

  @DF-RHF Final Energy:  -590.73707513655074

   => Energetics <=

    Nuclear Repulsion Energy =            223.3922992711463280
    One-Electron Energy =               -1255.9204432982605795
    Two-Electron Energy =                 441.7910688905635084
    Total Energy =                       -590.7370751365506294
  Basis Set: (AUG-CC-PVTZ AUX)
    Blend: AUG-CC-PVTZ-RI
    Molecular point group: c1

    Geometry (in Angstrom), charge = 0, multiplicity = 1:

       Center              X                  Y                   Z               Mass
    ------------   -----------------  -----------------  -----------------  -----------------
         S           -2.267359254431    -0.162047799140    -0.066183398897    31.972071174400
         O            2.890959745569    -0.492882799140    -0.021294398897    15.994914619570
         C            0.535620745569    -0.262606799140    -0.015196398897    12.000000000000
         C           -0.640712754431     0.687994900860     0.074839801103    12.000000000000
         C            1.854725745569     0.486561200860     0.038587601103    12.000000000000
         H            0.491526745569    -0.839007799140    -0.943764398897     1.007825032230
         H            0.514843745569    -0.980886799140     0.811721601103     1.007825032230
         H           -0.642861254431     1.392890200860    -0.756113398897     1.007825032230
         H           -0.629717254431     1.259477200860     1.000056601103     1.007825032230
         H            1.921923745569     1.188780200860    -0.805953398897     1.007825032230
         H            1.918250745569     1.075143200860     0.966353601103     1.007825032230
         H           -2.100954254431    -0.966817799140     0.994326601103     1.007825032230
         H            3.742091745569    -0.024817799140     0.001301601103     1.007825032230

  Basis Set: AUG-CC-PVTZ
    Blend: AUG-CC-PVTZ
  Basis Set: (AUG-CC-PVTZ AUX)
    Blend: AUG-CC-PVTZ-JKFIT
	 Reference Energy          =    -590.7370751365507431 [Eh]
	 Singles Energy            =      -0.0000000000000000 [Eh]
	 Same-Spin Energy          =      -0.2472511078328603 [Eh]
	 Opposite-Spin Energy      =      -0.8295923870167524 [Eh]
	 Correlation Energy        =      -1.0768434948496126 [Eh]
	 Total Energy              =    -591.8139186314003837 [Eh]

	 ================> DF-SCS-MP2 Energies <==================
	-----------------------------------------------------------
	 SCS Same-Spin Scale       =       0.3333333333333333 [-]
	 SCS Opposite-Spin Scale   =       1.2000000000000000 [-]
	 SCS Same-Spin Energy      =      -0.0824170359442868 [Eh]
	 SCS Opposite-Spin Energy  =      -0.9955108644201028 [Eh]
	 SCS Correlation Energy    =      -1.0779279003643896 [Eh]
	 SCS Total Energy          =    -591.8150030369151864 [Eh]
	-----------------------------------------------------------

  Dipole Moment: [D]
     X:     1.7105      Y:     1.7400      Z:     0.7013     Total:     2.5387

*** Psi4 exiting successfully. Buy a developer a beer!
