                               Psi4 1.3.2 release

  ==> Input File <==

--------------------------------------------------------------------------
#psi4
#
memory 32 gb

molecule  {
0 1
  S       -2.3164830    -0.1817160    -0.0786020
  O        2.8418010    -0.5125780    -0.0335720
  C        0.4864880    -0.2823360    -0.0275950
  C       -0.7075030     0.6590380     0.0612160
  C        1.7396506     0.3923023     0.0218991
  H        0.4421100    -0.8587610    -0.9561370
  H        0.4659560    -1.0006030     0.7993460
  H       -0.6918870     1.3735120    -0.7679060
  H       -0.6788470     1.2393610     0.9882120
  H        1.8727330     1.1687090    -0.8189890
  H        1.8690250     1.0558810     0.9533790
  H       -2.1500500    -0.9869150     0.9815770
  H        3.6929260    -0.0445400    -0.0102600
units angstrom
no_reorient  #important for SAPT in psi4, default
symmetry c1  #important for SAPT in psi4, default
}

set PROPERTIES_ORIGIN ["COM"]
properties('MP2/aug-cc-pvtz', properties = ['dipole'])
--------------------------------------------------------------------------

    Molecular point group: c1
  Charge       = 0
  Multiplicity = 1
  Basis Set: AUG-CC-PVTZ
    Blend: AUG-CC-PVTZ
  Basis Set: (AUG-CC-PVTZ AUX)
    Blend: AUG-CC-PVTZ-JKFIT

    Orbital Energies [Eh]
    ---------------------

    Doubly Occupied:

       1A    -91.953927     2A    -20.563273     3A    -11.289902
       4A    -11.268188     5A    -11.227643     6A     -8.955047
       7A     -6.636402     8A     -6.635382     9A     -6.634352
      10A     -1.360578    11A     -1.099861    12A     -0.999042
      13A     -0.867456    14A     -0.809163    15A     -0.698300
      16A     -0.672964    17A     -0.608000    18A     -0.599174
      19A     -0.553532    20A     -0.528601    21A     -0.506696
      22A     -0.494608    23A     -0.455080    24A     -0.433017
      25A     -0.359150

  @DF-RHF Final Energy:  -590.72568337317693

   => Energetics <=

    Nuclear Repulsion Energy =            224.6278499441411896
    One-Electron Energy =               -1258.2883902868263704
    Two-Electron Energy =                 442.9348569695081324
    Total Energy =                       -590.7256833731770485
  Basis Set: (AUG-CC-PVTZ AUX)
    Blend: AUG-CC-PVTZ-RI
    Molecular point group: c1

    Geometry (in Angstrom), charge = 0, multiplicity = 1:

       Center              X                  Y                   Z               Mass
    ------------   -----------------  -----------------  -----------------  -----------------
         S           -2.256447200784    -0.151089435215    -0.065503629531    31.972071174400
         O            2.901836799216    -0.481951435215    -0.020473629531    15.994914619570
         C            0.546523799216    -0.251709435215    -0.014496629531    12.000000000000
         C           -0.647467200784     0.689664564785     0.074314370469    12.000000000000
         C            1.799686399216     0.422928864785     0.034997470469    12.000000000000
         H            0.502145799216    -0.828134435215    -0.943038629531     1.007825032230
         H            0.525991799216    -0.969976435215     0.812444370469     1.007825032230
         H           -0.631851200784     1.404138564785    -0.754807629531     1.007825032230
         H           -0.618811200784     1.269987564785     1.001310370469     1.007825032230
         H            1.932768799216     1.199335564785    -0.805890629531     1.007825032230
         H            1.929060799216     1.086507564785     0.966477370469     1.007825032230
         H           -2.090014200784    -0.956288435215     0.994675370469     1.007825032230
         H            3.752961799216    -0.013913435215     0.002838370469     1.007825032230

  Basis Set: AUG-CC-PVTZ
    Blend: AUG-CC-PVTZ
  Basis Set: (AUG-CC-PVTZ AUX)
    Blend: AUG-CC-PVTZ-JKFIT
	 Reference Energy          =    -590.7256833731769348 [Eh]
	 Singles Energy            =      -0.0000000000000000 [Eh]
	 Same-Spin Energy          =      -0.2480293298326640 [Eh]
	 Opposite-Spin Energy      =      -0.8302979082902469 [Eh]
	 Correlation Energy        =      -1.0783272381229108 [Eh]
	 Total Energy              =    -591.8040106112998728 [Eh]

	 ================> DF-SCS-MP2 Energies <==================
	-----------------------------------------------------------
	 SCS Same-Spin Scale       =       0.3333333333333333 [-]
	 SCS Opposite-Spin Scale   =       1.2000000000000000 [-]
	 SCS Same-Spin Energy      =      -0.0826764432775546 [Eh]
	 SCS Opposite-Spin Energy  =      -0.9963574899482962 [Eh]
	 SCS Correlation Energy    =      -1.0790339332258509 [Eh]
	 SCS Total Energy          =    -591.8047173064028357 [Eh]
	-----------------------------------------------------------

  Dipole Moment: [D]
     X:     1.5005      Y:     1.6309      Z:     0.6979     Total:     2.3235

*** Psi4 exiting successfully. Buy a developer a beer!
