                               Psi4 1.4a3.dev225

  ==> Input File <==

--------------------------------------------------------------------------
#psi4
#
memory 32 gb

molecule  {
0 1
  S       -2.3164950    -0.1817520    -0.0785600
  O        2.8418240    -0.5125870    -0.0336710
  C        0.4864850    -0.2823110    -0.0275730
  C       -0.7075220     0.6590550     0.0609310
  C        1.7692850     0.5011724     0.0283090
  H        0.4423910    -0.8587120    -0.9561410
  H        0.4657080    -1.0005910     0.7993450
  H       -0.6919970     1.3731860    -0.7684900
  H       -0.6788530     1.2397730     0.9876800
  H        1.8727880     1.1690760    -0.8183300
  H        1.8691150     1.0554390     0.9539770
  H       -2.1500900    -0.9865220     0.9819500
  H        3.6929560    -0.0445220    -0.0110750
units angstrom
no_reorient  #important for SAPT in psi4, default
symmetry c1  #important for SAPT in psi4, default
}

set PROPERTIES_ORIGIN ["COM"]
properties('MP2/aug-cc-pvtz', properties = ['dipole'])
--------------------------------------------------------------------------

    Molecular point group: c1
  Charge       = 0
  Multiplicity = 1
  Basis Set: AUG-CC-PVTZ
    Blend: AUG-CC-PVTZ
  Basis Set: (AUG-CC-PVTZ AUX)
    Blend: AUG-CC-PVTZ-JKFIT

    Orbital Energies [Eh]
    ---------------------

    Doubly Occupied:

       1A    -91.952314     2A    -20.560517     3A    -11.284054
       4A    -11.265777     5A    -11.231053     6A     -8.953483
       7A     -6.634839     8A     -6.633824     9A     -6.632797
      10A     -1.343584    11A     -1.090882    12A     -0.990287
      13A     -0.871077    14A     -0.814651    15A     -0.683250
      16A     -0.675141    17A     -0.608346    18A     -0.584558
      19A     -0.545186    20A     -0.528138    21A     -0.508732
      22A     -0.495634    23A     -0.457616    24A     -0.448035
      25A     -0.357184

  @DF-RHF Final Energy:  -590.73430329155894

   => Energetics <=

    Nuclear Repulsion Energy =            223.3249492617490830
    One-Electron Energy =               -1255.8165872013826174
    Two-Electron Energy =                 441.7573346480747318
    Total Energy =                       -590.7343032915589447
  Basis Set: (AUG-CC-PVTZ AUX)
    Blend: AUG-CC-PVTZ-RI
    Molecular point group: c1

    Geometry (in Angstrom), charge = 0, multiplicity = 1:

       Center              X                  Y                   Z               Mass
    ------------   -----------------  -----------------  -----------------  -----------------
         S           -2.260320843983    -0.165318012697    -0.066257175171    31.972071174400
         O            2.897998156017    -0.496153012697    -0.021368175171    15.994914619570
         C            0.542659156017    -0.265877012697    -0.015270175171    12.000000000000
         C           -0.651347843983     0.675488987303     0.073233824829    12.000000000000
         C            1.825459156017     0.517606387303     0.040611824829    12.000000000000
         H            0.498565156017    -0.842278012697    -0.943838175171     1.007825032230
         H            0.521882156017    -0.984157012697     0.811647824829     1.007825032230
         H           -0.635822843983     1.389619987303    -0.756187175171     1.007825032230
         H           -0.622678843983     1.256206987303     0.999982824829     1.007825032230
         H            1.928962156017     1.185509987303    -0.806027175171     1.007825032230
         H            1.925289156017     1.071872987303     0.966279824829     1.007825032230
         H           -2.093915843983    -0.970088012697     0.994252824829     1.007825032230
         H            3.749130156017    -0.028088012697     0.001227824829     1.007825032230

  Basis Set: AUG-CC-PVTZ
    Blend: AUG-CC-PVTZ
  Basis Set: (AUG-CC-PVTZ AUX)
    Blend: AUG-CC-PVTZ-JKFIT
	 Reference Energy          =    -590.7343032915589447 [Eh]
	 Singles Energy            =      -0.0000000000000000 [Eh]
	 Same-Spin Energy          =      -0.2475237753755065 [Eh]
	 Opposite-Spin Energy      =      -0.8305868995786772 [Eh]
	 Correlation Energy        =      -1.0781106749541838 [Eh]
	 Total Energy              =    -591.8124139665130770 [Eh]

	 ================> DF-SCS-MP2 Energies <==================
	-----------------------------------------------------------
	 SCS Same-Spin Scale       =       0.3333333333333333 [-]
	 SCS Opposite-Spin Scale   =       1.2000000000000000 [-]
	 SCS Same-Spin Energy      =      -0.0825079251251688 [Eh]
	 SCS Opposite-Spin Energy  =      -0.9967042794944125 [Eh]
	 SCS Correlation Energy    =      -1.0792122046195813 [Eh]
	 SCS Total Energy          =    -591.8135154961785247 [Eh]
	-----------------------------------------------------------

  Dipole Moment: [D]
     X:     1.5236      Y:     1.8394      Z:     0.7076     Total:     2.4911

*** Psi4 exiting successfully. Buy a developer a beer!
