                               Psi4 1.3.2 release

  ==> Input File <==

--------------------------------------------------------------------------
#psi4
#
memory 32 gb

molecule  {
0 1
  S       -2.3164830    -0.1817160    -0.0786020
  O        2.8418010    -0.5125780    -0.0335720
  C        0.4864880    -0.2823360    -0.0275950
  C       -0.7075030     0.6590380     0.0612160
  C        1.7329634     0.5355030     0.0300427
  H        0.4421100    -0.8587610    -0.9561370
  H        0.4659560    -1.0006030     0.7993460
  H       -0.6918870     1.3735120    -0.7679060
  H       -0.6788470     1.2393610     0.9882120
  H        1.8727330     1.1687090    -0.8189890
  H        1.8690250     1.0558810     0.9533790
  H       -2.1500500    -0.9869150     0.9815770
  H        3.6929260    -0.0445400    -0.0102600
units angstrom
no_reorient  #important for SAPT in psi4, default
symmetry c1  #important for SAPT in psi4, default
}

set PROPERTIES_ORIGIN ["COM"]
properties('MP2/aug-cc-pvtz', properties = ['dipole'])
--------------------------------------------------------------------------

    Molecular point group: c1
  Charge       = 0
  Multiplicity = 1
  Basis Set: AUG-CC-PVTZ
    Blend: AUG-CC-PVTZ
  Basis Set: (AUG-CC-PVTZ AUX)
    Blend: AUG-CC-PVTZ-JKFIT

    Orbital Energies [Eh]
    ---------------------

    Doubly Occupied:

       1A    -91.952725     2A    -20.555048     3A    -11.284715
       4A    -11.266597     5A    -11.232380     6A     -8.953913
       7A     -6.635268     8A     -6.634256     9A     -6.633228
      10A     -1.326766    11A     -1.094545    12A     -0.993110
      13A     -0.872686    14A     -0.817462    15A     -0.679117
      16A     -0.671213    17A     -0.609226    18A     -0.583391
      19A     -0.543804    20A     -0.524338    21A     -0.507376
      22A     -0.498292    23A     -0.460169    24A     -0.448445
      25A     -0.357633

  @DF-RHF Final Energy:  -590.72763715605834

   => Energetics <=

    Nuclear Repulsion Energy =            223.1622462806855083
    One-Electron Energy =               -1255.5083593060376188
    Two-Electron Energy =                 441.6184758692938317
    Total Energy =                       -590.7276371560583357
  Basis Set: (AUG-CC-PVTZ AUX)
    Blend: AUG-CC-PVTZ-RI
    Molecular point group: c1

    Geometry (in Angstrom), charge = 0, multiplicity = 1:

       Center              X                  Y                   Z               Mass
    ------------   -----------------  -----------------  -----------------  -----------------
         S           -2.255575237718    -0.169761782595    -0.066565496743    31.972071174400
         O            2.902708762282    -0.500623782595    -0.021535496743    15.994914619570
         C            0.547395762282    -0.270381782595    -0.015558496743    12.000000000000
         C           -0.646595237718     0.670992217405     0.073252503257    12.000000000000
         C            1.793871162282     0.547457217405     0.042079203257    12.000000000000
         H            0.503017762282    -0.846806782595    -0.944100496743     1.007825032230
         H            0.526863762282    -0.988648782595     0.811382503257     1.007825032230
         H           -0.630979237718     1.385466217405    -0.755869496743     1.007825032230
         H           -0.617939237718     1.251315217405     1.000248503257     1.007825032230
         H            1.933640762282     1.180663217405    -0.806952496743     1.007825032230
         H            1.929932762282     1.067835217405     0.965415503257     1.007825032230
         H           -2.089142237718    -0.974960782595     0.993613503257     1.007825032230
         H            3.753833762282    -0.032585782595     0.001776503257     1.007825032230

  Basis Set: AUG-CC-PVTZ
    Blend: AUG-CC-PVTZ
  Basis Set: (AUG-CC-PVTZ AUX)
    Blend: AUG-CC-PVTZ-JKFIT
	 Reference Energy          =    -590.7276371560583357 [Eh]
	 Singles Energy            =      -0.0000000000000000 [Eh]
	 Same-Spin Energy          =      -0.2478925477142985 [Eh]
	 Opposite-Spin Energy      =      -0.8318211087771856 [Eh]
	 Correlation Energy        =      -1.0797136564914842 [Eh]
	 Total Energy              =    -591.8073508125497710 [Eh]

	 ================> DF-SCS-MP2 Energies <==================
	-----------------------------------------------------------
	 SCS Same-Spin Scale       =       0.3333333333333333 [-]
	 SCS Opposite-Spin Scale   =       1.2000000000000000 [-]
	 SCS Same-Spin Energy      =      -0.0826308492380995 [Eh]
	 SCS Opposite-Spin Energy  =      -0.9981853305326227 [Eh]
	 SCS Correlation Energy    =      -1.0808161797707223 [Eh]
	 SCS Total Energy          =    -591.8084533358290855 [Eh]
	-----------------------------------------------------------

  Dipole Moment: [D]
     X:     1.3787      Y:     1.9342      Z:     0.7145     Total:     2.4804

*** Psi4 exiting successfully. Buy a developer a beer!
