                               Psi4 1.4a3.dev225

  ==> Input File <==

--------------------------------------------------------------------------
#psi4
#
memory 32 gb

molecule  {
0 1
  S       -2.3164950    -0.1817520    -0.0785600
  O        2.8418240    -0.5125870    -0.0336710
  C        0.4864850    -0.2823110    -0.0275730
  C       -0.6633382     0.6821443     0.0647615
  C        1.8055900     0.4668570     0.0262110
  H        0.4423910    -0.8587120    -0.9561410
  H        0.4657080    -1.0005910     0.7993450
  H       -0.6919970     1.3731860    -0.7684900
  H       -0.6788530     1.2397730     0.9876800
  H        1.8727880     1.1690760    -0.8183300
  H        1.8691150     1.0554390     0.9539770
  H       -2.1500900    -0.9865220     0.9819500
  H        3.6929560    -0.0445220    -0.0110750
units angstrom
no_reorient  #important for SAPT in psi4, default
symmetry c1  #important for SAPT in psi4, default
}

set PROPERTIES_ORIGIN ["COM"]
properties('MP2/aug-cc-pvtz', properties = ['dipole'])
--------------------------------------------------------------------------

    Molecular point group: c1
  Charge       = 0
  Multiplicity = 1
  Basis Set: AUG-CC-PVTZ
    Blend: AUG-CC-PVTZ
  Basis Set: (AUG-CC-PVTZ AUX)
    Blend: AUG-CC-PVTZ-JKFIT

    Orbital Energies [Eh]
    ---------------------

    Doubly Occupied:

       1A    -91.950268     2A    -20.565988     3A    -11.284594
       4A    -11.265888     5A    -11.230069     6A     -8.950909
       7A     -6.632220     8A     -6.631185     9A     -6.630212
      10A     -1.362789    11A     -1.088860    12A     -0.981969
      13A     -0.871399    14A     -0.815109    15A     -0.697353
      16A     -0.675317    17A     -0.610598    18A     -0.590531
      19A     -0.550652    20A     -0.527986    21A     -0.510081
      22A     -0.495279    23A     -0.453003    24A     -0.438248
      25A     -0.356446

  @DF-RHF Final Energy:  -590.73588799615743

   => Energetics <=

    Nuclear Repulsion Energy =            223.2219398933111165
    One-Electron Energy =               -1255.5817526691923831
    Two-Electron Energy =                 441.6239247797238363
    Total Energy =                       -590.7358879961573166
  Basis Set: (AUG-CC-PVTZ AUX)
    Blend: AUG-CC-PVTZ-RI
    Molecular point group: c1

    Geometry (in Angstrom), charge = 0, multiplicity = 1:

       Center              X                  Y                   Z               Mass
    ------------   -----------------  -----------------  -----------------  -----------------
         S           -2.270816008000    -0.163854209525    -0.066483080784    31.972071174400
         O            2.887502992000    -0.494689209525    -0.021594080784    15.994914619570
         C            0.532163992000    -0.264413209525    -0.015496080784    12.000000000000
         C           -0.617659208000     0.700042090475     0.076838419216    12.000000000000
         C            1.851268992000     0.484754790475     0.038287919216    12.000000000000
         H            0.488069992000    -0.840814209525    -0.944064080784     1.007825032230
         H            0.511386992000    -0.982693209525     0.811421919216     1.007825032230
         H           -0.646318008000     1.391083790475    -0.756413080784     1.007825032230
         H           -0.633174008000     1.257670790475     0.999756919216     1.007825032230
         H            1.918466992000     1.186973790475    -0.806253080784     1.007825032230
         H            1.914793992000     1.073336790475     0.966053919216     1.007825032230
         H           -2.104411008000    -0.968624209525     0.994026919216     1.007825032230
         H            3.738634992000    -0.026624209525     0.001001919216     1.007825032230

  Basis Set: AUG-CC-PVTZ
    Blend: AUG-CC-PVTZ
  Basis Set: (AUG-CC-PVTZ AUX)
    Blend: AUG-CC-PVTZ-JKFIT
	 Reference Energy          =    -590.7358879961574303 [Eh]
	 Singles Energy            =      -0.0000000000000000 [Eh]
	 Same-Spin Energy          =      -0.2472344130368941 [Eh]
	 Opposite-Spin Energy      =      -0.8296556691029764 [Eh]
	 Correlation Energy        =      -1.0768900821398706 [Eh]
	 Total Energy              =    -591.8127780782973559 [Eh]

	 ================> DF-SCS-MP2 Energies <==================
	-----------------------------------------------------------
	 SCS Same-Spin Scale       =       0.3333333333333333 [-]
	 SCS Opposite-Spin Scale   =       1.2000000000000000 [-]
	 SCS Same-Spin Energy      =      -0.0824114710122980 [Eh]
	 SCS Opposite-Spin Energy  =      -0.9955868029235716 [Eh]
	 SCS Correlation Energy    =      -1.0779982739358696 [Eh]
	 SCS Total Energy          =    -591.8138862700933487 [Eh]
	-----------------------------------------------------------

  Dipole Moment: [D]
     X:     1.7669      Y:     1.7538      Z:     0.7018     Total:     2.5866

*** Psi4 exiting successfully. Buy a developer a beer!
