                               Psi4 1.3.2 release

  ==> Input File <==

--------------------------------------------------------------------------
#psi4
#
memory 32 gb

molecule  {
0 1
  S       -2.3164830    -0.1817160    -0.0786020
  O        2.8418010    -0.5125780    -0.0335720
  C        0.4864880    -0.2823360    -0.0275950
  C       -0.7075030     0.6590380     0.0612160
  C        1.8765458     0.5366679     0.0295652
  H        0.4421100    -0.8587610    -0.9561370
  H        0.4659560    -1.0006030     0.7993460
  H       -0.6918870     1.3735120    -0.7679060
  H       -0.6788470     1.2393610     0.9882120
  H        1.8727330     1.1687090    -0.8189890
  H        1.8690250     1.0558810     0.9533790
  H       -2.1500500    -0.9869150     0.9815770
  H        3.6929260    -0.0445400    -0.0102600
units angstrom
no_reorient  #important for SAPT in psi4, default
symmetry c1  #important for SAPT in psi4, default
}

set PROPERTIES_ORIGIN ["COM"]
properties('MP2/aug-cc-pvtz', properties = ['dipole'])
--------------------------------------------------------------------------

    Molecular point group: c1
  Charge       = 0
  Multiplicity = 1
  Basis Set: AUG-CC-PVTZ
    Blend: AUG-CC-PVTZ
  Basis Set: (AUG-CC-PVTZ AUX)
    Blend: AUG-CC-PVTZ-JKFIT

    Orbital Energies [Eh]
    ---------------------

    Doubly Occupied:

       1A    -91.950189     2A    -20.569361     3A    -11.281726
       4A    -11.262599     5A    -11.231940     6A     -8.951374
       7A     -6.632729     8A     -6.631714     9A     -6.630692
      10A     -1.365518    11A     -1.078819    12A     -0.977642
      13A     -0.874342    14A     -0.811852    15A     -0.694151
      16A     -0.675431    17A     -0.615217    18A     -0.584445
      19A     -0.544651    20A     -0.530021    21A     -0.506592
      22A     -0.485169    23A     -0.466938    24A     -0.434389
      25A     -0.354279

  @DF-RHF Final Energy:  -590.72746608851412

   => Energetics <=

    Nuclear Repulsion Energy =            222.4310809849848170
    One-Electron Energy =               -1254.0335339372056751
    Two-Electron Energy =                 440.8749868637066811
    Total Energy =                       -590.7274660885141202
  Basis Set: (AUG-CC-PVTZ AUX)
    Blend: AUG-CC-PVTZ-RI
    Molecular point group: c1

    Geometry (in Angstrom), charge = 0, multiplicity = 1:

       Center              X                  Y                   Z               Mass
    ------------   -----------------  -----------------  -----------------  -----------------
         S           -2.274297356049    -0.169913677226    -0.066503234157    31.972071174400
         O            2.883986643951    -0.500775677226    -0.021473234157    15.994914619570
         C            0.528673643951    -0.270533677226    -0.015496234157    12.000000000000
         C           -0.665317356049     0.670840322774     0.073314765843    12.000000000000
         C            1.918731443951     0.548470222774     0.041663965843    12.000000000000
         H            0.484295643951    -0.846958677226    -0.944038234157     1.007825032230
         H            0.508141643951    -0.988800677226     0.811444765843     1.007825032230
         H           -0.649701356049     1.385314322774    -0.755807234157     1.007825032230
         H           -0.636661356049     1.251163322774     1.000310765843     1.007825032230
         H            1.914918643951     1.180511322774    -0.806890234157     1.007825032230
         H            1.911210643951     1.067683322774     0.965477765843     1.007825032230
         H           -2.107864356049    -0.975112677226     0.993675765843     1.007825032230
         H            3.735111643951    -0.032737677226     0.001838765843     1.007825032230

  Basis Set: AUG-CC-PVTZ
    Blend: AUG-CC-PVTZ
  Basis Set: (AUG-CC-PVTZ AUX)
    Blend: AUG-CC-PVTZ-JKFIT
	 Reference Energy          =    -590.7274660885141202 [Eh]
	 Singles Energy            =      -0.0000000000000000 [Eh]
	 Same-Spin Energy          =      -0.2473372273811602 [Eh]
	 Opposite-Spin Energy      =      -0.8303595938588197 [Eh]
	 Correlation Energy        =      -1.0776968212399800 [Eh]
	 Total Energy              =    -591.8051629097541309 [Eh]

	 ================> DF-SCS-MP2 Energies <==================
	-----------------------------------------------------------
	 SCS Same-Spin Scale       =       0.3333333333333333 [-]
	 SCS Opposite-Spin Scale   =       1.2000000000000000 [-]
	 SCS Same-Spin Energy      =      -0.0824457424603867 [Eh]
	 SCS Opposite-Spin Energy  =      -0.9964315126305836 [Eh]
	 SCS Correlation Energy    =      -1.0788772550909704 [Eh]
	 SCS Total Energy          =    -591.8063433436051355 [Eh]
	-----------------------------------------------------------

  Dipole Moment: [D]
     X:     1.8289      Y:     1.7850      Z:     0.7026     Total:     2.6505

*** Psi4 exiting successfully. Buy a developer a beer!
