                               Psi4 1.3.2 release

  ==> Input File <==

--------------------------------------------------------------------------
#psi4
#
memory 32 gb

molecule  {
0 1
  S       -2.3164830    -0.1817160    -0.0786020
  O        2.8418010    -0.5125780    -0.0335720
  C        0.4864880    -0.2823360    -0.0275950
  C       -0.7075030     0.6590380     0.0612160
  C        1.9507951     0.3296070     0.0175456
  H        0.4421100    -0.8587610    -0.9561370
  H        0.4659560    -1.0006030     0.7993460
  H       -0.6918870     1.3735120    -0.7679060
  H       -0.6788470     1.2393610     0.9882120
  H        1.8727330     1.1687090    -0.8189890
  H        1.8690250     1.0558810     0.9533790
  H       -2.1500500    -0.9869150     0.9815770
  H        3.6929260    -0.0445400    -0.0102600
units angstrom
no_reorient  #important for SAPT in psi4, default
symmetry c1  #important for SAPT in psi4, default
}

set PROPERTIES_ORIGIN ["COM"]
properties('MP2/aug-cc-pvtz', properties = ['dipole'])
--------------------------------------------------------------------------

    Molecular point group: c1
  Charge       = 0
  Multiplicity = 1
  Basis Set: AUG-CC-PVTZ
    Blend: AUG-CC-PVTZ
  Basis Set: (AUG-CC-PVTZ AUX)
    Blend: AUG-CC-PVTZ-JKFIT

    Orbital Energies [Eh]
    ---------------------

    Doubly Occupied:

       1A    -91.950640     2A    -20.589796     3A    -11.295823
       4A    -11.262733     5A    -11.226928     6A     -8.951714
       7A     -6.633066     8A     -6.632040     9A     -6.631015
      10A     -1.468085    11A     -1.075929    12A     -0.975067
      13A     -0.872335    14A     -0.804387    15A     -0.753746
      16A     -0.676694    17A     -0.643277    18A     -0.621608
      19A     -0.550637    20A     -0.529512    21A     -0.505665
      22A     -0.471638    23A     -0.427451    24A     -0.410972
      25A     -0.354576

  @DF-RHF Final Energy:  -590.69166376378996

   => Energetics <=

    Nuclear Repulsion Energy =            224.6320527183278557
    One-Electron Energy =               -1258.0167627569335309
    Two-Electron Energy =                 442.6930462748155719
    Total Energy =                       -590.6916637637900749
  Basis Set: (AUG-CC-PVTZ AUX)
    Blend: AUG-CC-PVTZ-RI
    Molecular point group: c1

    Geometry (in Angstrom), charge = 0, multiplicity = 1:

       Center              X                  Y                   Z               Mass
    ------------   -----------------  -----------------  -----------------  -----------------
         S           -2.283978933879    -0.142914416373    -0.064935964259    31.972071174400
         O            2.874305066121    -0.473776416373    -0.019905964259    15.994914619570
         C            0.518992066121    -0.243534416373    -0.013928964259    12.000000000000
         C           -0.674998933879     0.697839583627     0.074882035741    12.000000000000
         C            1.983299166121     0.368408583627     0.031211635741    12.000000000000
         H            0.474614066121    -0.819959416373    -0.942470964259     1.007825032230
         H            0.498460066121    -0.961801416373     0.813012035741     1.007825032230
         H           -0.659382933879     1.412313583627    -0.754239964259     1.007825032230
         H           -0.646342933879     1.278162583627     1.001878035741     1.007825032230
         H            1.905237066121     1.207510583627    -0.805322964259     1.007825032230
         H            1.901529066121     1.094682583627     0.967045035741     1.007825032230
         H           -2.117545933879    -0.948113416373     0.995243035741     1.007825032230
         H            3.725430066121    -0.005738416373     0.003406035741     1.007825032230

  Basis Set: AUG-CC-PVTZ
    Blend: AUG-CC-PVTZ
  Basis Set: (AUG-CC-PVTZ AUX)
    Blend: AUG-CC-PVTZ-JKFIT
	 Reference Energy          =    -590.6916637637899612 [Eh]
	 Singles Energy            =      -0.0000000000000000 [Eh]
	 Same-Spin Energy          =      -0.2479342589409592 [Eh]
	 Opposite-Spin Energy      =      -0.8285480593979713 [Eh]
	 Correlation Energy        =      -1.0764823183389305 [Eh]
	 Total Energy              =    -591.7681460821288510 [Eh]

	 ================> DF-SCS-MP2 Energies <==================
	-----------------------------------------------------------
	 SCS Same-Spin Scale       =       0.3333333333333333 [-]
	 SCS Opposite-Spin Scale   =       1.2000000000000000 [-]
	 SCS Same-Spin Energy      =      -0.0826447529803197 [Eh]
	 SCS Opposite-Spin Energy  =      -0.9942576712775655 [Eh]
	 SCS Correlation Energy    =      -1.0769024242578853 [Eh]
	 SCS Total Energy          =    -591.7685661880478847 [Eh]
	-----------------------------------------------------------

  Dipole Moment: [D]
     X:     2.4010      Y:     1.1045      Z:     0.6606     Total:     2.7242

*** Psi4 exiting successfully. Buy a developer a beer!
