                               Psi4 1.3.2 release

  ==> Input File <==

--------------------------------------------------------------------------
#psi4
#
memory 32 gb

molecule  {
0 1
  S       -2.3164830    -0.1817160    -0.0786020
  O        2.8418010    -0.5125780    -0.0335720
  C        0.4864880    -0.2823360    -0.0275950
  C       -0.7075030     0.6590380     0.0612160
  C        1.7886069     0.4486624     0.0249090
  H        0.4421100    -0.8587610    -0.9561370
  H        0.4659560    -1.0006030     0.7993460
  H       -0.6918870     1.3735120    -0.7679060
  H       -0.6788470     1.2393610     0.9882120
  H        1.8727330     1.1687090    -0.8189890
  H        1.8690250     1.0558810     0.9533790
  H       -2.1500500    -0.9869150     0.9815770
  H        3.6929260    -0.0445400    -0.0102600
units angstrom
no_reorient  #important for SAPT in psi4, default
symmetry c1  #important for SAPT in psi4, default
}

set PROPERTIES_ORIGIN ["COM"]
properties('MP2/aug-cc-pvtz', properties = ['dipole'])
--------------------------------------------------------------------------

    Molecular point group: c1
  Charge       = 0
  Multiplicity = 1
  Basis Set: AUG-CC-PVTZ
    Blend: AUG-CC-PVTZ
  Basis Set: (AUG-CC-PVTZ AUX)
    Blend: AUG-CC-PVTZ-JKFIT

    Orbital Energies [Eh]
    ---------------------

    Doubly Occupied:

       1A    -91.952437     2A    -20.565113     3A    -11.285516
       4A    -11.265793     5A    -11.229389     6A     -8.953579
       7A     -6.634935     8A     -6.633916     9A     -6.632889
      10A     -1.361947    11A     -1.090146    12A     -0.990076
      13A     -0.868950    14A     -0.811417    15A     -0.696828
      16A     -0.671917    17A     -0.607098    18A     -0.593036
      19A     -0.548441    20A     -0.530266    21A     -0.508093
      22A     -0.493105    23A     -0.450280    24A     -0.446992
      25A     -0.357352

  @DF-RHF Final Energy:  -590.73648574755828

   => Energetics <=

    Nuclear Repulsion Energy =            223.7876472872303282
    One-Electron Energy =               -1256.6892488718428922
    Two-Electron Energy =                 442.1651158370542021
    Total Energy =                       -590.7364857475583904
  Basis Set: (AUG-CC-PVTZ AUX)
    Blend: AUG-CC-PVTZ-RI
    Molecular point group: c1

    Geometry (in Angstrom), charge = 0, multiplicity = 1:

       Center              X                  Y                   Z               Mass
    ------------   -----------------  -----------------  -----------------  -----------------
         S           -2.262830752262    -0.158438389274    -0.065896098970    31.972071174400
         O            2.895453247738    -0.489300389274    -0.020866098970    15.994914619570
         C            0.540140247738    -0.259058389274    -0.014889098970    12.000000000000
         C           -0.653850752262     0.682315610726     0.073921901030    12.000000000000
         C            1.842259147738     0.471940010726     0.037614901030    12.000000000000
         H            0.495762247738    -0.835483389274    -0.943431098970     1.007825032230
         H            0.519608247738    -0.977325389274     0.812051901030     1.007825032230
         H           -0.638234752262     1.396789610726    -0.755200098970     1.007825032230
         H           -0.625194752262     1.262638610726     1.000917901030     1.007825032230
         H            1.926385247738     1.191986610726    -0.806283098970     1.007825032230
         H            1.922677247738     1.079158610726     0.966084901030     1.007825032230
         H           -2.096397752262    -0.963637389274     0.994282901030     1.007825032230
         H            3.746578247738    -0.021262389274     0.002445901030     1.007825032230

  Basis Set: AUG-CC-PVTZ
    Blend: AUG-CC-PVTZ
  Basis Set: (AUG-CC-PVTZ AUX)
    Blend: AUG-CC-PVTZ-JKFIT
	 Reference Energy          =    -590.7364857475582767 [Eh]
	 Singles Energy            =      -0.0000000000000000 [Eh]
	 Same-Spin Energy          =      -0.2474050549479481 [Eh]
	 Opposite-Spin Energy      =      -0.8296395839324164 [Eh]
	 Correlation Energy        =      -1.0770446388803645 [Eh]
	 Total Energy              =    -591.8135303864386287 [Eh]

	 ================> DF-SCS-MP2 Energies <==================
	-----------------------------------------------------------
	 SCS Same-Spin Scale       =       0.3333333333333333 [-]
	 SCS Opposite-Spin Scale   =       1.2000000000000000 [-]
	 SCS Same-Spin Energy      =      -0.0824683516493160 [Eh]
	 SCS Opposite-Spin Energy  =      -0.9955675007188997 [Eh]
	 SCS Correlation Energy    =      -1.0780358523682156 [Eh]
	 SCS Total Energy          =    -591.8145215999264792 [Eh]
	-----------------------------------------------------------

  Dipole Moment: [D]
     X:     1.6330      Y:     1.7101      Z:     0.7008     Total:     2.4662

*** Psi4 exiting successfully. Buy a developer a beer!
