                               Psi4 1.4a3.dev225

  ==> Input File <==

--------------------------------------------------------------------------
#psi4
#
memory 32 gb

molecule  {
0 1
  S       -2.3164950    -0.1817520    -0.0785600
  O        2.8418240    -0.5125870    -0.0336710
  C        0.4864850    -0.2823110    -0.0275730
  C       -0.7075220     0.6590550     0.0609310
  C        1.8055900     0.4668570     0.0262110
  H        0.4423910    -0.8587120    -0.9561410
  H        0.4657080    -1.0005910     0.7993450
  H       -0.6919970     1.3731860    -0.7684900
  H       -0.6788530     1.2397730     0.9876800
  H        1.8727880     1.1690760    -0.8183300
  H        1.8691150     1.0554390     0.9539770
  H       -2.1476094    -0.9985187     0.9977590
  H        3.6929560    -0.0445220    -0.0110750
units angstrom
no_reorient  #important for SAPT in psi4, default
symmetry c1  #important for SAPT in psi4, default
}

set PROPERTIES_ORIGIN ["COM"]
properties('MP2/aug-cc-pvtz', properties = ['dipole'])
--------------------------------------------------------------------------

    Molecular point group: c1
  Charge       = 0
  Multiplicity = 1
  Basis Set: AUG-CC-PVTZ
    Blend: AUG-CC-PVTZ
  Basis Set: (AUG-CC-PVTZ AUX)
    Blend: AUG-CC-PVTZ-JKFIT

    Orbital Energies [Eh]
    ---------------------

    Doubly Occupied:

       1A    -91.953520     2A    -20.565842     3A    -11.284383
       4A    -11.265149     5A    -11.229926     6A     -8.954175
       7A     -6.635484     8A     -6.634506     9A     -6.633495
      10A     -1.362516    11A     -1.087174    12A     -0.986285
      13A     -0.868444    14A     -0.811386    15A     -0.696260
      16A     -0.672037    17A     -0.608172    18A     -0.590170
      19A     -0.546185    20A     -0.529909    21A     -0.508146
      22A     -0.491365    23A     -0.452602    24A     -0.446464
      25A     -0.356721

  @DF-RHF Final Energy:  -590.73672158777526

   => Energetics <=

    Nuclear Repulsion Energy =            223.4058999385438256
    One-Electron Energy =               -1255.9446108852364432
    Two-Electron Energy =                 441.8019893589173535
    Total Energy =                       -590.7367215877752642
  Basis Set: (AUG-CC-PVTZ AUX)
    Blend: AUG-CC-PVTZ-RI
    Molecular point group: c1

    Geometry (in Angstrom), charge = 0, multiplicity = 1:

       Center              X                  Y                   Z               Mass
    ------------   -----------------  -----------------  -----------------  -----------------
         S           -2.265081921693    -0.160712152856    -0.066156736883    31.972071174400
         O            2.893237078307    -0.491547152856    -0.021267736883    15.994914619570
         C            0.537898078307    -0.261271152856    -0.015169736883    12.000000000000
         C           -0.656108921693     0.680094847144     0.073334263117    12.000000000000
         C            1.857003078307     0.487896847144     0.038614263117    12.000000000000
         H            0.493804078307    -0.837672152856    -0.943737736883     1.007825032230
         H            0.517121078307    -0.979551152856     0.811748263117     1.007825032230
         H           -0.640583921693     1.394225847144    -0.756086736883     1.007825032230
         H           -0.627439921693     1.260812847144     1.000083263117     1.007825032230
         H            1.924201078307     1.190115847144    -0.805926736883     1.007825032230
         H            1.920528078307     1.076478847144     0.966380263117     1.007825032230
         H           -2.096196321693    -0.977478852856     1.010162263117     1.007825032230
         H            3.744369078307    -0.023482152856     0.001328263117     1.007825032230

  Basis Set: AUG-CC-PVTZ
    Blend: AUG-CC-PVTZ
  Basis Set: (AUG-CC-PVTZ AUX)
    Blend: AUG-CC-PVTZ-JKFIT
	 Reference Energy          =    -590.7367215877752642 [Eh]
	 Singles Energy            =      -0.0000000000000000 [Eh]
	 Same-Spin Energy          =      -0.2472918403146482 [Eh]
	 Opposite-Spin Energy      =      -0.8297145071605461 [Eh]
	 Correlation Energy        =      -1.0770063474751943 [Eh]
	 Total Energy              =    -591.8137279352504265 [Eh]

	 ================> DF-SCS-MP2 Energies <==================
	-----------------------------------------------------------
	 SCS Same-Spin Scale       =       0.3333333333333333 [-]
	 SCS Opposite-Spin Scale   =       1.2000000000000000 [-]
	 SCS Same-Spin Energy      =      -0.0824306134382161 [Eh]
	 SCS Opposite-Spin Energy  =      -0.9956574085926553 [Eh]
	 SCS Correlation Energy    =      -1.0780880220308713 [Eh]
	 SCS Total Energy          =    -591.8148096098061615 [Eh]
	-----------------------------------------------------------

  Dipole Moment: [D]
     X:     1.6749      Y:     1.7329      Z:     0.6986     Total:     2.5092

*** Psi4 exiting successfully. Buy a developer a beer!
