                               Psi4 1.3.2 release

  ==> Input File <==

--------------------------------------------------------------------------
#psi4
#
memory 32 gb

molecule  {
0 1
  S       -2.3164830    -0.1817160    -0.0786020
  O        2.8418010    -0.5125780    -0.0335720
  C        0.4864880    -0.2823360    -0.0275950
  C       -0.7075030     0.6590380     0.0612160
  C        1.8055740     0.4668710     0.0258770
  H        0.4421100    -0.8587610    -0.9561370
  H        0.4659560    -1.0006030     0.7993460
  H       -0.6918870     1.3735120    -0.7679060
  H       -0.6788470     1.2393610     0.9882120
  H        1.8727330     1.1687090    -0.8189890
  H        1.8690250     1.0558810     0.9533790
  H       -2.1500500    -0.9869150     0.9815770
  H        3.6929260    -0.0445400    -0.0102600
units angstrom
no_reorient  #important for SAPT in psi4, default
symmetry c1  #important for SAPT in psi4, default
}

set PROPERTIES_ORIGIN ["COM"]
properties('MP2/aug-cc-pvtz', properties = ['dipole'])
--------------------------------------------------------------------------

    Molecular point group: c1
  Charge       = 0
  Multiplicity = 1
  Basis Set: AUG-CC-PVTZ
    Blend: AUG-CC-PVTZ
  Basis Set: (AUG-CC-PVTZ AUX)
    Blend: AUG-CC-PVTZ-JKFIT

    Orbital Energies [Eh]
    ---------------------

    Doubly Occupied:

       1A    -91.951963     2A    -20.565849     3A    -11.284392
       4A    -11.265079     5A    -11.229942     6A     -8.953113
       7A     -6.634469     8A     -6.633451     9A     -6.632425
      10A     -1.362531    11A     -1.087456    12A     -0.987310
      13A     -0.869805    14A     -0.811803    15A     -0.696341
      16A     -0.672087    17A     -0.608616    18A     -0.590311
      19A     -0.546958    20A     -0.530795    21A     -0.508171
      22A     -0.491904    23A     -0.452618    24A     -0.446693
      25A     -0.356752

  @DF-RHF Final Energy:  -590.73716090392224

   => Energetics <=

    Nuclear Repulsion Energy =            223.5123692935301847
    One-Electron Energy =               -1256.1573898884494156
    Two-Electron Energy =                 441.9078596909970429
    Total Energy =                       -590.7371609039222449
  Basis Set: (AUG-CC-PVTZ AUX)
    Blend: AUG-CC-PVTZ-RI
    Molecular point group: c1

    Geometry (in Angstrom), charge = 0, multiplicity = 1:

       Center              X                  Y                   Z               Mass
    ------------   -----------------  -----------------  -----------------  -----------------
         S           -2.265043140785    -0.160812660521    -0.066022319249    31.972071174400
         O            2.893240859215    -0.491674660521    -0.020992319249    15.994914619570
         C            0.537927859215    -0.261432660521    -0.015015319249    12.000000000000
         C           -0.656063140785     0.679941339479     0.073795680751    12.000000000000
         C            1.857013859215     0.487774339479     0.038456680751    12.000000000000
         H            0.493549859215    -0.837857660521    -0.943557319249     1.007825032230
         H            0.517395859215    -0.979699660521     0.811925680751     1.007825032230
         H           -0.640447140785     1.394415339479    -0.755326319249     1.007825032230
         H           -0.627407140785     1.260264339479     1.000791680751     1.007825032230
         H            1.924172859215     1.189612339479    -0.806409319249     1.007825032230
         H            1.920464859215     1.076784339479     0.965958680751     1.007825032230
         H           -2.098610140785    -0.966011660521     0.994156680751     1.007825032230
         H            3.744365859215    -0.023636660521     0.002319680751     1.007825032230

  Basis Set: AUG-CC-PVTZ
    Blend: AUG-CC-PVTZ
  Basis Set: (AUG-CC-PVTZ AUX)
    Blend: AUG-CC-PVTZ-JKFIT
	 Reference Energy          =    -590.7371609039222449 [Eh]
	 Singles Energy            =      -0.0000000000000000 [Eh]
	 Same-Spin Energy          =      -0.2472963549117098 [Eh]
	 Opposite-Spin Energy      =      -0.8296050414924422 [Eh]
	 Correlation Energy        =      -1.0769013964041521 [Eh]
	 Total Energy              =    -591.8140623003264409 [Eh]

	 ================> DF-SCS-MP2 Energies <==================
	-----------------------------------------------------------
	 SCS Same-Spin Scale       =       0.3333333333333333 [-]
	 SCS Opposite-Spin Scale   =       1.2000000000000000 [-]
	 SCS Same-Spin Energy      =      -0.0824321183039033 [Eh]
	 SCS Opposite-Spin Energy  =      -0.9955260497909306 [Eh]
	 SCS Correlation Energy    =      -1.0779581680948338 [Eh]
	 SCS Total Energy          =    -591.8151190720170689 [Eh]
	-----------------------------------------------------------

  Dipole Moment: [D]
     X:     1.6749      Y:     1.7306      Z:     0.7015     Total:     2.5084

*** Psi4 exiting successfully. Buy a developer a beer!
