                               Psi4 1.3.2 release

  ==> Input File <==

--------------------------------------------------------------------------
#psi4
#
memory 32 gb

molecule  {
0 1
  S       -2.3164830    -0.1817160    -0.0786020
  O        2.7843725    -0.5695664     0.0919984
  C        0.4864880    -0.2823360    -0.0275950
  C       -0.7075030     0.6590380     0.0612160
  C        1.8055740     0.4668710     0.0258770
  H        0.4421100    -0.8587610    -0.9561370
  H        0.4659560    -1.0006030     0.7993460
  H       -0.6918870     1.3735120    -0.7679060
  H       -0.6788470     1.2393610     0.9882120
  H        1.8727330     1.1687090    -0.8189890
  H        1.8690250     1.0558810     0.9533790
  H       -2.1500500    -0.9869150     0.9815770
  H        3.6929260    -0.0445400    -0.0102600
units angstrom
no_reorient  #important for SAPT in psi4, default
symmetry c1  #important for SAPT in psi4, default
}

set PROPERTIES_ORIGIN ["COM"]
properties('MP2/aug-cc-pvtz', properties = ['dipole'])
--------------------------------------------------------------------------

    Molecular point group: c1
  Charge       = 0
  Multiplicity = 1
  Basis Set: AUG-CC-PVTZ
    Blend: AUG-CC-PVTZ
  Basis Set: (AUG-CC-PVTZ AUX)
    Blend: AUG-CC-PVTZ-JKFIT

    Orbital Energies [Eh]
    ---------------------

    Doubly Occupied:

       1A    -91.950773     2A    -20.576020     3A    -11.283615
       4A    -11.263522     5A    -11.227873     6A     -8.951944
       7A     -6.633304     8A     -6.632287     9A     -6.631264
      10A     -1.351471    11A     -1.085020    12A     -0.983454
      13A     -0.865798    14A     -0.811691    15A     -0.682703
      16A     -0.668575    17A     -0.607997    18A     -0.587198
      19A     -0.543177    20A     -0.529187    21A     -0.509720
      22A     -0.491085    23A     -0.452867    24A     -0.443819
      25A     -0.355424

  @DF-RHF Final Energy:  -590.72315197762475

   => Energetics <=

    Nuclear Repulsion Energy =            223.6645701200130247
    One-Electron Energy =               -1256.5358663079073267
    Two-Electron Energy =                 442.1481442102696064
    Total Energy =                       -590.7231519776247524
  Basis Set: (AUG-CC-PVTZ AUX)
    Blend: AUG-CC-PVTZ-RI
    Molecular point group: c1

    Geometry (in Angstrom), charge = 0, multiplicity = 1:

       Center              X                  Y                   Z               Mass
    ------------   -----------------  -----------------  -----------------  -----------------
         S           -2.255061959801    -0.150907969743    -0.087846690224    31.972071174400
         O            2.845793540199    -0.538758369743     0.082753709776    15.994914619570
         C            0.547909040199    -0.251527969743    -0.036839690224    12.000000000000
         C           -0.646081959801     0.689846030257     0.051971309776    12.000000000000
         C            1.866995040199     0.497679030257     0.016632309776    12.000000000000
         H            0.503531040199    -0.827952969743    -0.965381690224     1.007825032230
         H            0.527377040199    -0.969794969743     0.790101309776     1.007825032230
         H           -0.630465959801     1.404320030257    -0.777150690224     1.007825032230
         H           -0.617425959801     1.270169030257     0.978967309776     1.007825032230
         H            1.934154040199     1.199517030257    -0.828233690224     1.007825032230
         H            1.930446040199     1.086689030257     0.944134309776     1.007825032230
         H           -2.088628959801    -0.956106969743     0.972332309776     1.007825032230
         H            3.754347040199    -0.013731969743    -0.019504690224     1.007825032230

  Basis Set: AUG-CC-PVTZ
    Blend: AUG-CC-PVTZ
  Basis Set: (AUG-CC-PVTZ AUX)
    Blend: AUG-CC-PVTZ-JKFIT
	 Reference Energy          =    -590.7231519776247524 [Eh]
	 Singles Energy            =      -0.0000000000000000 [Eh]
	 Same-Spin Energy          =      -0.2486450952365557 [Eh]
	 Opposite-Spin Energy      =      -0.8330707438490125 [Eh]
	 Correlation Energy        =      -1.0817158390855681 [Eh]
	 Total Energy              =    -591.8048678167102707 [Eh]

	 ================> DF-SCS-MP2 Energies <==================
	-----------------------------------------------------------
	 SCS Same-Spin Scale       =       0.3333333333333333 [-]
	 SCS Opposite-Spin Scale   =       1.2000000000000000 [-]
	 SCS Same-Spin Energy      =      -0.0828816984121852 [Eh]
	 SCS Opposite-Spin Energy  =      -0.9996848926188149 [Eh]
	 SCS Correlation Energy    =      -1.0825665910310001 [Eh]
	 SCS Total Energy          =    -591.8057185686557204 [Eh]
	-----------------------------------------------------------

  Dipole Moment: [D]
     X:     1.8184      Y:     1.7878      Z:     0.4154     Total:     2.5836

*** Psi4 exiting successfully. Buy a developer a beer!
