                               Psi4 1.4a3.dev225

  ==> Input File <==

--------------------------------------------------------------------------
#psi4
#
memory 32 gb

molecule  {
0 1
  I       -2.1233850    -0.0000070     0.0029360
  I        0.9137110    -1.7822490    -0.4028610
  I        0.9136990     1.7822560    -0.4028600
  C        0.1632690     0.0000000     1.9871780
  C        0.0298409     0.0409084     0.4435283
  C        1.5921310     0.0000020     2.5199530
  H       -0.3713710     0.8821210     2.3563980
  H       -0.3713680    -0.8821230     2.3563980
  H        2.1414910    -0.8861860     2.1993740
  H        1.5595910     0.0000060     3.6127340
  H        2.1414910     0.8861880     2.1993680
units angstrom
no_reorient  #important for SAPT in psi4, default
symmetry c1  #important for SAPT in psi4, default
}

set PROPERTIES_ORIGIN ["COM"]
properties('MP2/aug-cc-pvtz', properties = ['dipole'])
--------------------------------------------------------------------------

    Molecular point group: c1
  Charge       = 0
  Multiplicity = 1
  Basis Set: AUG-CC-PVTZ
    Blend: AUG-CC-PVTZ
  Basis Set: (AUG-CC-PVTZ AUX)
    Blend: AUG-CC-PVTZ-JKFIT + DEF2-UNIVERSAL-JKFIT

    Orbital Energies [Eh]
    ---------------------

    Doubly Occupied:

       1A    -11.391050     2A    -11.266945     3A    -11.231574
       4A     -7.737661     5A     -7.732068     6A     -7.732052
       7A     -5.570268     8A     -5.564522     9A     -5.564509
      10A     -5.559248    11A     -5.559145    12A     -5.553669
      13A     -5.553587    14A     -5.553565    15A     -5.553555
      16A     -2.300046    17A     -2.294693    18A     -2.294584
      19A     -2.293965    20A     -2.293796    21A     -2.288943
      22A     -2.288907    23A     -2.288880    24A     -2.288797
      25A     -2.282362    26A     -2.282352    27A     -2.276798
      28A     -2.276790    29A     -2.276724    30A     -2.276720
      31A     -1.108281    32A     -0.993570    33A     -0.903247
      34A     -0.895770    35A     -0.872251    36A     -0.735393
      37A     -0.645168    38A     -0.605375    39A     -0.564973
      40A     -0.538455    41A     -0.513695    42A     -0.473551
      43A     -0.467697    44A     -0.397830    45A     -0.392148
      46A     -0.386371    47A     -0.364736    48A     -0.360758
      49A     -0.351045

  @DF-RHF Final Energy: -1000.50889752025807

   => Energetics <=

    Nuclear Repulsion Energy =            645.3902159425632590
    One-Electron Energy =               -2985.8020481502712755
    Two-Electron Energy =                1339.9029346874497151
    Total Energy =                      -1000.5088975202581878
  Basis Set: (AUG-CC-PVTZ AUX)
    Blend: AUG-CC-PVTZ-RI + DEF2-QZVPP-RI
    Molecular point group: c1

    Geometry (in Angstrom), charge = 0, multiplicity = 1:

       Center              X                  Y                   Z               Mass
    ------------   -----------------  -----------------  -----------------  -----------------
         I           -2.097308287142    -0.001171025819     0.073226637669   126.904471900000
         I            0.939787712858    -1.783413025819    -0.332570362331   126.904471900000
         I            0.939775712858     1.781091974181    -0.332569362331   126.904471900000
         C            0.189345712858    -0.001164025819     2.057468637669    12.000000000000
         C            0.055917612858     0.039744374181     0.513818937669    12.000000000000
         C            1.618207712858    -0.001162025819     2.590243637669    12.000000000000
         H           -0.345294287142     0.880956974181     2.426688637669     1.007825032230
         H           -0.345291287142    -0.883287025819     2.426688637669     1.007825032230
         H            2.167567712858    -0.887350025819     2.269664637669     1.007825032230
         H            1.585667712858    -0.001158025819     3.683024637669     1.007825032230
         H            2.167567712858     0.885023974181     2.269658637669     1.007825032230

  Basis Set: AUG-CC-PVTZ
    Blend: AUG-CC-PVTZ
  Basis Set: (AUG-CC-PVTZ AUX)
    Blend: AUG-CC-PVTZ-JKFIT + DEF2-UNIVERSAL-JKFIT
	 Reference Energy          =   -1000.5088975202580741 [Eh]
	 Singles Energy            =      -0.0000000000000000 [Eh]
	 Same-Spin Energy          =      -0.3704018066926539 [Eh]
	 Opposite-Spin Energy      =      -0.9892785481110995 [Eh]
	 Correlation Energy        =      -1.3596803548037535 [Eh]
	 Total Energy              =   -1001.8685778750618738 [Eh]

	 ================> DF-SCS-MP2 Energies <==================
	-----------------------------------------------------------
	 SCS Same-Spin Scale       =       0.3333333333333333 [-]
	 SCS Opposite-Spin Scale   =       1.2000000000000000 [-]
	 SCS Same-Spin Energy      =      -0.1234672688975513 [Eh]
	 SCS Opposite-Spin Energy  =      -1.1871342577333193 [Eh]
	 SCS Correlation Energy    =      -1.3106015266308706 [Eh]
	 SCS Total Energy          =   -1001.8194990468889500 [Eh]
	-----------------------------------------------------------

  Dipole Moment: [D]
     X:     0.4479      Y:     0.1568      Z:     1.4470     Total:     1.5228

*** Psi4 exiting successfully. Buy a developer a beer!
