                               Psi4 1.4a3.dev225

  ==> Input File <==

--------------------------------------------------------------------------
#psi4
#
memory 32 gb

molecule  {
0 1
  I       -2.1233850    -0.0000070     0.0029360
  I        0.9137110    -1.7822490    -0.4028610
  I        0.9136990     1.7822560    -0.4028600
  C        0.1632690     0.0000000     1.9871780
  C        0.0090770     0.0000000     0.4634120
  C        1.5921310     0.0000020     2.5199530
  H       -0.3616111     0.8660178     2.3496578
  H       -0.3713680    -0.8821230     2.3563980
  H        2.1414910    -0.8861860     2.1993740
  H        1.5595910     0.0000060     3.6127340
  H        2.1414910     0.8861880     2.1993680
units angstrom
no_reorient  #important for SAPT in psi4, default
symmetry c1  #important for SAPT in psi4, default
}

set PROPERTIES_ORIGIN ["COM"]
properties('MP2/aug-cc-pvtz', properties = ['dipole'])
--------------------------------------------------------------------------

    Molecular point group: c1
  Charge       = 0
  Multiplicity = 1
  Basis Set: AUG-CC-PVTZ
    Blend: AUG-CC-PVTZ
  Basis Set: (AUG-CC-PVTZ AUX)
    Blend: AUG-CC-PVTZ-JKFIT + DEF2-UNIVERSAL-JKFIT

    Orbital Energies [Eh]
    ---------------------

    Doubly Occupied:

       1A    -11.391234     2A    -11.263570     3A    -11.231856
       4A     -7.733863     5A     -7.733765     6A     -7.733757
       7A     -5.566352     8A     -5.566283     9A     -5.566246
      10A     -5.555458    11A     -5.555350    12A     -5.555349
      13A     -5.555294    14A     -5.555257    15A     -5.555244
      16A     -2.295944    17A     -2.295701    18A     -2.295643
      19A     -2.290791    20A     -2.290694    21A     -2.290666
      22A     -2.290655    23A     -2.290600    24A     -2.290527
      25A     -2.278575    26A     -2.278565    27A     -2.278468
      28A     -2.278458    29A     -2.278417    30A     -2.278412
      31A     -1.111755    32A     -0.992752    33A     -0.900469
      34A     -0.897170    35A     -0.875928    36A     -0.736400
      37A     -0.648106    38A     -0.606185    39A     -0.566207
      40A     -0.539391    41A     -0.515232    42A     -0.471777
      43A     -0.466107    44A     -0.395366    45A     -0.394192
      46A     -0.388833    47A     -0.362808    48A     -0.361812
      49A     -0.351178

  @DF-RHF Final Energy: -1000.50993439132890

   => Energetics <=

    Nuclear Repulsion Energy =            645.3939651833110247
    One-Electron Energy =               -2985.8024655831982273
    Two-Electron Energy =                1339.8985660085581912
    Total Energy =                      -1000.5099343913288976
  Basis Set: (AUG-CC-PVTZ AUX)
    Blend: AUG-CC-PVTZ-RI + DEF2-QZVPP-RI
    Molecular point group: c1

    Geometry (in Angstrom), charge = 0, multiplicity = 1:

       Center              X                  Y                   Z               Mass
    ------------   -----------------  -----------------  -----------------  -----------------
         I           -2.096740820428     0.000031409161     0.072676999113   126.904471900000
         I            0.940355179572    -1.782210590839    -0.333120000887   126.904471900000
         I            0.940343179572     1.782294409161    -0.333119000887   126.904471900000
         C            0.189913179572     0.000038409161     2.056918999113    12.000000000000
         C            0.035721179572     0.000038409161     0.533152999113    12.000000000000
         C            1.618775179572     0.000040409161     2.589693999113    12.000000000000
         H           -0.334966920428     0.866056209161     2.419398799113     1.007825032230
         H           -0.344723820428    -0.882084590839     2.426138999113     1.007825032230
         H            2.168135179572    -0.886147590839     2.269114999113     1.007825032230
         H            1.586235179572     0.000044409161     3.682474999113     1.007825032230
         H            2.168135179572     0.886226409161     2.269108999113     1.007825032230

  Basis Set: AUG-CC-PVTZ
    Blend: AUG-CC-PVTZ
  Basis Set: (AUG-CC-PVTZ AUX)
    Blend: AUG-CC-PVTZ-JKFIT + DEF2-UNIVERSAL-JKFIT
	 Reference Energy          =   -1000.5099343913288976 [Eh]
	 Singles Energy            =      -0.0000000000000000 [Eh]
	 Same-Spin Energy          =      -0.3703718143960001 [Eh]
	 Opposite-Spin Energy      =      -0.9891329949378872 [Eh]
	 Correlation Energy        =      -1.3595048093338873 [Eh]
	 Total Energy              =   -1001.8694392006627822 [Eh]

	 ================> DF-SCS-MP2 Energies <==================
	-----------------------------------------------------------
	 SCS Same-Spin Scale       =       0.3333333333333333 [-]
	 SCS Opposite-Spin Scale   =       1.2000000000000000 [-]
	 SCS Same-Spin Energy      =      -0.1234572714653334 [Eh]
	 SCS Opposite-Spin Energy  =      -1.1869595939254647 [Eh]
	 SCS Correlation Energy    =      -1.3104168653907979 [Eh]
	 SCS Total Energy          =   -1001.8203512567197322 [Eh]
	-----------------------------------------------------------

  Dipole Moment: [D]
     X:     0.3619      Y:     0.0037      Z:     1.4684     Total:     1.5123

*** Psi4 exiting successfully. Buy a developer a beer!
