                               Psi4 1.4a3.dev225

  ==> Input File <==

--------------------------------------------------------------------------
#psi4
#
memory 32 gb

molecule  {
0 1
  I       -2.1233850    -0.0000070     0.0029360
  I        0.9137110    -1.7822490    -0.4028610
  I        0.9136990     1.7822560    -0.4028600
  C        0.1632690     0.0000000     1.9871780
  C        0.0921327     0.1636336     0.3838773
  C        1.5921310     0.0000020     2.5199530
  H       -0.3713710     0.8821210     2.3563980
  H       -0.3713680    -0.8821230     2.3563980
  H        2.1414910    -0.8861860     2.1993740
  H        1.5595910     0.0000060     3.6127340
  H        2.1414910     0.8861880     2.1993680
units angstrom
no_reorient  #important for SAPT in psi4, default
symmetry c1  #important for SAPT in psi4, default
}

set PROPERTIES_ORIGIN ["COM"]
properties('MP2/aug-cc-pvtz', properties = ['dipole'])
--------------------------------------------------------------------------

    Molecular point group: c1
  Charge       = 0
  Multiplicity = 1
  Basis Set: AUG-CC-PVTZ
    Blend: AUG-CC-PVTZ
  Basis Set: (AUG-CC-PVTZ AUX)
    Blend: AUG-CC-PVTZ-JKFIT + DEF2-UNIVERSAL-JKFIT

    Orbital Energies [Eh]
    ---------------------

    Doubly Occupied:

       1A    -11.392371     2A    -11.272050     3A    -11.230953
       4A     -7.747732     5A     -7.727398     6A     -7.727186
       7A     -5.580577     8A     -5.569459     9A     -5.569349
      10A     -5.559746    11A     -5.559511    12A     -5.548943
      13A     -5.548917    14A     -5.548800    15A     -5.548684
      16A     -2.311659    17A     -2.305107    18A     -2.304985
      19A     -2.292772    20A     -2.292762    21A     -2.288871
      22A     -2.288599    23A     -2.284130    24A     -2.284114
      25A     -2.283953    26A     -2.283825    27A     -2.272111
      28A     -2.272103    29A     -2.271941    30A     -2.271939
      31A     -1.103804    32A     -1.003558    33A     -0.913040
      34A     -0.887183    35A     -0.864318    36A     -0.735275
      37A     -0.642559    38A     -0.605375    39A     -0.562817
      40A     -0.537261    41A     -0.515051    42A     -0.481843
      43A     -0.473891    44A     -0.402351    45A     -0.383643
      46A     -0.377208    47A     -0.368861    48A     -0.357332
      49A     -0.348400

  @DF-RHF Final Energy: -1000.49026897912108

   => Energetics <=

    Nuclear Repulsion Energy =            645.7676767520986232
    One-Electron Energy =               -2986.5072487200113756
    Two-Electron Energy =                1340.2493029887914417
    Total Energy =                      -1000.4902689791210832
  Basis Set: (AUG-CC-PVTZ AUX)
    Blend: AUG-CC-PVTZ-RI + DEF2-QZVPP-RI
    Molecular point group: c1

    Geometry (in Angstrom), charge = 0, multiplicity = 1:

       Center              X                  Y                   Z               Mass
    ------------   -----------------  -----------------  -----------------  -----------------
         I           -2.099080657259    -0.004662889548     0.074923869886   126.904471900000
         I            0.938015342741    -1.786904889548    -0.330873130114   126.904471900000
         I            0.938003342741     1.777600110452    -0.330872130114   126.904471900000
         C            0.187573342741    -0.004655889548     2.059165869886    12.000000000000
         C            0.116437042741     0.158977710452     0.455865169886    12.000000000000
         C            1.616435342741    -0.004653889548     2.591940869886    12.000000000000
         H           -0.347066657259     0.877465110452     2.428385869886     1.007825032230
         H           -0.347063657259    -0.886778889548     2.428385869886     1.007825032230
         H            2.165795342741    -0.890841889548     2.271361869886     1.007825032230
         H            1.583895342741    -0.004649889548     3.684721869886     1.007825032230
         H            2.165795342741     0.881532110452     2.271355869886     1.007825032230

  Basis Set: AUG-CC-PVTZ
    Blend: AUG-CC-PVTZ
  Basis Set: (AUG-CC-PVTZ AUX)
    Blend: AUG-CC-PVTZ-JKFIT + DEF2-UNIVERSAL-JKFIT
	 Reference Energy          =   -1000.4902689791210832 [Eh]
	 Singles Energy            =      -0.0000000000000000 [Eh]
	 Same-Spin Energy          =      -0.3713818812884561 [Eh]
	 Opposite-Spin Energy      =      -0.9907330056170174 [Eh]
	 Correlation Energy        =      -1.3621148869054736 [Eh]
	 Total Energy              =   -1001.8523838660265710 [Eh]

	 ================> DF-SCS-MP2 Energies <==================
	-----------------------------------------------------------
	 SCS Same-Spin Scale       =       0.3333333333333333 [-]
	 SCS Opposite-Spin Scale   =       1.2000000000000000 [-]
	 SCS Same-Spin Energy      =      -0.1237939604294853 [Eh]
	 SCS Opposite-Spin Energy  =      -1.1888796067404208 [Eh]
	 SCS Correlation Energy    =      -1.3126735671699061 [Eh]
	 SCS Total Energy          =   -1001.8029425462909785 [Eh]
	-----------------------------------------------------------

  Dipole Moment: [D]
     X:     0.7112      Y:     0.6461      Z:     1.4091     Total:     1.7055

*** Psi4 exiting successfully. Buy a developer a beer!
