                               Psi4 1.4a3.dev225

  ==> Input File <==

--------------------------------------------------------------------------
#psi4
#
memory 32 gb

molecule  {
0 1
  I       -2.1233850    -0.0000070     0.0029360
  I        0.9137110    -1.7822490    -0.4028610
  I        0.9136990     1.7822560    -0.4028600
  C        0.1632690     0.0000000     1.9871780
  C       -0.0324514     0.0818165     0.5031794
  C        1.5921310     0.0000020     2.5199530
  H       -0.3713710     0.8821210     2.3563980
  H       -0.3713680    -0.8821230     2.3563980
  H        2.1414910    -0.8861860     2.1993740
  H        1.5595910     0.0000060     3.6127340
  H        2.1414910     0.8861880     2.1993680
units angstrom
no_reorient  #important for SAPT in psi4, default
symmetry c1  #important for SAPT in psi4, default
}

set PROPERTIES_ORIGIN ["COM"]
properties('MP2/aug-cc-pvtz', properties = ['dipole'])
--------------------------------------------------------------------------

    Molecular point group: c1
  Charge       = 0
  Multiplicity = 1
  Basis Set: AUG-CC-PVTZ
    Blend: AUG-CC-PVTZ
  Basis Set: (AUG-CC-PVTZ AUX)
    Blend: AUG-CC-PVTZ-JKFIT + DEF2-UNIVERSAL-JKFIT

    Orbital Energies [Eh]
    ---------------------

    Doubly Occupied:

       1A    -11.393349     2A    -11.264997     3A    -11.233204
       4A     -7.737877     5A     -7.737564     6A     -7.724852
       7A     -5.570494     8A     -5.570214     9A     -5.559439
      10A     -5.559317    11A     -5.559054    12A     -5.559009
      13A     -5.557021    14A     -5.546540    15A     -5.546426
      16A     -2.300192    17A     -2.299829    18A     -2.294898
      19A     -2.294772    20A     -2.294548    21A     -2.294501
      22A     -2.286030    23A     -2.282509    24A     -2.282494
      25A     -2.282128    26A     -2.282120    27A     -2.281526
      28A     -2.281405    29A     -2.269769    30A     -2.269759
      31A     -1.117672    32A     -0.993277    33A     -0.905916
      34A     -0.887083    35A     -0.881577    36A     -0.735342
      37A     -0.648883    38A     -0.608612    39A     -0.569739
      40A     -0.540219    41A     -0.519142    42A     -0.471178
      43A     -0.459221    44A     -0.398824    45A     -0.395104
      46A     -0.385220    47A     -0.365152    48A     -0.356997
      49A     -0.349964

  @DF-RHF Final Energy: -1000.50578787432596

   => Energetics <=

    Nuclear Repulsion Energy =            645.0761183466285047
    One-Electron Energy =               -2985.1538923605153286
    Two-Electron Energy =                1339.5719861395609769
    Total Energy =                      -1000.5057878743259607
  Basis Set: (AUG-CC-PVTZ AUX)
    Blend: AUG-CC-PVTZ-RI + DEF2-QZVPP-RI
    Molecular point group: c1

    Geometry (in Angstrom), charge = 0, multiplicity = 1:

       Center              X                  Y                   Z               Mass
    ------------   -----------------  -----------------  -----------------  -----------------
         I           -2.095535902799    -0.002334971860     0.071529402607   126.904471900000
         I            0.941560097201    -1.784576971860    -0.334267597393   126.904471900000
         I            0.941548097201     1.779928028140    -0.334266597393   126.904471900000
         C            0.191118097201    -0.002327971860     2.055771402607    12.000000000000
         C           -0.004602302799     0.079488528140     0.571772802607    12.000000000000
         C            1.619980097201    -0.002325971860     2.588546402607    12.000000000000
         H           -0.343521902799     0.879793028140     2.424991402607     1.007825032230
         H           -0.343518902799    -0.884450971860     2.424991402607     1.007825032230
         H            2.169340097201    -0.888513971860     2.267967402607     1.007825032230
         H            1.587440097201    -0.002321971860     3.681327402607     1.007825032230
         H            2.169340097201     0.883860028140     2.267961402607     1.007825032230

  Basis Set: AUG-CC-PVTZ
    Blend: AUG-CC-PVTZ
  Basis Set: (AUG-CC-PVTZ AUX)
    Blend: AUG-CC-PVTZ-JKFIT + DEF2-UNIVERSAL-JKFIT
	 Reference Energy          =   -1000.5057878743259607 [Eh]
	 Singles Energy            =      -0.0000000000000000 [Eh]
	 Same-Spin Energy          =      -0.3707966595900570 [Eh]
	 Opposite-Spin Energy      =      -0.9897522467862612 [Eh]
	 Correlation Energy        =      -1.3605489063763181 [Eh]
	 Total Energy              =   -1001.8663367807022269 [Eh]

	 ================> DF-SCS-MP2 Energies <==================
	-----------------------------------------------------------
	 SCS Same-Spin Scale       =       0.3333333333333333 [-]
	 SCS Opposite-Spin Scale   =       1.2000000000000000 [-]
	 SCS Same-Spin Energy      =      -0.1235988865300190 [Eh]
	 SCS Opposite-Spin Energy  =      -1.1877026961435133 [Eh]
	 SCS Correlation Energy    =      -1.3113015826735324 [Eh]
	 SCS Total Energy          =   -1001.8170894569994971 [Eh]
	-----------------------------------------------------------

  Dipole Moment: [D]
     X:     0.2037      Y:     0.3210      Z:     1.5234     Total:     1.5701

*** Psi4 exiting successfully. Buy a developer a beer!
