                               Psi4 1.4a3.dev225

  ==> Input File <==

--------------------------------------------------------------------------
#psi4
#
memory 32 gb

molecule  {
0 1
  I       -2.1233850    -0.0000070     0.0029360
  I        0.9137110    -1.7822490    -0.4028610
  I        0.9136990     1.7822560    -0.4028600
  C        0.1632690     0.0000000     1.9871780
  C        0.0090770     0.0000000     0.4634120
  C        1.5921310     0.0000020     2.5199530
  H       -0.3713710     0.8821210     2.3563980
  H       -0.3713680    -0.8821230     2.3563980
  H        2.1414910    -0.8861860     2.1993740
  H        1.5794445     0.0325949     3.6126588
  H        2.1414910     0.8861880     2.1993680
units angstrom
no_reorient  #important for SAPT in psi4, default
symmetry c1  #important for SAPT in psi4, default
}

set PROPERTIES_ORIGIN ["COM"]
properties('MP2/aug-cc-pvtz', properties = ['dipole'])
--------------------------------------------------------------------------

    Molecular point group: c1
  Charge       = 0
  Multiplicity = 1
  Basis Set: AUG-CC-PVTZ
    Blend: AUG-CC-PVTZ
  Basis Set: (AUG-CC-PVTZ AUX)
    Blend: AUG-CC-PVTZ-JKFIT + DEF2-UNIVERSAL-JKFIT

    Orbital Energies [Eh]
    ---------------------

    Doubly Occupied:

       1A    -11.391406     2A    -11.266035     3A    -11.231884
       4A     -7.733884     5A     -7.733816     6A     -7.733771
       7A     -5.566376     8A     -5.566342     9A     -5.566267
      10A     -5.555475    11A     -5.555371    12A     -5.555363
      13A     -5.555339    14A     -5.555303    15A     -5.555252
      16A     -2.295978    17A     -2.295739    18A     -2.295677
      19A     -2.290810    20A     -2.290733    21A     -2.290707
      22A     -2.290685    23A     -2.290638    24A     -2.290549
      25A     -2.278593    26A     -2.278583    27A     -2.278475
      28A     -2.278466    29A     -2.278456    30A     -2.278451
      31A     -1.110923    32A     -0.992476    33A     -0.900204
      34A     -0.897167    35A     -0.875482    36A     -0.735289
      37A     -0.646334    38A     -0.605919    39A     -0.566158
      40A     -0.539045    41A     -0.514341    42A     -0.471826
      43A     -0.465357    44A     -0.395372    45A     -0.394202
      46A     -0.388911    47A     -0.362812    48A     -0.361813
      49A     -0.351193

  @DF-RHF Final Energy: -1000.50972715243734

   => Energetics <=

    Nuclear Repulsion Energy =            645.2637608292974392
    One-Electron Energy =               -2985.5484822312960205
    Two-Electron Energy =                1339.7749942495611322
    Total Energy =                      -1000.5097271524373355
  Basis Set: (AUG-CC-PVTZ AUX)
    Blend: AUG-CC-PVTZ-RI + DEF2-QZVPP-RI
    Molecular point group: c1

    Geometry (in Angstrom), charge = 0, multiplicity = 1:

       Center              X                  Y                   Z               Mass
    ------------   -----------------  -----------------  -----------------  -----------------
         I           -2.096764940218    -0.000084946077     0.072661072347   126.904471900000
         I            0.940331059782    -1.782326946077    -0.333135927653   126.904471900000
         I            0.940319059782     1.782178053923    -0.333134927653   126.904471900000
         C            0.189889059782    -0.000077946077     2.056903072347    12.000000000000
         C            0.035697059782    -0.000077946077     0.533137072347    12.000000000000
         C            1.618751059782    -0.000075946077     2.589678072347    12.000000000000
         H           -0.344750940218     0.882043053923     2.426123072347     1.007825032230
         H           -0.344747940218    -0.882200946077     2.426123072347     1.007825032230
         H            2.168111059782    -0.886263946077     2.269099072347     1.007825032230
         H            1.606064559782     0.032516953923     3.682383872347     1.007825032230
         H            2.168111059782     0.886110053923     2.269093072347     1.007825032230

  Basis Set: AUG-CC-PVTZ
    Blend: AUG-CC-PVTZ
  Basis Set: (AUG-CC-PVTZ AUX)
    Blend: AUG-CC-PVTZ-JKFIT + DEF2-UNIVERSAL-JKFIT
	 Reference Energy          =   -1000.5097271524373355 [Eh]
	 Singles Energy            =      -0.0000000000000000 [Eh]
	 Same-Spin Energy          =      -0.3704124131336324 [Eh]
	 Opposite-Spin Energy      =      -0.9892748238025282 [Eh]
	 Correlation Energy        =      -1.3596872369361606 [Eh]
	 Total Energy              =   -1001.8694143893734463 [Eh]

	 ================> DF-SCS-MP2 Energies <==================
	-----------------------------------------------------------
	 SCS Same-Spin Scale       =       0.3333333333333333 [-]
	 SCS Opposite-Spin Scale   =       1.2000000000000000 [-]
	 SCS Same-Spin Energy      =      -0.1234708043778775 [Eh]
	 SCS Opposite-Spin Energy  =      -1.1871297885630339 [Eh]
	 SCS Correlation Energy    =      -1.3106005929409112 [Eh]
	 SCS Total Energy          =   -1001.8203277453782221 [Eh]
	-----------------------------------------------------------

  Dipole Moment: [D]
     X:     0.3688      Y:     0.0117      Z:     1.4667     Total:     1.5125

*** Psi4 exiting successfully. Buy a developer a beer!
