                               Psi4 1.4a3.dev225

  ==> Input File <==

--------------------------------------------------------------------------
#psi4
#
memory 32 gb

molecule  {
0 1
  I       -2.1233850    -0.0000070     0.0029360
  I        0.9137110    -1.7822490    -0.4028610
  I        0.8930208     1.7576389    -0.4717636
  C        0.1632690     0.0000000     1.9871780
  C        0.0090770     0.0000000     0.4634120
  C        1.5921310     0.0000020     2.5199530
  H       -0.3713710     0.8821210     2.3563980
  H       -0.3713680    -0.8821230     2.3563980
  H        2.1414910    -0.8861860     2.1993740
  H        1.5595910     0.0000060     3.6127340
  H        2.1414910     0.8861880     2.1993680
units angstrom
no_reorient  #important for SAPT in psi4, default
symmetry c1  #important for SAPT in psi4, default
}

set PROPERTIES_ORIGIN ["COM"]
properties('MP2/aug-cc-pvtz', properties = ['dipole'])
--------------------------------------------------------------------------

    Molecular point group: c1
  Charge       = 0
  Multiplicity = 1
  Basis Set: AUG-CC-PVTZ
    Blend: AUG-CC-PVTZ
  Basis Set: (AUG-CC-PVTZ AUX)
    Blend: AUG-CC-PVTZ-JKFIT + DEF2-UNIVERSAL-JKFIT

    Orbital Energies [Eh]
    ---------------------

    Doubly Occupied:

       1A    -11.391457     2A    -11.266565     3A    -11.232462
       4A     -7.734110     5A     -7.733348     6A     -7.733295
       7A     -5.566627     8A     -5.565830     9A     -5.565807
      10A     -5.555687    11A     -5.555577    12A     -5.554942
      13A     -5.554849    14A     -5.554831    15A     -5.554791
      16A     -2.296127    17A     -2.295358    18A     -2.295199
      19A     -2.291038    20A     -2.290931    21A     -2.290258
      22A     -2.290212    23A     -2.290166    24A     -2.290108
      25A     -2.278784    26A     -2.278773    27A     -2.278078
      28A     -2.278067    29A     -2.277963    30A     -2.277956
      31A     -1.110745    32A     -0.993502    33A     -0.900327
      34A     -0.896409    35A     -0.875353    36A     -0.735578
      37A     -0.646464    38A     -0.606202    39A     -0.566564
      40A     -0.538724    41A     -0.515688    42A     -0.472078
      43A     -0.465428    44A     -0.395628    45A     -0.394965
      46A     -0.389530    47A     -0.361653    48A     -0.360893
      49A     -0.350342

  @DF-RHF Final Energy: -1000.50984782699061

   => Energetics <=

    Nuclear Repulsion Energy =            645.6383333742049899
    One-Electron Energy =               -2986.3058253730437173
    Two-Electron Energy =                1340.1576441718480055
    Total Energy =                      -1000.5098478269906082
  Basis Set: (AUG-CC-PVTZ AUX)
    Blend: AUG-CC-PVTZ-RI + DEF2-QZVPP-RI
    Molecular point group: c1

    Geometry (in Angstrom), charge = 0, multiplicity = 1:

       Center              X                  Y                   Z               Mass
    ------------   -----------------  -----------------  -----------------  -----------------
         I           -2.090495470212     0.007400163504     0.093393844137   126.904471900000
         I            0.946600529788    -1.774841836496    -0.312403155863   126.904471900000
         I            0.925910329788     1.765046063504    -0.381305755863   126.904471900000
         C            0.196158529788     0.007407163504     2.077635844137    12.000000000000
         C            0.041966529788     0.007407163504     0.553869844137    12.000000000000
         C            1.625020529788     0.007409163504     2.610410844137    12.000000000000
         H           -0.338481470212     0.889528163504     2.446855844137     1.007825032230
         H           -0.338478470212    -0.874715836496     2.446855844137     1.007825032230
         H            2.174380529788    -0.878778836496     2.289831844137     1.007825032230
         H            1.592480529788     0.007413163504     3.703191844137     1.007825032230
         H            2.174380529788     0.893595163504     2.289825844137     1.007825032230

  Basis Set: AUG-CC-PVTZ
    Blend: AUG-CC-PVTZ
  Basis Set: (AUG-CC-PVTZ AUX)
    Blend: AUG-CC-PVTZ-JKFIT + DEF2-UNIVERSAL-JKFIT
	 Reference Energy          =   -1000.5098478269906082 [Eh]
	 Singles Energy            =      -0.0000000000000000 [Eh]
	 Same-Spin Energy          =      -0.3703249902849058 [Eh]
	 Opposite-Spin Energy      =      -0.9891082503572083 [Eh]
	 Correlation Energy        =      -1.3594332406421141 [Eh]
	 Total Energy              =   -1001.8692810676327554 [Eh]

	 ================> DF-SCS-MP2 Energies <==================
	-----------------------------------------------------------
	 SCS Same-Spin Scale       =       0.3333333333333333 [-]
	 SCS Opposite-Spin Scale   =       1.2000000000000000 [-]
	 SCS Same-Spin Energy      =      -0.1234416634283019 [Eh]
	 SCS Opposite-Spin Energy  =      -1.1869299004286500 [Eh]
	 SCS Correlation Energy    =      -1.3103715638569520 [Eh]
	 SCS Total Energy          =   -1001.8202193908475692 [Eh]
	-----------------------------------------------------------

  Dipole Moment: [D]
     X:     0.3789      Y:     0.0269      Z:     1.4674     Total:     1.5157

*** Psi4 exiting successfully. Buy a developer a beer!
