                               Psi4 1.4a3.dev225

  ==> Input File <==

--------------------------------------------------------------------------
#psi4
#
memory 32 gb

molecule  {
0 1
  I       -2.1233850    -0.0000070     0.0029360
  I        0.9137110    -1.7822490    -0.4028610
  I        0.9136990     1.7822560    -0.4028600
  C        0.1632690     0.0000000     1.9871780
  C       -0.0764250     0.1345244     0.4804969
  C        1.5921310     0.0000020     2.5199530
  H       -0.3713710     0.8821210     2.3563980
  H       -0.3713680    -0.8821230     2.3563980
  H        2.1414910    -0.8861860     2.1993740
  H        1.5595910     0.0000060     3.6127340
  H        2.1414910     0.8861880     2.1993680
units angstrom
no_reorient  #important for SAPT in psi4, default
symmetry c1  #important for SAPT in psi4, default
}

set PROPERTIES_ORIGIN ["COM"]
properties('MP2/aug-cc-pvtz', properties = ['dipole'])
--------------------------------------------------------------------------

    Molecular point group: c1
  Charge       = 0
  Multiplicity = 1
  Basis Set: AUG-CC-PVTZ
    Blend: AUG-CC-PVTZ
  Basis Set: (AUG-CC-PVTZ AUX)
    Blend: AUG-CC-PVTZ-JKFIT + DEF2-UNIVERSAL-JKFIT

    Orbital Energies [Eh]
    ---------------------

    Doubly Occupied:

       1A    -11.394640     2A    -11.267834     3A    -11.233269
       4A     -7.741206     5A     -7.740608     6A     -7.718807
       7A     -5.573963     8A     -5.573301     9A     -5.562699
      10A     -5.562646    11A     -5.562176    12A     -5.562034
      13A     -5.550742    14A     -5.540592    15A     -5.540487
      16A     -2.303918    17A     -2.303161    18A     -2.298307
      19A     -2.298250    20A     -2.297715    21A     -2.297551
      22A     -2.285773    23A     -2.285763    24A     -2.285235
      25A     -2.285219    26A     -2.279559    27A     -2.275328
      28A     -2.275214    29A     -2.263950    30A     -2.263941
      31A     -1.113214    32A     -0.997957    33A     -0.911299
      34A     -0.882511    35A     -0.879272    36A     -0.733938
      37A     -0.646817    38A     -0.608306    39A     -0.569528
      40A     -0.539402    41A     -0.518461    42A     -0.478208
      43A     -0.459816    44A     -0.400981    45A     -0.396491
      46A     -0.377149    47A     -0.369037    48A     -0.353559
      49A     -0.348624

  @DF-RHF Final Energy: -1000.50087922486512

   => Energetics <=

    Nuclear Repulsion Energy =            645.1498909593543658
    One-Electron Energy =               -2985.2846200014528222
    Two-Electron Energy =                1339.6338498172335676
    Total Energy =                      -1000.5008792248650025
  Basis Set: (AUG-CC-PVTZ AUX)
    Blend: AUG-CC-PVTZ-RI + DEF2-QZVPP-RI
    Molecular point group: c1

    Geometry (in Angstrom), charge = 0, multiplicity = 1:

       Center              X                  Y                   Z               Mass
    ------------   -----------------  -----------------  -----------------  -----------------
         I           -2.094284734996    -0.003834654111     0.072174781054   126.904471900000
         I            0.942811265004    -1.786076654111    -0.333622218946   126.904471900000
         I            0.942799265004     1.778428345889    -0.333621218946   126.904471900000
         C            0.192369265004    -0.003827654111     2.056416781054    12.000000000000
         C           -0.047324734996     0.130696745889     0.549735681054    12.000000000000
         C            1.621231265004    -0.003825654111     2.589191781054    12.000000000000
         H           -0.342270734996     0.878293345889     2.425636781054     1.007825032230
         H           -0.342267734996    -0.885950654111     2.425636781054     1.007825032230
         H            2.170591265004    -0.890013654111     2.268612781054     1.007825032230
         H            1.588691265004    -0.003821654111     3.681972781054     1.007825032230
         H            2.170591265004     0.882360345889     2.268606781054     1.007825032230

  Basis Set: AUG-CC-PVTZ
    Blend: AUG-CC-PVTZ
  Basis Set: (AUG-CC-PVTZ AUX)
    Blend: AUG-CC-PVTZ-JKFIT + DEF2-UNIVERSAL-JKFIT
	 Reference Energy          =   -1000.5008792248651162 [Eh]
	 Singles Energy            =      -0.0000000000000000 [Eh]
	 Same-Spin Energy          =      -0.3709945514164890 [Eh]
	 Opposite-Spin Energy      =      -0.9899071168596807 [Eh]
	 Correlation Energy        =      -1.3609016682761697 [Eh]
	 Total Energy              =   -1001.8617808931412583 [Eh]

	 ================> DF-SCS-MP2 Energies <==================
	-----------------------------------------------------------
	 SCS Same-Spin Scale       =       0.3333333333333333 [-]
	 SCS Opposite-Spin Scale   =       1.2000000000000000 [-]
	 SCS Same-Spin Energy      =      -0.1236648504721630 [Eh]
	 SCS Opposite-Spin Energy  =      -1.1878885402316168 [Eh]
	 SCS Correlation Energy    =      -1.3115533907037797 [Eh]
	 SCS Total Energy          =   -1001.8124326155689232 [Eh]
	-----------------------------------------------------------

  Dipole Moment: [D]
     X:     0.0594      Y:     0.5177      Z:     1.5290     Total:     1.6154

*** Psi4 exiting successfully. Buy a developer a beer!
