                               Psi4 1.4a3.dev225

  ==> Input File <==

--------------------------------------------------------------------------
#psi4
#
memory 32 gb

molecule  {
0 1
  I       -2.1233850    -0.0000070     0.0029360
  I        0.9137110    -1.7822490    -0.4028610
  I        0.9136990     1.7822560    -0.4028600
  C        0.1632690     0.0000000     1.9871780
  C        0.0670756    -0.0897741     0.4612929
  C        1.5921310     0.0000020     2.5199530
  H       -0.3713710     0.8821210     2.3563980
  H       -0.3713680    -0.8821230     2.3563980
  H        2.1414910    -0.8861860     2.1993740
  H        1.5595910     0.0000060     3.6127340
  H        2.1414910     0.8861880     2.1993680
units angstrom
no_reorient  #important for SAPT in psi4, default
symmetry c1  #important for SAPT in psi4, default
}

set PROPERTIES_ORIGIN ["COM"]
properties('MP2/aug-cc-pvtz', properties = ['dipole'])
--------------------------------------------------------------------------

    Molecular point group: c1
  Charge       = 0
  Multiplicity = 1
  Basis Set: AUG-CC-PVTZ
    Blend: AUG-CC-PVTZ
  Basis Set: (AUG-CC-PVTZ AUX)
    Blend: AUG-CC-PVTZ-JKFIT + DEF2-UNIVERSAL-JKFIT

    Orbital Energies [Eh]
    ---------------------

    Doubly Occupied:

       1A    -11.392568     2A    -11.266545     3A    -11.231885
       4A     -7.742183     5A     -7.729899     6A     -7.729131
       7A     -5.574918     8A     -5.563766     9A     -5.563664
      10A     -5.562279    11A     -5.561504    12A     -5.551505
      13A     -5.551388    14A     -5.550683    15A     -5.550641
      16A     -2.305046    17A     -2.299334    18A     -2.299224
      19A     -2.291508    20A     -2.290669    21A     -2.286885
      22A     -2.286873    23A     -2.286715    24A     -2.286597
      25A     -2.285893    26A     -2.285852    27A     -2.274632
      28A     -2.274625    29A     -2.273837    30A     -2.273831
      31A     -1.112650    32A     -0.993892    33A     -0.907748
      34A     -0.891981    35A     -0.871612    36A     -0.737340
      37A     -0.646775    38A     -0.606753    39A     -0.566409
      40A     -0.539092    41A     -0.517216    42A     -0.472511
      43A     -0.466304    44A     -0.401137    45A     -0.389443
      46A     -0.384789    47A     -0.365773    48A     -0.358161
      49A     -0.349794

  @DF-RHF Final Energy: -1000.50499602686307

   => Energetics <=

    Nuclear Repulsion Energy =            645.3401604732968053
    One-Electron Energy =               -2985.6833908146259091
    Two-Electron Energy =                1339.8382343144660354
    Total Energy =                      -1000.5049960268631821
  Basis Set: (AUG-CC-PVTZ AUX)
    Blend: AUG-CC-PVTZ-RI + DEF2-QZVPP-RI
    Molecular point group: c1

    Geometry (in Angstrom), charge = 0, multiplicity = 1:

       Center              X                  Y                   Z               Mass
    ------------   -----------------  -----------------  -----------------  -----------------
         I           -2.098367715021     0.002547244607     0.072721186772   126.904471900000
         I            0.938728284979    -1.779694755393    -0.333075813228   126.904471900000
         I            0.938716284979     1.784810244607    -0.333074813228   126.904471900000
         C            0.188286284979     0.002554244607     2.056963186772    12.000000000000
         C            0.092092884979    -0.087219855393     0.531078086772    12.000000000000
         C            1.617148284979     0.002556244607     2.589738186772    12.000000000000
         H           -0.346353715021     0.884675244607     2.426183186772     1.007825032230
         H           -0.346350715021    -0.879568755393     2.426183186772     1.007825032230
         H            2.166508284979    -0.883631755393     2.269159186772     1.007825032230
         H            1.584608284979     0.002560244607     3.682519186772     1.007825032230
         H            2.166508284979     0.888742244607     2.269153186772     1.007825032230

  Basis Set: AUG-CC-PVTZ
    Blend: AUG-CC-PVTZ
  Basis Set: (AUG-CC-PVTZ AUX)
    Blend: AUG-CC-PVTZ-JKFIT + DEF2-UNIVERSAL-JKFIT
	 Reference Energy          =   -1000.5049960268630684 [Eh]
	 Singles Energy            =      -0.0000000000000000 [Eh]
	 Same-Spin Energy          =      -0.3707443103869128 [Eh]
	 Opposite-Spin Energy      =      -0.9898008190261205 [Eh]
	 Correlation Energy        =      -1.3605451294130333 [Eh]
	 Total Energy              =   -1001.8655411562760946 [Eh]

	 ================> DF-SCS-MP2 Energies <==================
	-----------------------------------------------------------
	 SCS Same-Spin Scale       =       0.3333333333333333 [-]
	 SCS Opposite-Spin Scale   =       1.2000000000000000 [-]
	 SCS Same-Spin Energy      =      -0.1235814367956376 [Eh]
	 SCS Opposite-Spin Energy  =      -1.1877609828313445 [Eh]
	 SCS Correlation Energy    =      -1.3113424196269821 [Eh]
	 SCS Total Energy          =   -1001.8163384464900219 [Eh]
	-----------------------------------------------------------

  Dipole Moment: [D]
     X:     0.5789      Y:    -0.3550      Z:     1.4431     Total:     1.5949

*** Psi4 exiting successfully. Buy a developer a beer!
