                               Psi4 1.4a3.dev225

  ==> Input File <==

--------------------------------------------------------------------------
#psi4
#
memory 32 gb

molecule  {
0 1
  I       -2.1233850    -0.0000070     0.0029360
  I        0.9137110    -1.7822490    -0.4028610
  I        0.9136990     1.7822560    -0.4028600
  C        0.1632690     0.0000000     1.9871780
  C        0.0090770     0.0000000     0.4634120
  C        1.5921310     0.0000020     2.5199530
  H       -0.3225714     0.8016048     2.3226972
  H       -0.3713680    -0.8821230     2.3563980
  H        2.1414910    -0.8861860     2.1993740
  H        1.5595910     0.0000060     3.6127340
  H        2.1414910     0.8861880     2.1993680
units angstrom
no_reorient  #important for SAPT in psi4, default
symmetry c1  #important for SAPT in psi4, default
}

set PROPERTIES_ORIGIN ["COM"]
properties('MP2/aug-cc-pvtz', properties = ['dipole'])
--------------------------------------------------------------------------

    Molecular point group: c1
  Charge       = 0
  Multiplicity = 1
  Basis Set: AUG-CC-PVTZ
    Blend: AUG-CC-PVTZ
  Basis Set: (AUG-CC-PVTZ AUX)
    Blend: AUG-CC-PVTZ-JKFIT + DEF2-UNIVERSAL-JKFIT

    Orbital Energies [Eh]
    ---------------------

    Doubly Occupied:

       1A    -11.390975     2A    -11.254044     3A    -11.231356
       4A     -7.733958     5A     -7.733891     6A     -7.733487
       7A     -5.566436     8A     -5.566395     9A     -5.565972
      10A     -5.555565    11A     -5.555445    12A     -5.555434
      13A     -5.555386    14A     -5.555081    15A     -5.554981
      16A     -2.295998    17A     -2.295788    18A     -2.295419
      19A     -2.290878    20A     -2.290791    21A     -2.290770
      22A     -2.290693    23A     -2.290392    24A     -2.290283
      25A     -2.278683    26A     -2.278673    27A     -2.278560
      28A     -2.278556    29A     -2.278205    30A     -2.278195
      31A     -1.115549    32A     -0.993476    33A     -0.902281
      34A     -0.897171    35A     -0.879161    36A     -0.741645
      37A     -0.655347    38A     -0.606437    39A     -0.566282
      40A     -0.541043    41A     -0.516368    42A     -0.473038
      43A     -0.468059    44A     -0.395389    45A     -0.394183
      46A     -0.388767    47A     -0.362798    48A     -0.361833
      49A     -0.351170

  @DF-RHF Final Energy: -1000.50410873318981

   => Energetics <=

    Nuclear Repulsion Energy =            645.8452181656092534
    One-Electron Energy =               -2986.6580739975902361
    Two-Electron Energy =                1340.3087470987909455
    Total Energy =                      -1000.5041087331899234
  Basis Set: (AUG-CC-PVTZ AUX)
    Blend: AUG-CC-PVTZ-RI + DEF2-QZVPP-RI
    Molecular point group: c1

    Geometry (in Angstrom), charge = 0, multiplicity = 1:

       Center              X                  Y                   Z               Mass
    ------------   -----------------  -----------------  -----------------  -----------------
         I           -2.096834110173     0.000185331254     0.072741424492   126.904471900000
         I            0.940261889827    -1.782056668746    -0.333055575508   126.904471900000
         I            0.940249889827     1.782448331254    -0.333054575508   126.904471900000
         C            0.189819889827     0.000192331254     2.056983424492    12.000000000000
         C            0.035627889827     0.000192331254     0.533217424492    12.000000000000
         C            1.618681889827     0.000194331254     2.589758424492    12.000000000000
         H           -0.296020510173     0.801797131254     2.392502624492     1.007825032230
         H           -0.344817110173    -0.881930668746     2.426203424492     1.007825032230
         H            2.168041889827    -0.885993668746     2.269179424492     1.007825032230
         H            1.586141889827     0.000198331254     3.682539424492     1.007825032230
         H            2.168041889827     0.886380331254     2.269173424492     1.007825032230

  Basis Set: AUG-CC-PVTZ
    Blend: AUG-CC-PVTZ
  Basis Set: (AUG-CC-PVTZ AUX)
    Blend: AUG-CC-PVTZ-JKFIT + DEF2-UNIVERSAL-JKFIT
	 Reference Energy          =   -1000.5041087331898098 [Eh]
	 Singles Energy            =      -0.0000000000000000 [Eh]
	 Same-Spin Energy          =      -0.3702367479942959 [Eh]
	 Opposite-Spin Energy      =      -0.9886990466811363 [Eh]
	 Correlation Energy        =      -1.3589357946754321 [Eh]
	 Total Energy              =   -1001.8630445278652132 [Eh]

	 ================> DF-SCS-MP2 Energies <==================
	-----------------------------------------------------------
	 SCS Same-Spin Scale       =       0.3333333333333333 [-]
	 SCS Opposite-Spin Scale   =       1.2000000000000000 [-]
	 SCS Same-Spin Energy      =      -0.1234122493314320 [Eh]
	 SCS Opposite-Spin Energy  =      -1.1864388560173635 [Eh]
	 SCS Correlation Energy    =      -1.3098511053487956 [Eh]
	 SCS Total Energy          =   -1001.8139598385386080 [Eh]
	-----------------------------------------------------------

  Dipole Moment: [D]
     X:     0.3467      Y:     0.0147      Z:     1.4685     Total:     1.5090

*** Psi4 exiting successfully. Buy a developer a beer!
