                               Psi4 1.4a3.dev225

  ==> Input File <==

--------------------------------------------------------------------------
#psi4
#
memory 32 gb

molecule  {
0 1
  I       -2.1233850    -0.0000070     0.0029360
  I        0.9137110    -1.7822490    -0.4028610
  I        0.9136990     1.7822560    -0.4028600
  C        0.1632690     0.0000000     1.9871780
  C        0.0090770     0.0000000     0.4634120
  C        1.5921310     0.0000020     2.5199530
  H       -0.2737718     0.7210887     2.2889964
  H       -0.3713680    -0.8821230     2.3563980
  H        2.1414910    -0.8861860     2.1993740
  H        1.5595910     0.0000060     3.6127340
  H        2.1414910     0.8861880     2.1993680
units angstrom
no_reorient  #important for SAPT in psi4, default
symmetry c1  #important for SAPT in psi4, default
}

set PROPERTIES_ORIGIN ["COM"]
properties('MP2/aug-cc-pvtz', properties = ['dipole'])
--------------------------------------------------------------------------

    Molecular point group: c1
  Charge       = 0
  Multiplicity = 1
  Basis Set: AUG-CC-PVTZ
    Blend: AUG-CC-PVTZ
  Basis Set: (AUG-CC-PVTZ AUX)
    Blend: AUG-CC-PVTZ-JKFIT + DEF2-UNIVERSAL-JKFIT

    Orbital Energies [Eh]
    ---------------------

    Doubly Occupied:

       1A    -11.390736     2A    -11.242104     3A    -11.230903
       4A     -7.734084     5A     -7.734048     6A     -7.733294
       7A     -5.566552     8A     -5.566538     9A     -5.565777
      10A     -5.555701    11A     -5.555605    12A     -5.555570
      13A     -5.555544    14A     -5.554887    15A     -5.554792
      16A     -2.296113    17A     -2.295918    18A     -2.295235
      19A     -2.291004    20A     -2.290937    21A     -2.290908
      22A     -2.290819    23A     -2.290198    24A     -2.290095
      25A     -2.278819    26A     -2.278809    27A     -2.278732
      28A     -2.278728    29A     -2.278014    30A     -2.278004
      31A     -1.122282    32A     -0.994931    33A     -0.906331
      34A     -0.897223    35A     -0.883414    36A     -0.749963
      37A     -0.663690    38A     -0.606658    39A     -0.566584
      40A     -0.543018    41A     -0.517625    42A     -0.475382
      43A     -0.468930    44A     -0.395453    45A     -0.394212
      46A     -0.388683    47A     -0.362820    48A     -0.361879
      49A     -0.351191

  @DF-RHF Final Energy: -1000.47669476436658

   => Energetics <=

    Nuclear Repulsion Energy =            646.4689102197190778
    One-Electron Energy =               -2987.7937414091888968
    Two-Electron Energy =                1340.8481364251033483
    Total Energy =                      -1000.4766947643665844
  Basis Set: (AUG-CC-PVTZ AUX)
    Blend: AUG-CC-PVTZ-RI + DEF2-QZVPP-RI
    Molecular point group: c1

    Geometry (in Angstrom), charge = 0, multiplicity = 1:

       Center              X                  Y                   Z               Mass
    ------------   -----------------  -----------------  -----------------  -----------------
         I           -2.096950722294     0.000377733511     0.072821956337   126.904471900000
         I            0.940145277706    -1.781864266489    -0.332975043663   126.904471900000
         I            0.940133277706     1.782640733511    -0.332974043663   126.904471900000
         C            0.189703277706     0.000384733511     2.057063956337    12.000000000000
         C            0.035511277706     0.000384733511     0.533297956337    12.000000000000
         C            1.618565277706     0.000386733511     2.589838956337    12.000000000000
         H           -0.247337522294     0.721473433511     2.358882356337     1.007825032230
         H           -0.344933722294    -0.881738266489     2.426283956337     1.007825032230
         H            2.167925277706    -0.885801266489     2.269259956337     1.007825032230
         H            1.586025277706     0.000390733511     3.682619956337     1.007825032230
         H            2.167925277706     0.886572733511     2.269253956337     1.007825032230

  Basis Set: AUG-CC-PVTZ
    Blend: AUG-CC-PVTZ
  Basis Set: (AUG-CC-PVTZ AUX)
    Blend: AUG-CC-PVTZ-JKFIT + DEF2-UNIVERSAL-JKFIT
	 Reference Energy          =   -1000.4766947643665844 [Eh]
	 Singles Energy            =      -0.0000000000000000 [Eh]
	 Same-Spin Energy          =      -0.3701341505502334 [Eh]
	 Opposite-Spin Energy      =      -0.9885174400615580 [Eh]
	 Correlation Energy        =      -1.3586515906117913 [Eh]
	 Total Energy              =   -1001.8353463549783555 [Eh]

	 ================> DF-SCS-MP2 Energies <==================
	-----------------------------------------------------------
	 SCS Same-Spin Scale       =       0.3333333333333333 [-]
	 SCS Opposite-Spin Scale   =       1.2000000000000000 [-]
	 SCS Same-Spin Energy      =      -0.1233780501834111 [Eh]
	 SCS Opposite-Spin Energy  =      -1.1862209280738696 [Eh]
	 SCS Correlation Energy    =      -1.3095989782572808 [Eh]
	 SCS Total Energy          =   -1001.7862937426239114 [Eh]
	-----------------------------------------------------------

  Dipole Moment: [D]
     X:     0.3341      Y:     0.0197      Z:     1.4618     Total:     1.4997

*** Psi4 exiting successfully. Buy a developer a beer!
