                               Psi4 1.4a3.dev225

  ==> Input File <==

--------------------------------------------------------------------------
#psi4
#
memory 32 gb

molecule  {
0 1
  I       -2.1233850    -0.0000070     0.0029360
  I        0.9137110    -1.7822490    -0.4028610
  I        0.9136990     1.7822560    -0.4028600
  C        0.1632690     0.0000000     1.9871780
  C       -0.0196581     0.0449144     0.4672575
  C        1.5921310     0.0000020     2.5199530
  H       -0.3713710     0.8821210     2.3563980
  H       -0.3713680    -0.8821230     2.3563980
  H        2.1414910    -0.8861860     2.1993740
  H        1.5595910     0.0000060     3.6127340
  H        2.1414910     0.8861880     2.1993680
units angstrom
no_reorient  #important for SAPT in psi4, default
symmetry c1  #important for SAPT in psi4, default
}

set PROPERTIES_ORIGIN ["COM"]
properties('MP2/aug-cc-pvtz', properties = ['dipole'])
--------------------------------------------------------------------------

    Molecular point group: c1
  Charge       = 0
  Multiplicity = 1
  Basis Set: AUG-CC-PVTZ
    Blend: AUG-CC-PVTZ
  Basis Set: (AUG-CC-PVTZ AUX)
    Blend: AUG-CC-PVTZ-JKFIT + DEF2-UNIVERSAL-JKFIT

    Orbital Energies [Eh]
    ---------------------

    Doubly Occupied:

       1A    -11.391687     2A    -11.266141     3A    -11.232277
       4A     -7.736096     5A     -7.735939     6A     -7.729277
       7A     -5.568694     8A     -5.568492     9A     -5.561613
      10A     -5.557609    11A     -5.557576    12A     -5.557523
      13A     -5.557413    14A     -5.550907    15A     -5.550800
      16A     -2.298343    17A     -2.298063    18A     -2.293048
      19A     -2.293029    20A     -2.292911    21A     -2.292781
      22A     -2.290827    23A     -2.286069    24A     -2.285955
      25A     -2.280718    26A     -2.280712    27A     -2.280628
      28A     -2.280616    29A     -2.274070    30A     -2.274060
      31A     -1.111121    32A     -0.993666    33A     -0.903131
      34A     -0.892494    35A     -0.877075    36A     -0.734576
      37A     -0.646296    38A     -0.606469    39A     -0.566814
      40A     -0.539023    41A     -0.515355    42A     -0.472912
      43A     -0.463762    44A     -0.396974    45A     -0.393191
      46A     -0.387924    47A     -0.364244    48A     -0.360175
      49A     -0.350952

  @DF-RHF Final Energy: -1000.50879669191079

   => Energetics <=

    Nuclear Repulsion Energy =            645.2536395052990201
    One-Electron Energy =               -2985.5248250222266506
    Two-Electron Energy =                1339.7623888250170694
    Total Energy =                      -1000.5087966919106748
  Basis Set: (AUG-CC-PVTZ AUX)
    Blend: AUG-CC-PVTZ-RI + DEF2-QZVPP-RI
    Molecular point group: c1

    Geometry (in Angstrom), charge = 0, multiplicity = 1:

       Center              X                  Y                   Z               Mass
    ------------   -----------------  -----------------  -----------------  -----------------
         I           -2.095899906771    -0.001285007350     0.072551477777   126.904471900000
         I            0.941196093229    -1.783527007350    -0.333245522223   126.904471900000
         I            0.941184093229     1.780977992650    -0.333244522223   126.904471900000
         C            0.190754093229    -0.001278007350     2.056793477777    12.000000000000
         C            0.007826993229     0.043636392650     0.536872977777    12.000000000000
         C            1.619616093229    -0.001276007350     2.589568477777    12.000000000000
         H           -0.343885906771     0.880842992650     2.426013477777     1.007825032230
         H           -0.343882906771    -0.883401007350     2.426013477777     1.007825032230
         H            2.168976093229    -0.887464007350     2.268989477777     1.007825032230
         H            1.587076093229    -0.001272007350     3.682349477777     1.007825032230
         H            2.168976093229     0.884909992650     2.268983477777     1.007825032230

  Basis Set: AUG-CC-PVTZ
    Blend: AUG-CC-PVTZ
  Basis Set: (AUG-CC-PVTZ AUX)
    Blend: AUG-CC-PVTZ-JKFIT + DEF2-UNIVERSAL-JKFIT
	 Reference Energy          =   -1000.5087966919107885 [Eh]
	 Singles Energy            =      -0.0000000000000000 [Eh]
	 Same-Spin Energy          =      -0.3704838564606646 [Eh]
	 Opposite-Spin Energy      =      -0.9893401633900909 [Eh]
	 Correlation Energy        =      -1.3598240198507554 [Eh]
	 Total Energy              =   -1001.8686207117615368 [Eh]

	 ================> DF-SCS-MP2 Energies <==================
	-----------------------------------------------------------
	 SCS Same-Spin Scale       =       0.3333333333333333 [-]
	 SCS Opposite-Spin Scale   =       1.2000000000000000 [-]
	 SCS Same-Spin Energy      =      -0.1234946188202215 [Eh]
	 SCS Opposite-Spin Energy  =      -1.1872081960681091 [Eh]
	 SCS Correlation Energy    =      -1.3107028148883306 [Eh]
	 SCS Total Energy          =   -1001.8194995067991613 [Eh]
	-----------------------------------------------------------

  Dipole Moment: [D]
     X:     0.2642      Y:     0.1722      Z:     1.4847     Total:     1.5179

*** Psi4 exiting successfully. Buy a developer a beer!
