                               Psi4 1.4a3.dev225

  ==> Input File <==

--------------------------------------------------------------------------
#psi4
#
memory 32 gb

molecule  {
0 1
  I       -2.1233850    -0.0000070     0.0029360
  I        0.9137110    -1.7822490    -0.4028610
  I        0.9136990     1.7822560    -0.4028600
  C        0.1632690     0.0000000     1.9871780
  C        0.0090770     0.0000000     0.4634120
  C        1.5921310     0.0000020     2.5199530
  H       -0.3713710     0.8821210     2.3563980
  H       -0.3713680    -0.8821230     2.3563980
  H        2.1414910    -0.8861860     2.1993740
  H        1.5397771    -0.0325829     3.6114778
  H        2.1414910     0.8861880     2.1993680
units angstrom
no_reorient  #important for SAPT in psi4, default
symmetry c1  #important for SAPT in psi4, default
}

set PROPERTIES_ORIGIN ["COM"]
properties('MP2/aug-cc-pvtz', properties = ['dipole'])
--------------------------------------------------------------------------

    Molecular point group: c1
  Charge       = 0
  Multiplicity = 1
  Basis Set: AUG-CC-PVTZ
    Blend: AUG-CC-PVTZ
  Basis Set: (AUG-CC-PVTZ AUX)
    Blend: AUG-CC-PVTZ-JKFIT + DEF2-UNIVERSAL-JKFIT

    Orbital Energies [Eh]
    ---------------------

    Doubly Occupied:

       1A    -11.391203     2A    -11.265765     3A    -11.232125
       4A     -7.733911     5A     -7.733797     6A     -7.733650
       7A     -5.566399     8A     -5.566288     9A     -5.566166
      10A     -5.555503    11A     -5.555402    12A     -5.555390
      13A     -5.555281    14A     -5.555178    15A     -5.555143
      16A     -2.295962    17A     -2.295725    18A     -2.295574
      19A     -2.290833    20A     -2.290726    21A     -2.290700
      22A     -2.290617    23A     -2.290524    24A     -2.290477
      25A     -2.278625    26A     -2.278615    27A     -2.278505
      28A     -2.278495    29A     -2.278303    30A     -2.278299
      31A     -1.111069    32A     -0.992800    33A     -0.900089
      34A     -0.897188    35A     -0.874938    36A     -0.735329
      37A     -0.646432    38A     -0.606247    39A     -0.566273
      40A     -0.539159    41A     -0.515042    42A     -0.471368
      43A     -0.465364    44A     -0.395357    45A     -0.394196
      46A     -0.388782    47A     -0.362818    48A     -0.361802
      49A     -0.351173

  @DF-RHF Final Energy: -1000.50972950836194

   => Energetics <=

    Nuclear Repulsion Energy =            645.3121250631475050
    One-Electron Energy =               -2985.6464950859549390
    Two-Electron Energy =                1339.8246405144454911
    Total Energy =                      -1000.5097295083619429
  Basis Set: (AUG-CC-PVTZ AUX)
    Blend: AUG-CC-PVTZ-RI + DEF2-QZVPP-RI
    Molecular point group: c1

    Geometry (in Angstrom), charge = 0, multiplicity = 1:

       Center              X                  Y                   Z               Mass
    ------------   -----------------  -----------------  -----------------  -----------------
         I           -2.096670150514     0.000070803591     0.072663894479   126.904471900000
         I            0.940425849486    -1.782171196409    -0.333133105521   126.904471900000
         I            0.940413849486     1.782333803591    -0.333132105521   126.904471900000
         C            0.189983849486     0.000077803591     2.056905894479    12.000000000000
         C            0.035791849486     0.000077803591     0.533139894479    12.000000000000
         C            1.618845849486     0.000079803591     2.589680894479    12.000000000000
         H           -0.344656150514     0.882198803591     2.426125894479     1.007825032230
         H           -0.344653150514    -0.882045196409     2.426125894479     1.007825032230
         H            2.168205849486    -0.886108196409     2.269101894479     1.007825032230
         H            1.566491949486    -0.032505096409     3.681205694479     1.007825032230
         H            2.168205849486     0.886265803591     2.269095894479     1.007825032230

  Basis Set: AUG-CC-PVTZ
    Blend: AUG-CC-PVTZ
  Basis Set: (AUG-CC-PVTZ AUX)
    Blend: AUG-CC-PVTZ-JKFIT + DEF2-UNIVERSAL-JKFIT
	 Reference Energy          =   -1000.5097295083619429 [Eh]
	 Singles Energy            =      -0.0000000000000000 [Eh]
	 Same-Spin Energy          =      -0.3704241411740937 [Eh]
	 Opposite-Spin Energy      =      -0.9892944607275163 [Eh]
	 Correlation Energy        =      -1.3597186019016099 [Eh]
	 Total Energy              =   -1001.8694481102635336 [Eh]

	 ================> DF-SCS-MP2 Energies <==================
	-----------------------------------------------------------
	 SCS Same-Spin Scale       =       0.3333333333333333 [-]
	 SCS Opposite-Spin Scale   =       1.2000000000000000 [-]
	 SCS Same-Spin Energy      =      -0.1234747137246979 [Eh]
	 SCS Opposite-Spin Energy  =      -1.1871533528730194 [Eh]
	 SCS Correlation Energy    =      -1.3106280665977172 [Eh]
	 SCS Total Energy          =   -1001.8203575749596439 [Eh]
	-----------------------------------------------------------

  Dipole Moment: [D]
     X:     0.3646      Y:    -0.0113      Z:     1.4677     Total:     1.5123

*** Psi4 exiting successfully. Buy a developer a beer!
