                               Psi4 1.4a3.dev225

  ==> Input File <==

--------------------------------------------------------------------------
#psi4
#
memory 32 gb

molecule  {
0 1
  I       -2.1233850    -0.0000070     0.0029360
  I        0.9137110    -1.7822490    -0.4028610
  I        0.9136990     1.7822560    -0.4028600
  C        0.1632690     0.0000000     1.9871780
  C        0.0090770     0.0000000     0.4634120
  C        1.5921310     0.0000020     2.5199530
  H       -0.3713710     0.8821210     2.3563980
  H       -0.3713680    -0.8821230     2.3563980
  H        2.1414910    -0.8861860     2.1993740
  H        1.5496776    -0.0162909     3.6122723
  H        2.1414910     0.8861880     2.1993680
units angstrom
no_reorient  #important for SAPT in psi4, default
symmetry c1  #important for SAPT in psi4, default
}

set PROPERTIES_ORIGIN ["COM"]
properties('MP2/aug-cc-pvtz', properties = ['dipole'])
--------------------------------------------------------------------------

    Molecular point group: c1
  Charge       = 0
  Multiplicity = 1
  Basis Set: AUG-CC-PVTZ
    Blend: AUG-CC-PVTZ
  Basis Set: (AUG-CC-PVTZ AUX)
    Blend: AUG-CC-PVTZ-JKFIT + DEF2-UNIVERSAL-JKFIT

    Orbital Energies [Eh]
    ---------------------

    Doubly Occupied:

       1A    -11.391256     2A    -11.265827     3A    -11.232062
       4A     -7.733876     5A     -7.733819     6A     -7.733693
       7A     -5.566366     8A     -5.566310     9A     -5.566212
      10A     -5.555468    11A     -5.555411    12A     -5.555364
      13A     -5.555304    14A     -5.555219    15A     -5.555185
      16A     -2.295955    17A     -2.295727    18A     -2.295614
      19A     -2.290808    20A     -2.290718    21A     -2.290693
      22A     -2.290644    23A     -2.290564    24A     -2.290514
      25A     -2.278587    26A     -2.278577    27A     -2.278527
      28A     -2.278517    29A     -2.278343    30A     -2.278338
      31A     -1.111028    32A     -0.992708    33A     -0.900116
      34A     -0.897183    35A     -0.875065    36A     -0.735313
      37A     -0.646344    38A     -0.606181    39A     -0.566241
      40A     -0.539038    41A     -0.515044    42A     -0.471489
      43A     -0.465366    44A     -0.395361    45A     -0.394198
      46A     -0.388815    47A     -0.362816    48A     -0.361806
      49A     -0.351179

  @DF-RHF Final Energy: -1000.50983299672203

   => Energetics <=

    Nuclear Repulsion Energy =            645.2990373267421091
    One-Electron Energy =               -2985.6201606906038251
    Two-Electron Energy =                1339.8112903671396907
    Total Energy =                      -1000.5098329967220252
  Basis Set: (AUG-CC-PVTZ AUX)
    Blend: AUG-CC-PVTZ-RI + DEF2-QZVPP-RI
    Molecular point group: c1

    Geometry (in Angstrom), charge = 0, multiplicity = 1:

       Center              X                  Y                   Z               Mass
    ------------   -----------------  -----------------  -----------------  -----------------
         I           -2.096693808870     0.000031872029     0.072661995932   126.904471900000
         I            0.940402191130    -1.782210127971    -0.333135004068   126.904471900000
         I            0.940390191130     1.782294872029    -0.333134004068   126.904471900000
         C            0.189960191130     0.000038872029     2.056903995932    12.000000000000
         C            0.035768191130     0.000038872029     0.533137995932    12.000000000000
         C            1.618822191130     0.000040872029     2.589678995932    12.000000000000
         H           -0.344679808870     0.882159872029     2.426123995932     1.007825032230
         H           -0.344676808870    -0.882084127971     2.426123995932     1.007825032230
         H            2.168182191130    -0.886147127971     2.269099995932     1.007825032230
         H            1.576368791130    -0.016252027971     3.681998295932     1.007825032230
         H            2.168182191130     0.886226872029     2.269093995932     1.007825032230

  Basis Set: AUG-CC-PVTZ
    Blend: AUG-CC-PVTZ
  Basis Set: (AUG-CC-PVTZ AUX)
    Blend: AUG-CC-PVTZ-JKFIT + DEF2-UNIVERSAL-JKFIT
	 Reference Energy          =   -1000.5098329967220252 [Eh]
	 Singles Energy            =      -0.0000000000000000 [Eh]
	 Same-Spin Energy          =      -0.3704156687704618 [Eh]
	 Opposite-Spin Energy      =      -0.9892820971428484 [Eh]
	 Correlation Energy        =      -1.3596977659133103 [Eh]
	 Total Energy              =   -1001.8695307626353497 [Eh]

	 ================> DF-SCS-MP2 Energies <==================
	-----------------------------------------------------------
	 SCS Same-Spin Scale       =       0.3333333333333333 [-]
	 SCS Opposite-Spin Scale   =       1.2000000000000000 [-]
	 SCS Same-Spin Energy      =      -0.1234718895901539 [Eh]
	 SCS Opposite-Spin Energy  =      -1.1871385165714181 [Eh]
	 SCS Correlation Energy    =      -1.3106104061615720 [Eh]
	 SCS Total Energy          =   -1001.8204434028835976 [Eh]
	-----------------------------------------------------------

  Dipole Moment: [D]
     X:     0.3654      Y:    -0.0057      Z:     1.4677     Total:     1.5125

*** Psi4 exiting successfully. Buy a developer a beer!
