                               Psi4 1.4a3.dev225

  ==> Input File <==

--------------------------------------------------------------------------
#psi4
#
memory 32 gb

molecule  {
0 1
  I       -2.1233850    -0.0000070     0.0029360
  I        0.9137110    -1.7822490    -0.4028610
  I        0.9136990     1.7822560    -0.4028600
  C        0.1632690     0.0000000     1.9871780
  C        0.0090770     0.0000000     0.4634120
  C        1.5921310     0.0000020     2.5199530
  H       -0.3713710     0.8821210     2.3563980
  H       -0.3713680    -0.8821230     2.3563980
  H        2.1414910    -0.8861860     2.1993740
  H        1.6191737     0.0976139     3.6085162
  H        2.1414910     0.8861880     2.1993680
units angstrom
no_reorient  #important for SAPT in psi4, default
symmetry c1  #important for SAPT in psi4, default
}

set PROPERTIES_ORIGIN ["COM"]
properties('MP2/aug-cc-pvtz', properties = ['dipole'])
--------------------------------------------------------------------------

    Molecular point group: c1
  Charge       = 0
  Multiplicity = 1
  Basis Set: AUG-CC-PVTZ
    Blend: AUG-CC-PVTZ
  Basis Set: (AUG-CC-PVTZ AUX)
    Blend: AUG-CC-PVTZ-JKFIT + DEF2-UNIVERSAL-JKFIT

    Orbital Energies [Eh]
    ---------------------

    Doubly Occupied:

       1A    -11.391583     2A    -11.266359     3A    -11.231678
       4A     -7.733969     5A     -7.733966     6A     -7.733633
       7A     -5.566503     8A     -5.566458     9A     -5.566136
      10A     -5.555556    11A     -5.555485    12A     -5.555455
      13A     -5.555449    14A     -5.555225    15A     -5.555104
      16A     -2.296068    17A     -2.295859    18A     -2.295582
      19A     -2.290885    20A     -2.290870    21A     -2.290846
      22A     -2.290749    23A     -2.290556    24A     -2.290425
      25A     -2.278676    26A     -2.278666    27A     -2.278598
      28A     -2.278593    29A     -2.278327    30A     -2.278317
      31A     -1.110827    32A     -0.992271    33A     -0.900337
      34A     -0.897142    35A     -0.876120    36A     -0.735308
      37A     -0.646875    38A     -0.605464    39A     -0.566074
      40A     -0.539860    41A     -0.511798    42A     -0.472219
      43A     -0.465310    44A     -0.395378    45A     -0.394206
      46A     -0.389026    47A     -0.362813    48A     -0.361804
      49A     -0.351204

  @DF-RHF Final Energy: -1000.50861849343505

   => Energetics <=

    Nuclear Repulsion Energy =            645.2260057762265433
    One-Electron Energy =               -2985.4700272098584719
    Two-Electron Energy =                1339.7354029401969910
    Total Energy =                      -1000.5086184934350513
  Basis Set: (AUG-CC-PVTZ AUX)
    Blend: AUG-CC-PVTZ-RI + DEF2-QZVPP-RI
    Molecular point group: c1

    Geometry (in Angstrom), charge = 0, multiplicity = 1:

       Center              X                  Y                   Z               Mass
    ------------   -----------------  -----------------  -----------------  -----------------
         I           -2.096859877601    -0.000240316275     0.072670971555   126.904471900000
         I            0.940236122399    -1.782482316275    -0.333126028445   126.904471900000
         I            0.940224122399     1.782022683725    -0.333125028445   126.904471900000
         C            0.189794122399    -0.000233316275     2.056912971555    12.000000000000
         C            0.035602122399    -0.000233316275     0.533146971555    12.000000000000
         C            1.618656122399    -0.000231316275     2.589687971555    12.000000000000
         H           -0.344845877601     0.881887683725     2.426132971555     1.007825032230
         H           -0.344842877601    -0.882356316275     2.426132971555     1.007825032230
         H            2.168016122399    -0.886419316275     2.269108971555     1.007825032230
         H            1.645698822399     0.097380583725     3.678251171555     1.007825032230
         H            2.168016122399     0.885954683725     2.269102971555     1.007825032230

  Basis Set: AUG-CC-PVTZ
    Blend: AUG-CC-PVTZ
  Basis Set: (AUG-CC-PVTZ AUX)
    Blend: AUG-CC-PVTZ-JKFIT + DEF2-UNIVERSAL-JKFIT
	 Reference Energy          =   -1000.5086184934350513 [Eh]
	 Singles Energy            =      -0.0000000000000000 [Eh]
	 Same-Spin Energy          =      -0.3704603855672429 [Eh]
	 Opposite-Spin Energy      =      -0.9893373851325641 [Eh]
	 Correlation Energy        =      -1.3597977706998070 [Eh]
	 Total Energy              =   -1001.8684162641349076 [Eh]

	 ================> DF-SCS-MP2 Energies <==================
	-----------------------------------------------------------
	 SCS Same-Spin Scale       =       0.3333333333333333 [-]
	 SCS Opposite-Spin Scale   =       1.2000000000000000 [-]
	 SCS Same-Spin Energy      =      -0.1234867951890810 [Eh]
	 SCS Opposite-Spin Energy  =      -1.1872048621590769 [Eh]
	 SCS Correlation Energy    =      -1.3106916573481580 [Eh]
	 SCS Total Energy          =   -1001.8193101507831670 [Eh]
	-----------------------------------------------------------

  Dipole Moment: [D]
     X:     0.3754      Y:     0.0367      Z:     1.4636     Total:     1.5114

*** Psi4 exiting successfully. Buy a developer a beer!
