                               Psi4 1.4a3.dev225

  ==> Input File <==

--------------------------------------------------------------------------
#psi4
#
memory 32 gb

molecule  {
0 1
  I       -2.1233850    -0.0000070     0.0029360
  I        0.9137110    -1.7822490    -0.4028610
  I        0.9236263     1.7937521    -0.3680071
  C        0.1632690     0.0000000     1.9871780
  C        0.0090770     0.0000000     0.4634120
  C        1.5921310     0.0000020     2.5199530
  H       -0.3713710     0.8821210     2.3563980
  H       -0.3713680    -0.8821230     2.3563980
  H        2.1414910    -0.8861860     2.1993740
  H        1.5595910     0.0000060     3.6127340
  H        2.1414910     0.8861880     2.1993680
units angstrom
no_reorient  #important for SAPT in psi4, default
symmetry c1  #important for SAPT in psi4, default
}

set PROPERTIES_ORIGIN ["COM"]
properties('MP2/aug-cc-pvtz', properties = ['dipole'])
--------------------------------------------------------------------------

    Molecular point group: c1
  Charge       = 0
  Multiplicity = 1
  Basis Set: AUG-CC-PVTZ
    Blend: AUG-CC-PVTZ
  Basis Set: (AUG-CC-PVTZ AUX)
    Blend: AUG-CC-PVTZ-JKFIT + DEF2-UNIVERSAL-JKFIT

    Orbital Energies [Eh]
    ---------------------

    Doubly Occupied:

       1A    -11.391220     2A    -11.265563     3A    -11.231761
       4A     -7.734087     5A     -7.733955     6A     -7.733698
       7A     -5.566584     8A     -5.566481     9A     -5.566179
      10A     -5.555678    11A     -5.555565    12A     -5.555475
      13A     -5.555441    14A     -5.555298    15A     -5.555189
      16A     -2.296130    17A     -2.295896    18A     -2.295622
      19A     -2.291008    20A     -2.290908    21A     -2.290838
      22A     -2.290793    23A     -2.290606    24A     -2.290485
      25A     -2.278785    26A     -2.278775    27A     -2.278592
      28A     -2.278587    29A     -2.278421    30A     -2.278411
      31A     -1.111140    32A     -0.992189    33A     -0.900064
      34A     -0.897568    35A     -0.875107    36A     -0.735167
      37A     -0.646228    38A     -0.606070    39A     -0.566041
      40A     -0.539136    41A     -0.514556    42A     -0.471382
      43A     -0.465291    44A     -0.395298    45A     -0.393847
      46A     -0.388408    47A     -0.363420    48A     -0.362197
      49A     -0.351575

  @DF-RHF Final Energy: -1000.50967459382855

   => Energetics <=

    Nuclear Repulsion Energy =            645.1446017025034507
    One-Electron Energy =               -2985.3071232445017813
    Two-Electron Energy =                1339.6528469481695538
    Total Energy =                      -1000.5096745938285494
  Basis Set: (AUG-CC-PVTZ AUX)
    Blend: AUG-CC-PVTZ-RI + DEF2-QZVPP-RI
    Molecular point group: c1

    Geometry (in Angstrom), charge = 0, multiplicity = 1:

       Center              X                  Y                   Z               Mass
    ------------   -----------------  -----------------  -----------------  -----------------
         I           -2.099704602199    -0.003466224083     0.062173726739   126.904471900000
         I            0.937391397801    -1.785708224083    -0.343623273261   126.904471900000
         I            0.947306697801     1.790292875917    -0.308769373261   126.904471900000
         C            0.186949397801    -0.003459224083     2.046415726739    12.000000000000
         C            0.032757397801    -0.003459224083     0.522649726739    12.000000000000
         C            1.615811397801    -0.003457224083     2.579190726739    12.000000000000
         H           -0.347690602199     0.878661775917     2.415635726739     1.007825032230
         H           -0.347687602199    -0.885582224083     2.415635726739     1.007825032230
         H            2.165171397801    -0.889645224083     2.258611726739     1.007825032230
         H            1.583271397801    -0.003453224083     3.671971726739     1.007825032230
         H            2.165171397801     0.882728775917     2.258605726739     1.007825032230

  Basis Set: AUG-CC-PVTZ
    Blend: AUG-CC-PVTZ
  Basis Set: (AUG-CC-PVTZ AUX)
    Blend: AUG-CC-PVTZ-JKFIT + DEF2-UNIVERSAL-JKFIT
	 Reference Energy          =   -1000.5096745938285494 [Eh]
	 Singles Energy            =      -0.0000000000000000 [Eh]
	 Same-Spin Energy          =      -0.3704708198445610 [Eh]
	 Opposite-Spin Energy      =      -0.9893841648958109 [Eh]
	 Correlation Energy        =      -1.3598549847403718 [Eh]
	 Total Energy              =   -1001.8695295785689723 [Eh]

	 ================> DF-SCS-MP2 Energies <==================
	-----------------------------------------------------------
	 SCS Same-Spin Scale       =       0.3333333333333333 [-]
	 SCS Opposite-Spin Scale   =       1.2000000000000000 [-]
	 SCS Same-Spin Energy      =      -0.1234902732815203 [Eh]
	 SCS Opposite-Spin Energy  =      -1.1872609978749731 [Eh]
	 SCS Correlation Energy    =      -1.3107512711564935 [Eh]
	 SCS Total Energy          =   -1001.8204258649850544 [Eh]
	-----------------------------------------------------------

  Dipole Moment: [D]
     X:     0.3600      Y:    -0.0140      Z:     1.4676     Total:     1.5112

*** Psi4 exiting successfully. Buy a developer a beer!
