                               Psi4 1.4a3.dev225

  ==> Input File <==

--------------------------------------------------------------------------
#psi4
#
memory 32 gb

molecule  {
0 1
  I       -2.1233850    -0.0000070     0.0029360
  I        0.9137110    -1.7822490    -0.4028610
  I        0.9136990     1.7822560    -0.4028600
  C        0.1632690     0.0000000     1.9871780
  C       -0.0053162     0.0224606     0.4651029
  C        1.5921310     0.0000020     2.5199530
  H       -0.3713710     0.8821210     2.3563980
  H       -0.3713680    -0.8821230     2.3563980
  H        2.1414910    -0.8861860     2.1993740
  H        1.5595910     0.0000060     3.6127340
  H        2.1414910     0.8861880     2.1993680
units angstrom
no_reorient  #important for SAPT in psi4, default
symmetry c1  #important for SAPT in psi4, default
}

set PROPERTIES_ORIGIN ["COM"]
properties('MP2/aug-cc-pvtz', properties = ['dipole'])
--------------------------------------------------------------------------

    Molecular point group: c1
  Charge       = 0
  Multiplicity = 1
  Basis Set: AUG-CC-PVTZ
    Blend: AUG-CC-PVTZ
  Basis Set: (AUG-CC-PVTZ AUX)
    Blend: AUG-CC-PVTZ-JKFIT + DEF2-UNIVERSAL-JKFIT

    Orbital Energies [Eh]
    ---------------------

    Doubly Occupied:

       1A    -11.391409     2A    -11.265968     3A    -11.232120
       4A     -7.734904     5A     -7.734874     6A     -7.731604
       7A     -5.567464     8A     -5.567396     9A     -5.564022
      10A     -5.556462    11A     -5.556423    12A     -5.556390
      13A     -5.556355    14A     -5.553212    15A     -5.553105
      16A     -2.297066    17A     -2.296872    18A     -2.293364
      19A     -2.291827    20A     -2.291822    21A     -2.291798
      22A     -2.291682    23A     -2.288458    24A     -2.288344
      25A     -2.279574    26A     -2.279563    27A     -2.279538
      28A     -2.279533    29A     -2.276348    30A     -2.276338
      31A     -1.110977    32A     -0.993030    33A     -0.901341
      34A     -0.895156    35A     -0.876126    36A     -0.734910
      37A     -0.646277    38A     -0.606235    39A     -0.566451
      40A     -0.538991    41A     -0.515025    42A     -0.472106
      43A     -0.464650    44A     -0.395905    45A     -0.393477
      46A     -0.389010    47A     -0.363195    48A     -0.361379
      49A     -0.351144

  @DF-RHF Final Energy: -1000.50959952978212

   => Energetics <=

    Nuclear Repulsion Energy =            645.2711345698418199
    One-Electron Energy =               -2985.5630294847865116
    Two-Electron Energy =                1339.7822953851627972
    Total Energy =                      -1000.5095995297820082
  Basis Set: (AUG-CC-PVTZ AUX)
    Blend: AUG-CC-PVTZ-RI + DEF2-QZVPP-RI
    Molecular point group: c1

    Geometry (in Angstrom), charge = 0, multiplicity = 1:

       Center              X                  Y                   Z               Mass
    ------------   -----------------  -----------------  -----------------  -----------------
         I           -2.096307972599    -0.000646136036     0.072612781972   126.904471900000
         I            0.940788027401    -1.782888136036    -0.333184218028   126.904471900000
         I            0.940776027401     1.781616863964    -0.333183218028   126.904471900000
         C            0.190346027401    -0.000639136036     2.056854781972    12.000000000000
         C            0.021760827401     0.021821463964     0.534779681972    12.000000000000
         C            1.619208027401    -0.000637136036     2.589629781972    12.000000000000
         H           -0.344293972599     0.881481863964     2.426074781972     1.007825032230
         H           -0.344290972599    -0.882762136036     2.426074781972     1.007825032230
         H            2.168568027401    -0.886825136036     2.269050781972     1.007825032230
         H            1.586668027401    -0.000633136036     3.682410781972     1.007825032230
         H            2.168568027401     0.885548863964     2.269044781972     1.007825032230

  Basis Set: AUG-CC-PVTZ
    Blend: AUG-CC-PVTZ
  Basis Set: (AUG-CC-PVTZ AUX)
    Blend: AUG-CC-PVTZ-JKFIT + DEF2-UNIVERSAL-JKFIT
	 Reference Energy          =   -1000.5095995297821219 [Eh]
	 Singles Energy            =      -0.0000000000000000 [Eh]
	 Same-Spin Energy          =      -0.3704295810283650 [Eh]
	 Opposite-Spin Energy      =      -0.9892840184767274 [Eh]
	 Correlation Energy        =      -1.3597135995050924 [Eh]
	 Total Energy              =   -1001.8693131292872067 [Eh]

	 ================> DF-SCS-MP2 Energies <==================
	-----------------------------------------------------------
	 SCS Same-Spin Scale       =       0.3333333333333333 [-]
	 SCS Opposite-Spin Scale   =       1.2000000000000000 [-]
	 SCS Same-Spin Energy      =      -0.1234765270094550 [Eh]
	 SCS Opposite-Spin Energy  =      -1.1871408221720730 [Eh]
	 SCS Correlation Energy    =      -1.3106173491815281 [Eh]
	 SCS Total Energy          =   -1001.8202168789636062 [Eh]
	-----------------------------------------------------------

  Dipole Moment: [D]
     X:     0.3152      Y:     0.0862      Z:     1.4757     Total:     1.5114

*** Psi4 exiting successfully. Buy a developer a beer!
