                               Psi4 1.4a3.dev225

  ==> Input File <==

--------------------------------------------------------------------------
#psi4
#
memory 32 gb

molecule  {
0 1
  I       -2.1233850    -0.0000070     0.0029360
  I        0.9137110    -1.7822490    -0.4028610
  I        0.8484601     1.7020130    -0.6060703
  C        0.1632690     0.0000000     1.9871780
  C        0.0090770     0.0000000     0.4634120
  C        1.5921310     0.0000020     2.5199530
  H       -0.3713710     0.8821210     2.3563980
  H       -0.3713680    -0.8821230     2.3563980
  H        2.1414910    -0.8861860     2.1993740
  H        1.5595910     0.0000060     3.6127340
  H        2.1414910     0.8861880     2.1993680
units angstrom
no_reorient  #important for SAPT in psi4, default
symmetry c1  #important for SAPT in psi4, default
}

set PROPERTIES_ORIGIN ["COM"]
properties('MP2/aug-cc-pvtz', properties = ['dipole'])
--------------------------------------------------------------------------

    Molecular point group: c1
  Charge       = 0
  Multiplicity = 1
  Basis Set: AUG-CC-PVTZ
    Blend: AUG-CC-PVTZ
  Basis Set: (AUG-CC-PVTZ AUX)
    Blend: AUG-CC-PVTZ-JKFIT + DEF2-UNIVERSAL-JKFIT

    Orbital Energies [Eh]
    ---------------------

    Doubly Occupied:

       1A    -11.391662     2A    -11.267939     3A    -11.233315
       4A     -7.734586     5A     -7.732418     6A     -7.732362
       7A     -5.567175     8A     -5.564914     9A     -5.564825
      10A     -5.556136    11A     -5.555992    12A     -5.553980
      13A     -5.553959    14A     -5.553919    15A     -5.553892
      16A     -2.296675    17A     -2.294438    18A     -2.294254
      19A     -2.291569    20A     -2.291439    21A     -2.289335
      22A     -2.289283    23A     -2.289260    24A     -2.289171
      25A     -2.279175    26A     -2.279162    27A     -2.277137
      28A     -2.277126    29A     -2.277122    30A     -2.277115
      31A     -1.110449    32A     -0.995303    33A     -0.900791
      34A     -0.894937    35A     -0.875505    36A     -0.736157
      37A     -0.646858    38A     -0.606503    39A     -0.567299
      40A     -0.538413    41A     -0.517244    42A     -0.473126
      43A     -0.465231    44A     -0.396844    45A     -0.396665
      46A     -0.390045    47A     -0.359981    48A     -0.358100
      49A     -0.348392

  @DF-RHF Final Energy: -1000.50828809732707

   => Energetics <=

    Nuclear Repulsion Energy =            646.6095487797989563
    One-Electron Energy =               -2988.2613172551200478
    Two-Electron Energy =                1341.1434803779941376
    Total Energy =                      -1000.5082880973270676
  Basis Set: (AUG-CC-PVTZ AUX)
    Blend: AUG-CC-PVTZ-RI + DEF2-QZVPP-RI
    Molecular point group: c1

    Geometry (in Angstrom), charge = 0, multiplicity = 1:

       Center              X                  Y                   Z               Mass
    ------------   -----------------  -----------------  -----------------  -----------------
         I           -2.077087247253     0.024137882378     0.133806453867   126.904471900000
         I            0.960008752747    -1.758104117622    -0.271990546133   126.904471900000
         I            0.894757852747     1.726157882378    -0.475199846133   126.904471900000
         C            0.209566752747     0.024144882378     2.118048453867    12.000000000000
         C            0.055374752747     0.024144882378     0.594282453867    12.000000000000
         C            1.638428752747     0.024146882378     2.650823453867    12.000000000000
         H           -0.325073247253     0.906265882378     2.487268453867     1.007825032230
         H           -0.325070247253    -0.857978117622     2.487268453867     1.007825032230
         H            2.187788752747    -0.862041117622     2.330244453867     1.007825032230
         H            1.605888752747     0.024150882378     3.743604453867     1.007825032230
         H            2.187788752747     0.910332882378     2.330238453867     1.007825032230

  Basis Set: AUG-CC-PVTZ
    Blend: AUG-CC-PVTZ
  Basis Set: (AUG-CC-PVTZ AUX)
    Blend: AUG-CC-PVTZ-JKFIT + DEF2-UNIVERSAL-JKFIT
	 Reference Energy          =   -1000.5082880973270676 [Eh]
	 Singles Energy            =      -0.0000000000000000 [Eh]
	 Same-Spin Energy          =      -0.3702833537472435 [Eh]
	 Opposite-Spin Energy      =      -0.9889752549450618 [Eh]
	 Correlation Energy        =      -1.3592586086923053 [Eh]
	 Total Energy              =   -1001.8675467060194251 [Eh]

	 ================> DF-SCS-MP2 Energies <==================
	-----------------------------------------------------------
	 SCS Same-Spin Scale       =       0.3333333333333333 [-]
	 SCS Opposite-Spin Scale   =       1.2000000000000000 [-]
	 SCS Same-Spin Energy      =      -0.1234277845824145 [Eh]
	 SCS Opposite-Spin Energy  =      -1.1867703059340742 [Eh]
	 SCS Correlation Energy    =      -1.3101980905164887 [Eh]
	 SCS Total Energy          =   -1001.8184861878435186 [Eh]
	-----------------------------------------------------------

  Dipole Moment: [D]
     X:     0.4024      Y:     0.0761      Z:     1.4670     Total:     1.5231

*** Psi4 exiting successfully. Buy a developer a beer!
