                               Psi4 1.4a3.dev225

  ==> Input File <==

--------------------------------------------------------------------------
#psi4
#
memory 32 gb

molecule  {
0 1
  I       -2.1233850    -0.0000070     0.0029360
  I        0.9137110    -1.7822490    -0.4028610
  I        0.9136990     1.7822560    -0.4028600
  C        0.1632690     0.0000000     1.9871780
  C        0.0090770     0.0000000     0.4634120
  C        1.5921310     0.0000020     2.5199530
  H       -0.4201706     0.9626372     2.3900988
  H       -0.3713680    -0.8821230     2.3563980
  H        2.1414910    -0.8861860     2.1993740
  H        1.5595910     0.0000060     3.6127340
  H        2.1414910     0.8861880     2.1993680
units angstrom
no_reorient  #important for SAPT in psi4, default
symmetry c1  #important for SAPT in psi4, default
}

set PROPERTIES_ORIGIN ["COM"]
properties('MP2/aug-cc-pvtz', properties = ['dipole'])
--------------------------------------------------------------------------

    Molecular point group: c1
  Charge       = 0
  Multiplicity = 1
  Basis Set: AUG-CC-PVTZ
    Blend: AUG-CC-PVTZ
  Basis Set: (AUG-CC-PVTZ AUX)
    Blend: AUG-CC-PVTZ-JKFIT + DEF2-UNIVERSAL-JKFIT

    Orbital Energies [Eh]
    ---------------------

    Doubly Occupied:

       1A    -11.391721     2A    -11.277012     3A    -11.232836
       4A     -7.734361     5A     -7.733745     6A     -7.733590
       7A     -5.566866     8A     -5.566254     9A     -5.566134
      10A     -5.555948    11A     -5.555833    12A     -5.555319
      13A     -5.555228    14A     -5.555099    15A     -5.555070
      16A     -2.296367    17A     -2.295753    18A     -2.295550
      19A     -2.291288    20A     -2.291167    21A     -2.290658
      22A     -2.290585    23A     -2.290473    24A     -2.290444
      25A     -2.279052    26A     -2.279042    27A     -2.278433
      28A     -2.278422    29A     -2.278210    30A     -2.278205
      31A     -1.108060    32A     -0.992254    33A     -0.899006
      34A     -0.897272    35A     -0.872150    36A     -0.730997
      37A     -0.637830    38A     -0.605530    39A     -0.566380
      40A     -0.536999    41A     -0.513303    42A     -0.471335
      43A     -0.460299    44A     -0.395397    45A     -0.394274
      46A     -0.388901    47A     -0.362870    48A     -0.361816
      49A     -0.351239

  @DF-RHF Final Energy: -1000.50324711061342

   => Energetics <=

    Nuclear Repulsion Energy =            644.7774502594136266
    One-Electron Energy =               -2984.5922434358831197
    Two-Electron Energy =                1339.3115460658564189
    Total Energy =                      -1000.5032471106133016
  Basis Set: (AUG-CC-PVTZ AUX)
    Blend: AUG-CC-PVTZ-RI + DEF2-QZVPP-RI
    Molecular point group: c1

    Geometry (in Angstrom), charge = 0, multiplicity = 1:

       Center              X                  Y                   Z               Mass
    ------------   -----------------  -----------------  -----------------  -----------------
         I           -2.096600885930    -0.000199473740     0.072580360804   126.904471900000
         I            0.940495114070    -1.782441473740    -0.333216639196   126.904471900000
         I            0.940483114070     1.782063526260    -0.333215639196   126.904471900000
         C            0.190053114070    -0.000192473740     2.056822360804    12.000000000000
         C            0.035861114070    -0.000192473740     0.533056360804    12.000000000000
         C            1.618915114070    -0.000190473740     2.589597360804    12.000000000000
         H           -0.393386485930     0.962444726260     2.459743160804     1.007825032230
         H           -0.344583885930    -0.882315473740     2.426042360804     1.007825032230
         H            2.168275114070    -0.886378473740     2.269018360804     1.007825032230
         H            1.586375114070    -0.000186473740     3.682378360804     1.007825032230
         H            2.168275114070     0.885995526260     2.269012360804     1.007825032230

  Basis Set: AUG-CC-PVTZ
    Blend: AUG-CC-PVTZ
  Basis Set: (AUG-CC-PVTZ AUX)
    Blend: AUG-CC-PVTZ-JKFIT + DEF2-UNIVERSAL-JKFIT
	 Reference Energy          =   -1000.5032471106134153 [Eh]
	 Singles Energy            =      -0.0000000000000000 [Eh]
	 Same-Spin Energy          =      -0.3706239662476140 [Eh]
	 Opposite-Spin Energy      =      -0.9901326138424005 [Eh]
	 Correlation Energy        =      -1.3607565800900145 [Eh]
	 Total Energy              =   -1001.8640036907033846 [Eh]

	 ================> DF-SCS-MP2 Energies <==================
	-----------------------------------------------------------
	 SCS Same-Spin Scale       =       0.3333333333333333 [-]
	 SCS Opposite-Spin Scale   =       1.2000000000000000 [-]
	 SCS Same-Spin Energy      =      -0.1235413220825380 [Eh]
	 SCS Opposite-Spin Energy  =      -1.1881591366108806 [Eh]
	 SCS Correlation Energy    =      -1.3117004586934184 [Eh]
	 SCS Total Energy          =   -1001.8149475693068098 [Eh]
	-----------------------------------------------------------

  Dipole Moment: [D]
     X:     0.3932      Y:    -0.0245      Z:     1.4581     Total:     1.5103

*** Psi4 exiting successfully. Buy a developer a beer!
