                               Psi4 1.4a3.dev225

  ==> Input File <==

--------------------------------------------------------------------------
#psi4
#
memory 32 gb

molecule  {
0 1
  I       -2.1233850    -0.0000070     0.0029360
  I        0.9137110    -1.7822490    -0.4028610
  I        0.9136990     1.7822560    -0.4028600
  C        0.1632690     0.0000000     1.9871780
  C        0.0007713     0.0163633     0.4713655
  C        1.5921310     0.0000020     2.5199530
  H       -0.3713710     0.8821210     2.3563980
  H       -0.3713680    -0.8821230     2.3563980
  H        2.1414910    -0.8861860     2.1993740
  H        1.5595910     0.0000060     3.6127340
  H        2.1414910     0.8861880     2.1993680
units angstrom
no_reorient  #important for SAPT in psi4, default
symmetry c1  #important for SAPT in psi4, default
}

set PROPERTIES_ORIGIN ["COM"]
properties('MP2/aug-cc-pvtz', properties = ['dipole'])
--------------------------------------------------------------------------

    Molecular point group: c1
  Charge       = 0
  Multiplicity = 1
  Basis Set: AUG-CC-PVTZ
    Blend: AUG-CC-PVTZ
  Basis Set: (AUG-CC-PVTZ AUX)
    Blend: AUG-CC-PVTZ-JKFIT + DEF2-UNIVERSAL-JKFIT

    Orbital Energies [Eh]
    ---------------------

    Doubly Occupied:

       1A    -11.391542     2A    -11.265579     3A    -11.232203
       4A     -7.734590     5A     -7.734446     6A     -7.732201
       7A     -5.567104     8A     -5.566990     9A     -5.564638
      10A     -5.556178    11A     -5.556069    12A     -5.555966
      13A     -5.555929    14A     -5.553802    15A     -5.553695
      16A     -2.296667    17A     -2.296440    18A     -2.294004
      19A     -2.291525    20A     -2.291430    21A     -2.291345
      22A     -2.291300    23A     -2.289069    24A     -2.288954
      25A     -2.279287    26A     -2.279276    27A     -2.279080
      28A     -2.279074    29A     -2.276930    30A     -2.276920
      31A     -1.112200    32A     -0.992509    33A     -0.900850
      34A     -0.895687    35A     -0.876422    36A     -0.735275
      37A     -0.646783    38A     -0.606495    39A     -0.566800
      40A     -0.539204    41A     -0.515612    42A     -0.471179
      43A     -0.464230    44A     -0.395678    45A     -0.393688
      46A     -0.389546    47A     -0.362761    48A     -0.361446
      49A     -0.351110

  @DF-RHF Final Energy: -1000.50965032231682

   => Energetics <=

    Nuclear Repulsion Energy =            645.2457367245108344
    One-Electron Energy =               -2985.5113590537353048
    Two-Electron Energy =                1339.7559720069075411
    Total Energy =                      -1000.5096503223167019
  Basis Set: (AUG-CC-PVTZ AUX)
    Blend: AUG-CC-PVTZ-RI + DEF2-QZVPP-RI
    Molecular point group: c1

    Geometry (in Angstrom), charge = 0, multiplicity = 1:

       Center              X                  Y                   Z               Mass
    ------------   -----------------  -----------------  -----------------  -----------------
         I           -2.096481178432    -0.000472651366     0.072434594071   126.904471900000
         I            0.940614821568    -1.782714651366    -0.333362405929   126.904471900000
         I            0.940602821568     1.781790348634    -0.333361405929   126.904471900000
         C            0.190172821568    -0.000465651366     2.056676594071    12.000000000000
         C            0.027675121568     0.015897648634     0.540864094071    12.000000000000
         C            1.619034821568    -0.000463651366     2.589451594071    12.000000000000
         H           -0.344467178432     0.881655348634     2.425896594071     1.007825032230
         H           -0.344464178432    -0.882588651366     2.425896594071     1.007825032230
         H            2.168394821568    -0.886651651366     2.268872594071     1.007825032230
         H            1.586494821568    -0.000459651366     3.682232594071     1.007825032230
         H            2.168394821568     0.885722348634     2.268866594071     1.007825032230

  Basis Set: AUG-CC-PVTZ
    Blend: AUG-CC-PVTZ
  Basis Set: (AUG-CC-PVTZ AUX)
    Blend: AUG-CC-PVTZ-JKFIT + DEF2-UNIVERSAL-JKFIT
	 Reference Energy          =   -1000.5096503223168156 [Eh]
	 Singles Energy            =      -0.0000000000000000 [Eh]
	 Same-Spin Energy          =      -0.3704525331205117 [Eh]
	 Opposite-Spin Energy      =      -0.9893254227164886 [Eh]
	 Correlation Energy        =      -1.3597779558370002 [Eh]
	 Total Energy              =   -1001.8694282781538050 [Eh]

	 ================> DF-SCS-MP2 Energies <==================
	-----------------------------------------------------------
	 SCS Same-Spin Scale       =       0.3333333333333333 [-]
	 SCS Opposite-Spin Scale   =       1.2000000000000000 [-]
	 SCS Same-Spin Energy      =      -0.1234841777068372 [Eh]
	 SCS Opposite-Spin Energy  =      -1.1871905072597864 [Eh]
	 SCS Correlation Energy    =      -1.3106746849666235 [Eh]
	 SCS Total Energy          =   -1001.8203250072834862 [Eh]
	-----------------------------------------------------------

  Dipole Moment: [D]
     X:     0.3340      Y:     0.0632      Z:     1.4771     Total:     1.5157

*** Psi4 exiting successfully. Buy a developer a beer!
