                               Psi4 1.4a3.dev225

  ==> Input File <==

--------------------------------------------------------------------------
#psi4
#
memory 32 gb

molecule  {
0 1
  I       -2.1233850    -0.0000070     0.0029360
  I        0.9137110    -1.7822490    -0.4028610
  I        0.9136990     1.7822560    -0.4028600
  C        0.1632690     0.0000000     1.9871780
  C        0.0141109     0.0000000     0.5131580
  C        1.5921310     0.0000020     2.5199530
  H       -0.3713710     0.8821210     2.3563980
  H       -0.3713680    -0.8821230     2.3563980
  H        2.1414910    -0.8861860     2.1993740
  H        1.5595910     0.0000060     3.6127340
  H        2.1414910     0.8861880     2.1993680
units angstrom
no_reorient  #important for SAPT in psi4, default
symmetry c1  #important for SAPT in psi4, default
}

set PROPERTIES_ORIGIN ["COM"]
properties('MP2/aug-cc-pvtz', properties = ['dipole'])
--------------------------------------------------------------------------

    Molecular point group: c1
  Charge       = 0
  Multiplicity = 1
  Basis Set: AUG-CC-PVTZ
    Blend: AUG-CC-PVTZ
  Basis Set: (AUG-CC-PVTZ AUX)
    Blend: AUG-CC-PVTZ-JKFIT + DEF2-UNIVERSAL-JKFIT

    Orbital Energies [Eh]
    ---------------------

    Doubly Occupied:

       1A    -11.392569     2A    -11.263346     3A    -11.233099
       4A     -7.733493     5A     -7.733309     6A     -7.733307
       7A     -5.566007     8A     -5.565787     9A     -5.565783
      10A     -5.555011    11A     -5.554960    12A     -5.554893
      13A     -5.554889    14A     -5.554776    15A     -5.554773
      16A     -2.295455    17A     -2.295185    18A     -2.295092
      19A     -2.290370    20A     -2.290335    21A     -2.290240
      22A     -2.290166    23A     -2.290085    24A     -2.290055
      25A     -2.278112    26A     -2.278104    27A     -2.277994
      28A     -2.277985    29A     -2.277979    30A     -2.277977
      31A     -1.120531    32A     -0.990114    33A     -0.900481
      34A     -0.895360    35A     -0.879403    36A     -0.736942
      37A     -0.650218    38A     -0.608471    39A     -0.569601
      40A     -0.540716    41A     -0.519655    42A     -0.466253
      43A     -0.460222    44A     -0.395113    45A     -0.394735
      46A     -0.391653    47A     -0.361326    48A     -0.360394
      49A     -0.350725

  @DF-RHF Final Energy: -1000.50785528769154

   => Energetics <=

    Nuclear Repulsion Energy =            645.0610406730020259
    One-Electron Energy =               -2985.1316974902174479
    Two-Electron Energy =                1339.5628015295239948
    Total Energy =                      -1000.5078552876914273
  Basis Set: (AUG-CC-PVTZ AUX)
    Blend: AUG-CC-PVTZ-RI + DEF2-QZVPP-RI
    Molecular point group: c1

    Geometry (in Angstrom), charge = 0, multiplicity = 1:

       Center              X                  Y                   Z               Mass
    ------------   -----------------  -----------------  -----------------  -----------------
         I           -2.096860726116    -0.000007071243     0.071245484460   126.904471900000
         I            0.940235273884    -1.782249071243    -0.334551515540   126.904471900000
         I            0.940223273884     1.782255928757    -0.334550515540   126.904471900000
         C            0.189793273884    -0.000000071243     2.055487484460    12.000000000000
         C            0.040635173884    -0.000000071243     0.581467484460    12.000000000000
         C            1.618655273884     0.000001928757     2.588262484460    12.000000000000
         H           -0.344846726116     0.882120928757     2.424707484460     1.007825032230
         H           -0.344843726116    -0.882123071243     2.424707484460     1.007825032230
         H            2.168015273884    -0.886186071243     2.267683484460     1.007825032230
         H            1.586115273884     0.000005928757     3.681043484460     1.007825032230
         H            2.168015273884     0.886187928757     2.267677484460     1.007825032230

  Basis Set: AUG-CC-PVTZ
    Blend: AUG-CC-PVTZ
  Basis Set: (AUG-CC-PVTZ AUX)
    Blend: AUG-CC-PVTZ-JKFIT + DEF2-UNIVERSAL-JKFIT
	 Reference Energy          =   -1000.5078552876915410 [Eh]
	 Singles Energy            =      -0.0000000000000000 [Eh]
	 Same-Spin Energy          =      -0.3707178232413215 [Eh]
	 Opposite-Spin Energy      =      -0.9897318641917882 [Eh]
	 Correlation Energy        =      -1.3604496874331096 [Eh]
	 Total Energy              =   -1001.8683049751246017 [Eh]

	 ================> DF-SCS-MP2 Energies <==================
	-----------------------------------------------------------
	 SCS Same-Spin Scale       =       0.3333333333333333 [-]
	 SCS Opposite-Spin Scale   =       1.2000000000000000 [-]
	 SCS Same-Spin Energy      =      -0.1235726077471072 [Eh]
	 SCS Opposite-Spin Energy  =      -1.1876782370301457 [Eh]
	 SCS Correlation Energy    =      -1.3112508447772528 [Eh]
	 SCS Total Energy          =   -1001.8191061324688462 [Eh]
	-----------------------------------------------------------

  Dipole Moment: [D]
     X:     0.3665      Y:    -0.0000      Z:     1.5094     Total:     1.5532

*** Psi4 exiting successfully. Buy a developer a beer!
