                               Psi4 1.4a3.dev225

  ==> Input File <==

--------------------------------------------------------------------------
#psi4
#
memory 32 gb

molecule  {
0 1
  I       -2.1233850    -0.0000070     0.0029360
  I        0.9137110    -1.7822490    -0.4028610
  I        0.9136990     1.7822560    -0.4028600
  C        0.1632690     0.0000000     1.9871780
  C        0.0191447     0.0000000     0.5629039
  C        1.5921310     0.0000020     2.5199530
  H       -0.3713710     0.8821210     2.3563980
  H       -0.3713680    -0.8821230     2.3563980
  H        2.1414910    -0.8861860     2.1993740
  H        1.5595910     0.0000060     3.6127340
  H        2.1414910     0.8861880     2.1993680
units angstrom
no_reorient  #important for SAPT in psi4, default
symmetry c1  #important for SAPT in psi4, default
}

set PROPERTIES_ORIGIN ["COM"]
properties('MP2/aug-cc-pvtz', properties = ['dipole'])
--------------------------------------------------------------------------

    Molecular point group: c1
  Charge       = 0
  Multiplicity = 1
  Basis Set: AUG-CC-PVTZ
    Blend: AUG-CC-PVTZ
  Basis Set: (AUG-CC-PVTZ AUX)
    Blend: AUG-CC-PVTZ-JKFIT + DEF2-UNIVERSAL-JKFIT

    Orbital Energies [Eh]
    ---------------------

    Doubly Occupied:

       1A    -11.393707     2A    -11.260874     3A    -11.234618
       4A     -7.733127     5A     -7.732624     6A     -7.732621
       7A     -5.565632     8A     -5.565086     9A     -5.565081
      10A     -5.554637    11A     -5.554571    12A     -5.554200
      13A     -5.554196    14A     -5.554073    15A     -5.554069
      16A     -2.294961    17A     -2.294433    18A     -2.294307
      19A     -2.289990    20A     -2.289935    21A     -2.289534
      22A     -2.289459    23A     -2.289371    24A     -2.289348
      25A     -2.277718    26A     -2.277708    27A     -2.277286
      28A     -2.277276    29A     -2.277269    30A     -2.277266
      31A     -1.131888    32A     -0.987772    33A     -0.902008
      34A     -0.893445    35A     -0.882512    36A     -0.738670
      37A     -0.654980    38A     -0.611153    39A     -0.573431
      40A     -0.542884    41A     -0.524605    42A     -0.460613
      43A     -0.454770    44A     -0.396517    45A     -0.394614
      46A     -0.392366    47A     -0.359715    48A     -0.358852
      49A     -0.350144

  @DF-RHF Final Energy: -1000.50219820820166

   => Energetics <=

    Nuclear Repulsion Energy =            644.8363636101063321
    One-Electron Energy =               -2984.6652918757272346
    Two-Electron Energy =                1339.3267300574193541
    Total Energy =                      -1000.5021982082016621
  Basis Set: (AUG-CC-PVTZ AUX)
    Blend: AUG-CC-PVTZ-RI + DEF2-QZVPP-RI
    Molecular point group: c1

    Geometry (in Angstrom), charge = 0, multiplicity = 1:

       Center              X                  Y                   Z               Mass
    ------------   -----------------  -----------------  -----------------  -----------------
         I           -2.097003951335    -0.000007071243     0.069830079116   126.904471900000
         I            0.940092048665    -1.782249071243    -0.335966920884   126.904471900000
         I            0.940080048665     1.782255928757    -0.335965920884   126.904471900000
         C            0.189650048665    -0.000000071243     2.054072079116    12.000000000000
         C            0.045525748665    -0.000000071243     0.629797979116    12.000000000000
         C            1.618512048665     0.000001928757     2.586847079116    12.000000000000
         H           -0.344989951335     0.882120928757     2.423292079116     1.007825032230
         H           -0.344986951335    -0.882123071243     2.423292079116     1.007825032230
         H            2.167872048665    -0.886186071243     2.266268079116     1.007825032230
         H            1.585972048665     0.000005928757     3.679628079116     1.007825032230
         H            2.167872048665     0.886187928757     2.266262079116     1.007825032230

  Basis Set: AUG-CC-PVTZ
    Blend: AUG-CC-PVTZ
  Basis Set: (AUG-CC-PVTZ AUX)
    Blend: AUG-CC-PVTZ-JKFIT + DEF2-UNIVERSAL-JKFIT
	 Reference Energy          =   -1000.5021982082016621 [Eh]
	 Singles Energy            =      -0.0000000000000000 [Eh]
	 Same-Spin Energy          =      -0.3712077819274606 [Eh]
	 Opposite-Spin Energy      =      -0.9904450660701418 [Eh]
	 Correlation Energy        =      -1.3616528479976024 [Eh]
	 Total Energy              =   -1001.8638510561992234 [Eh]

	 ================> DF-SCS-MP2 Energies <==================
	-----------------------------------------------------------
	 SCS Same-Spin Scale       =       0.3333333333333333 [-]
	 SCS Opposite-Spin Scale   =       1.2000000000000000 [-]
	 SCS Same-Spin Energy      =      -0.1237359273091535 [Eh]
	 SCS Opposite-Spin Energy  =      -1.1885340792841701 [Eh]
	 SCS Correlation Energy    =      -1.3122700065933237 [Eh]
	 SCS Total Energy          =   -1001.8144682147949425 [Eh]
	-----------------------------------------------------------

  Dipole Moment: [D]
     X:     0.3715      Y:    -0.0000      Z:     1.5775     Total:     1.6206

*** Psi4 exiting successfully. Buy a developer a beer!
