                               Psi4 1.4a3.dev225

  ==> Input File <==

--------------------------------------------------------------------------
#psi4
#
memory 32 gb

molecule  {
0 1
  I       -2.1233850    -0.0000070     0.0029360
  I        0.9137110    -1.7822490    -0.4028610
  I        0.9136990     1.7822560    -0.4028600
  C        0.1632690     0.0000000     1.9871780
  C       -0.0739799     0.1636330     0.5429468
  C        1.5921310     0.0000020     2.5199530
  H       -0.3713710     0.8821210     2.3563980
  H       -0.3713680    -0.8821230     2.3563980
  H        2.1414910    -0.8861860     2.1993740
  H        1.5595910     0.0000060     3.6127340
  H        2.1414910     0.8861880     2.1993680
units angstrom
no_reorient  #important for SAPT in psi4, default
symmetry c1  #important for SAPT in psi4, default
}

set PROPERTIES_ORIGIN ["COM"]
properties('MP2/aug-cc-pvtz', properties = ['dipole'])
--------------------------------------------------------------------------

    Molecular point group: c1
  Charge       = 0
  Multiplicity = 1
  Basis Set: AUG-CC-PVTZ
    Blend: AUG-CC-PVTZ
  Basis Set: (AUG-CC-PVTZ AUX)
    Blend: AUG-CC-PVTZ-JKFIT + DEF2-UNIVERSAL-JKFIT

    Orbital Energies [Eh]
    ---------------------

    Doubly Occupied:

       1A    -11.397820     2A    -11.265970     3A    -11.234917
       4A     -7.742759     5A     -7.742205     6A     -7.713558
       7A     -5.575534     8A     -5.575014     9A     -5.564278
      10A     -5.564117    11A     -5.563640    12A     -5.563571
      13A     -5.545257    14A     -5.535464    15A     -5.535343
      16A     -2.305422    17A     -2.304823    18A     -2.299910
      19A     -2.299735    20A     -2.299312    21A     -2.299236
      22A     -2.287265    23A     -2.287247    24A     -2.286635
      25A     -2.286622    26A     -2.273934    27A     -2.269944
      28A     -2.269816    29A     -2.258952    30A     -2.258942
      31A     -1.125748    32A     -0.996324    33A     -0.913178
      34A     -0.888658    35A     -0.874776    36A     -0.736143
      37A     -0.651882    38A     -0.612411    39A     -0.574823
      40A     -0.541825    41A     -0.524591    42A     -0.473891
      43A     -0.453788    44A     -0.402471    45A     -0.400162
      46A     -0.373596    47A     -0.369151    48A     -0.349434
      49A     -0.346294

  @DF-RHF Final Energy: -1000.49553031023925

   => Energetics <=

    Nuclear Repulsion Energy =            644.8239914119072864
    One-Electron Energy =               -2984.6062651645625010
    Two-Electron Energy =                1339.2867434424160820
    Total Energy =                      -1000.4955303102392463
  Basis Set: (AUG-CC-PVTZ AUX)
    Blend: AUG-CC-PVTZ-RI + DEF2-QZVPP-RI
    Molecular point group: c1

    Geometry (in Angstrom), charge = 0, multiplicity = 1:

       Center              X                  Y                   Z               Mass
    ------------   -----------------  -----------------  -----------------  -----------------
         I           -2.094354304701    -0.004662872477     0.070397912565   126.904471900000
         I            0.942741695299    -1.786904872477    -0.335399087435   126.904471900000
         I            0.942729695299     1.777600127523    -0.335398087435   126.904471900000
         C            0.192299695299    -0.004655872477     2.054639912565    12.000000000000
         C           -0.044949204701     0.158977127523     0.610408712565    12.000000000000
         C            1.621161695299    -0.004653872477     2.587414912565    12.000000000000
         H           -0.342340304701     0.877465127523     2.423859912565     1.007825032230
         H           -0.342337304701    -0.886778872477     2.423859912565     1.007825032230
         H            2.170521695299    -0.890841872477     2.266835912565     1.007825032230
         H            1.588621695299    -0.004649872477     3.680195912565     1.007825032230
         H            2.170521695299     0.881532127523     2.266829912565     1.007825032230

  Basis Set: AUG-CC-PVTZ
    Blend: AUG-CC-PVTZ
  Basis Set: (AUG-CC-PVTZ AUX)
    Blend: AUG-CC-PVTZ-JKFIT + DEF2-UNIVERSAL-JKFIT
	 Reference Energy          =   -1000.4955303102392463 [Eh]
	 Singles Energy            =      -0.0000000000000000 [Eh]
	 Same-Spin Energy          =      -0.3714933073274770 [Eh]
	 Opposite-Spin Energy      =      -0.9905170813809636 [Eh]
	 Correlation Energy        =      -1.3620103887084407 [Eh]
	 Total Energy              =   -1001.8575406989476733 [Eh]

	 ================> DF-SCS-MP2 Energies <==================
	-----------------------------------------------------------
	 SCS Same-Spin Scale       =       0.3333333333333333 [-]
	 SCS Opposite-Spin Scale   =       1.2000000000000000 [-]
	 SCS Same-Spin Energy      =      -0.1238311024424923 [Eh]
	 SCS Opposite-Spin Energy  =      -1.1886204976571564 [Eh]
	 SCS Correlation Energy    =      -1.3124516000996487 [Eh]
	 SCS Total Energy          =   -1001.8079819103388672 [Eh]
	-----------------------------------------------------------

  Dipole Moment: [D]
     X:     0.0388      Y:     0.6562      Z:     1.5988     Total:     1.7287

*** Psi4 exiting successfully. Buy a developer a beer!
