                               Psi4 1.4a3.dev225

  ==> Input File <==

--------------------------------------------------------------------------
#psi4
#
memory 32 gb

molecule  {
0 1
  I       -2.1233850    -0.0000070     0.0029360
  I        0.9137110    -1.7822490    -0.4028610
  I        0.9136990     1.7822560    -0.4028600
  C        0.1632690     0.0000000     1.9871780
  C        0.0090770     0.0000000     0.4634120
  C        1.5921310     0.0000020     2.5199530
  H       -0.3713710     0.8821210     2.3563980
  H       -0.3713680    -0.8821230     2.3563980
  H        2.1414910    -0.8861860     2.1993740
  H        1.5625674     0.0000056     3.5127783
  H        2.1414910     0.8861880     2.1993680
units angstrom
no_reorient  #important for SAPT in psi4, default
symmetry c1  #important for SAPT in psi4, default
}

set PROPERTIES_ORIGIN ["COM"]
properties('MP2/aug-cc-pvtz', properties = ['dipole'])
--------------------------------------------------------------------------

    Molecular point group: c1
  Charge       = 0
  Multiplicity = 1
  Basis Set: AUG-CC-PVTZ
    Blend: AUG-CC-PVTZ
  Basis Set: (AUG-CC-PVTZ AUX)
    Blend: AUG-CC-PVTZ-JKFIT + DEF2-UNIVERSAL-JKFIT

    Orbital Energies [Eh]
    ---------------------

    Doubly Occupied:

       1A    -11.390932     2A    -11.265309     3A    -11.219699
       4A     -7.733479     5A     -7.733477     6A     -7.733356
       7A     -5.565972     8A     -5.565967     9A     -5.565867
      10A     -5.555075    11A     -5.555071    12A     -5.554962
      13A     -5.554959    14A     -5.554888    15A     -5.554854
      16A     -2.295588    17A     -2.295360    18A     -2.295266
      19A     -2.290435    20A     -2.290361    21A     -2.290301
      22A     -2.290301    23A     -2.290220    24A     -2.290168
      25A     -2.278190    26A     -2.278182    27A     -2.278177
      28A     -2.278175    29A     -2.278018    30A     -2.278013
      31A     -1.111910    32A     -0.998388    33A     -0.900679
      34A     -0.896801    35A     -0.880307    36A     -0.734963
      37A     -0.645746    38A     -0.620368    39A     -0.565418
      40A     -0.538126    41A     -0.523208    42A     -0.471245
      43A     -0.465018    44A     -0.394998    45A     -0.393833
      46A     -0.388523    47A     -0.362478    48A     -0.361457
      49A     -0.350838

  @DF-RHF Final Energy: -1000.50369229920238

   => Energetics <=

    Nuclear Repulsion Energy =            645.8479026206789513
    One-Electron Energy =               -2986.6933347125395812
    Two-Electron Energy =                1340.3417397926584727
    Total Energy =                      -1000.5036922992023847
  Basis Set: (AUG-CC-PVTZ AUX)
    Blend: AUG-CC-PVTZ-RI + DEF2-QZVPP-RI
    Molecular point group: c1

    Geometry (in Angstrom), charge = 0, multiplicity = 1:

       Center              X                  Y                   Z               Mass
    ------------   -----------------  -----------------  -----------------  -----------------
         I           -2.096724610493    -0.000007070287     0.072899748012   126.904471900000
         I            0.940371389507    -1.782249070287    -0.332897251988   126.904471900000
         I            0.940359389507     1.782255929713    -0.332896251988   126.904471900000
         C            0.189929389507    -0.000000070287     2.057141748012    12.000000000000
         C            0.035737389507    -0.000000070287     0.533375748012    12.000000000000
         C            1.618791389507     0.000001929713     2.589916748012    12.000000000000
         H           -0.344710610493     0.882120929713     2.426361748012     1.007825032230
         H           -0.344707610493    -0.882123070287     2.426361748012     1.007825032230
         H            2.168151389507    -0.886186070287     2.269337748012     1.007825032230
         H            1.589227789507     0.000005529713     3.582742048012     1.007825032230
         H            2.168151389507     0.886187929713     2.269331748012     1.007825032230

  Basis Set: AUG-CC-PVTZ
    Blend: AUG-CC-PVTZ
  Basis Set: (AUG-CC-PVTZ AUX)
    Blend: AUG-CC-PVTZ-JKFIT + DEF2-UNIVERSAL-JKFIT
	 Reference Energy          =   -1000.5036922992023847 [Eh]
	 Singles Energy            =      -0.0000000000000000 [Eh]
	 Same-Spin Energy          =      -0.3704401263299951 [Eh]
	 Opposite-Spin Energy      =      -0.9888113705828515 [Eh]
	 Correlation Energy        =      -1.3592514969128466 [Eh]
	 Total Energy              =   -1001.8629437961152462 [Eh]

	 ================> DF-SCS-MP2 Energies <==================
	-----------------------------------------------------------
	 SCS Same-Spin Scale       =       0.3333333333333333 [-]
	 SCS Opposite-Spin Scale   =       1.2000000000000000 [-]
	 SCS Same-Spin Energy      =      -0.1234800421099984 [Eh]
	 SCS Opposite-Spin Energy  =      -1.1865736446994217 [Eh]
	 SCS Correlation Energy    =      -1.3100536868094201 [Eh]
	 SCS Total Energy          =   -1001.8137459860117815 [Eh]
	-----------------------------------------------------------

  Dipole Moment: [D]
     X:     0.3852      Y:     0.0000      Z:     1.5197     Total:     1.5677

*** Psi4 exiting successfully. Buy a developer a beer!
