                               Psi4 1.4a3.dev225

  ==> Input File <==

--------------------------------------------------------------------------
#psi4
#
memory 32 gb

molecule  {
0 1
  I       -2.1233850    -0.0000070     0.0029360
  I        0.9137110    -1.7822490    -0.4028610
  I        0.9136990     1.7822560    -0.4028600
  C        0.1632690     0.0000000     1.9871780
  C        0.0506049     0.0818168     0.4236446
  C        1.5921310     0.0000020     2.5199530
  H       -0.3713710     0.8821210     2.3563980
  H       -0.3713680    -0.8821230     2.3563980
  H        2.1414910    -0.8861860     2.1993740
  H        1.5595910     0.0000060     3.6127340
  H        2.1414910     0.8861880     2.1993680
units angstrom
no_reorient  #important for SAPT in psi4, default
symmetry c1  #important for SAPT in psi4, default
}

set PROPERTIES_ORIGIN ["COM"]
properties('MP2/aug-cc-pvtz', properties = ['dipole'])
--------------------------------------------------------------------------

    Molecular point group: c1
  Charge       = 0
  Multiplicity = 1
  Basis Set: AUG-CC-PVTZ
    Blend: AUG-CC-PVTZ
  Basis Set: (AUG-CC-PVTZ AUX)
    Blend: AUG-CC-PVTZ-JKFIT + DEF2-UNIVERSAL-JKFIT

    Orbital Energies [Eh]
    ---------------------

    Doubly Occupied:

       1A    -11.391199     2A    -11.268348     3A    -11.231258
       4A     -7.741167     5A     -7.730469     6A     -7.730403
       7A     -5.573867     8A     -5.562894     9A     -5.562801
      10A     -5.562775    11A     -5.562676    12A     -5.552011
      13A     -5.552008    14A     -5.551981    15A     -5.551904
      16A     -2.304002    17A     -2.298304    18A     -2.298195
      19A     -2.292217    20A     -2.292038    21A     -2.287277
      22A     -2.287264    23A     -2.287228    24A     -2.287109
      25A     -2.285923    26A     -2.285913    27A     -2.275162
      28A     -2.275155    29A     -2.275145    30A     -2.275138
      31A     -1.106092    32A     -0.995614    33A     -0.907288
      34A     -0.892904    35A     -0.869461    36A     -0.735463
      37A     -0.644156    38A     -0.605011    39A     -0.564029
      40A     -0.537991    41A     -0.513267    42A     -0.476297
      43A     -0.469576    44A     -0.400015    45A     -0.389533
      46A     -0.383557    47A     -0.366456    48A     -0.359633
      49A     -0.350502

  @DF-RHF Final Energy: -1000.50552737899432

   => Energetics <=

    Nuclear Repulsion Energy =            645.5006903047789137
    One-Electron Energy =               -2986.0150906993967510
    Two-Electron Energy =                1340.0088730156235215
    Total Energy =                      -1000.5055273789944295
  Basis Set: (AUG-CC-PVTZ AUX)
    Blend: AUG-CC-PVTZ-RI + DEF2-QZVPP-RI
    Molecular point group: c1

    Geometry (in Angstrom), charge = 0, multiplicity = 1:

       Center              X                  Y                   Z               Mass
    ------------   -----------------  -----------------  -----------------  -----------------
         I           -2.097899079078    -0.002334980396     0.073792382690   126.904471900000
         I            0.939196920922    -1.784576980396    -0.332004617310   126.904471900000
         I            0.939184920922     1.779928019604    -0.332003617310   126.904471900000
         C            0.188754920922    -0.002327980396     2.058034382690    12.000000000000
         C            0.076090820922     0.079488819604     0.494500982690    12.000000000000
         C            1.617616920922    -0.002325980396     2.590809382690    12.000000000000
         H           -0.345885079078     0.879793019604     2.427254382690     1.007825032230
         H           -0.345882079078    -0.884450980396     2.427254382690     1.007825032230
         H            2.166976920922    -0.888513980396     2.270230382690     1.007825032230
         H            1.585076920922    -0.002321980396     3.683590382690     1.007825032230
         H            2.166976920922     0.883860019604     2.270224382690     1.007825032230

  Basis Set: AUG-CC-PVTZ
    Blend: AUG-CC-PVTZ
  Basis Set: (AUG-CC-PVTZ AUX)
    Blend: AUG-CC-PVTZ-JKFIT + DEF2-UNIVERSAL-JKFIT
	 Reference Energy          =   -1000.5055273789943158 [Eh]
	 Singles Energy            =      -0.0000000000000000 [Eh]
	 Same-Spin Energy          =      -0.3705467990077649 [Eh]
	 Opposite-Spin Energy      =      -0.9895010847907206 [Eh]
	 Correlation Energy        =      -1.3600478837984855 [Eh]
	 Total Energy              =   -1001.8655752627928450 [Eh]

	 ================> DF-SCS-MP2 Energies <==================
	-----------------------------------------------------------
	 SCS Same-Spin Scale       =       0.3333333333333333 [-]
	 SCS Opposite-Spin Scale   =       1.2000000000000000 [-]
	 SCS Same-Spin Energy      =      -0.1235155996692550 [Eh]
	 SCS Opposite-Spin Energy  =      -1.1874013017488647 [Eh]
	 SCS Correlation Energy    =      -1.3109169014181197 [Eh]
	 SCS Total Energy          =   -1001.8164442804123837 [Eh]
	-----------------------------------------------------------

  Dipole Moment: [D]
     X:     0.5311      Y:     0.3141      Z:     1.4309     Total:     1.5583

*** Psi4 exiting successfully. Buy a developer a beer!
