                               Psi4 1.4a3.dev225

  ==> Input File <==

--------------------------------------------------------------------------
#psi4
#
memory 32 gb

molecule  {
0 1
  I       -2.1233850    -0.0000070     0.0029360
  I        0.9137110    -1.7822490    -0.4028610
  I        0.8712657     1.7308803    -0.5395279
  C        0.1632690     0.0000000     1.9871780
  C        0.0090770     0.0000000     0.4634120
  C        1.5921310     0.0000020     2.5199530
  H       -0.3713710     0.8821210     2.3563980
  H       -0.3713680    -0.8821230     2.3563980
  H        2.1414910    -0.8861860     2.1993740
  H        1.5595910     0.0000060     3.6127340
  H        2.1414910     0.8861880     2.1993680
units angstrom
no_reorient  #important for SAPT in psi4, default
symmetry c1  #important for SAPT in psi4, default
}

set PROPERTIES_ORIGIN ["COM"]
properties('MP2/aug-cc-pvtz', properties = ['dipole'])
--------------------------------------------------------------------------

    Molecular point group: c1
  Charge       = 0
  Multiplicity = 1
  Basis Set: AUG-CC-PVTZ
    Blend: AUG-CC-PVTZ
  Basis Set: (AUG-CC-PVTZ AUX)
    Blend: AUG-CC-PVTZ-JKFIT + DEF2-UNIVERSAL-JKFIT

    Orbital Energies [Eh]
    ---------------------

    Doubly Occupied:

       1A    -11.391575     2A    -11.267248     3A    -11.232900
       4A     -7.734357     5A     -7.732856     6A     -7.732854
       7A     -5.566907     8A     -5.565360     9A     -5.565327
      10A     -5.555921    11A     -5.555797    12A     -5.554451
      13A     -5.554405    14A     -5.554370    15A     -5.554355
      16A     -2.296403    17A     -2.294896    18A     -2.294730
      19A     -2.291308    20A     -2.291193    21A     -2.289770
      22A     -2.289763    23A     -2.289718    24A     -2.289644
      25A     -2.278991    26A     -2.278980    27A     -2.277607
      28A     -2.277595    29A     -2.277544    30A     -2.277536
      31A     -1.110568    32A     -0.994395    33A     -0.900543
      34A     -0.895660    35A     -0.875459    36A     -0.735864
      37A     -0.646651    38A     -0.606336    39A     -0.566928
      40A     -0.538541    41A     -0.516462    42A     -0.472585
      43A     -0.465381    44A     -0.396082    45A     -0.395825
      46A     -0.389925    47A     -0.360738    48A     -0.359622
      49A     -0.349415

  @DF-RHF Final Energy: -1000.50931404927610

   => Energetics <=

    Nuclear Repulsion Energy =            646.0795717370441480
    One-Electron Energy =               -2987.1950925902374365
    Two-Electron Energy =                1340.6062068039170754
    Total Energy =                      -1000.5093140492760995
  Basis Set: (AUG-CC-PVTZ AUX)
    Blend: AUG-CC-PVTZ-RI + DEF2-QZVPP-RI
    Molecular point group: c1

    Geometry (in Angstrom), charge = 0, multiplicity = 1:

       Center              X                  Y                   Z               Mass
    ------------   -----------------  -----------------  -----------------  -----------------
         I           -2.083949405377     0.015451771195     0.113783982600   126.904471900000
         I            0.953146594623    -1.766790228805    -0.292013017400   126.904471900000
         I            0.910701294623     1.746339071195    -0.428679917400   126.904471900000
         C            0.202704594623     0.015458771195     2.098025982600    12.000000000000
         C            0.048512594623     0.015458771195     0.574259982600    12.000000000000
         C            1.631566594623     0.015460771195     2.630800982600    12.000000000000
         H           -0.331935405377     0.897579771195     2.467245982600     1.007825032230
         H           -0.331932405377    -0.866664228805     2.467245982600     1.007825032230
         H            2.180926594623    -0.870727228805     2.310221982600     1.007825032230
         H            1.599026594623     0.015464771195     3.723581982600     1.007825032230
         H            2.180926594623     0.901646771195     2.310215982600     1.007825032230

  Basis Set: AUG-CC-PVTZ
    Blend: AUG-CC-PVTZ
  Basis Set: (AUG-CC-PVTZ AUX)
    Blend: AUG-CC-PVTZ-JKFIT + DEF2-UNIVERSAL-JKFIT
	 Reference Energy          =   -1000.5093140492760995 [Eh]
	 Singles Energy            =      -0.0000000000000000 [Eh]
	 Same-Spin Energy          =      -0.3702829665887019 [Eh]
	 Opposite-Spin Energy      =      -0.9890093689018252 [Eh]
	 Correlation Energy        =      -1.3592923354905271 [Eh]
	 Total Energy              =   -1001.8686063847666219 [Eh]

	 ================> DF-SCS-MP2 Energies <==================
	-----------------------------------------------------------
	 SCS Same-Spin Scale       =       0.3333333333333333 [-]
	 SCS Opposite-Spin Scale   =       1.2000000000000000 [-]
	 SCS Same-Spin Energy      =      -0.1234276555295673 [Eh]
	 SCS Opposite-Spin Energy  =      -1.1868112426821902 [Eh]
	 SCS Correlation Energy    =      -1.3102388982117574 [Eh]
	 SCS Total Energy          =   -1001.8195529474878640 [Eh]
	-----------------------------------------------------------

  Dipole Moment: [D]
     X:     0.3909      Y:     0.0522      Z:     1.4673     Total:     1.5193

*** Psi4 exiting successfully. Buy a developer a beer!
