                               Psi4 1.4a3.dev225

  ==> Input File <==

--------------------------------------------------------------------------
#psi4
#
memory 32 gb

molecule  {
0 1
  I       -2.1233850    -0.0000070     0.0029360
  I        0.9137110    -1.7822490    -0.4028610
  I        0.9136990     1.7822560    -0.4028600
  C        0.1632690     0.0000000     1.9871780
  C       -0.0116869    -0.0409084     0.4832957
  C        1.5921310     0.0000020     2.5199530
  H       -0.3713710     0.8821210     2.3563980
  H       -0.3713680    -0.8821230     2.3563980
  H        2.1414910    -0.8861860     2.1993740
  H        1.5595910     0.0000060     3.6127340
  H        2.1414910     0.8861880     2.1993680
units angstrom
no_reorient  #important for SAPT in psi4, default
symmetry c1  #important for SAPT in psi4, default
}

set PROPERTIES_ORIGIN ["COM"]
properties('MP2/aug-cc-pvtz', properties = ['dipole'])
--------------------------------------------------------------------------

    Molecular point group: c1
  Charge       = 0
  Multiplicity = 1
  Basis Set: AUG-CC-PVTZ
    Blend: AUG-CC-PVTZ
  Basis Set: (AUG-CC-PVTZ AUX)
    Blend: AUG-CC-PVTZ-JKFIT + DEF2-UNIVERSAL-JKFIT

    Orbital Energies [Eh]
    ---------------------

    Doubly Occupied:

       1A    -11.392051     2A    -11.265230     3A    -11.232542
       4A     -7.735765     5A     -7.735560     6A     -7.729601
       7A     -5.568315     8A     -5.568142     9A     -5.561948
      10A     -5.557344    11A     -5.557232    12A     -5.557071
      13A     -5.557032    14A     -5.551226    15A     -5.551116
      16A     -2.297925    17A     -2.297655    18A     -2.292733
      19A     -2.292623    20A     -2.292492    21A     -2.292448
      22A     -2.291164    23A     -2.286400    24A     -2.286283
      25A     -2.280441    26A     -2.280429    27A     -2.280172
      28A     -2.280165    29A     -2.274381    30A     -2.274371
      31A     -1.114138    32A     -0.992584    33A     -0.902607
      34A     -0.892667    35A     -0.878308    36A     -0.735260
      37A     -0.647540    38A     -0.607187    39A     -0.567789
      40A     -0.539562    41A     -0.516804    42A     -0.470893
      43A     -0.462384    44A     -0.396865    45A     -0.393206
      46A     -0.389248    47A     -0.363534    48A     -0.359977
      49A     -0.350846

  @DF-RHF Final Energy: -1000.50873555109649

   => Energetics <=

    Nuclear Repulsion Energy =            645.1838451071133704
    One-Electron Energy =               -2985.3826462116830953
    Two-Electron Energy =                1339.6900655534730049
    Total Energy =                      -1000.5087355510966063
  Basis Set: (AUG-CC-PVTZ AUX)
    Blend: AUG-CC-PVTZ-RI + DEF2-QZVPP-RI
    Molecular point group: c1

    Geometry (in Angstrom), charge = 0, multiplicity = 1:

       Center              X                  Y                   Z               Mass
    ------------   -----------------  -----------------  -----------------  -----------------
         I           -2.096126708961     0.001156883333     0.072095147628   126.904471900000
         I            0.940969291039    -1.781085116667    -0.333701852372   126.904471900000
         I            0.940957291039     1.783419883333    -0.333700852372   126.904471900000
         C            0.190527291039     0.001163883333     2.056337147628    12.000000000000
         C            0.015571391039    -0.039744516667     0.552454847628    12.000000000000
         C            1.619389291039     0.001165883333     2.589112147628    12.000000000000
         H           -0.344112708961     0.883284883333     2.425557147628     1.007825032230
         H           -0.344109708961    -0.880959116667     2.425557147628     1.007825032230
         H            2.168749291039    -0.885022116667     2.268533147628     1.007825032230
         H            1.586849291039     0.001169883333     3.681893147628     1.007825032230
         H            2.168749291039     0.887351883333     2.268527147628     1.007825032230

  Basis Set: AUG-CC-PVTZ
    Blend: AUG-CC-PVTZ
  Basis Set: (AUG-CC-PVTZ AUX)
    Blend: AUG-CC-PVTZ-JKFIT + DEF2-UNIVERSAL-JKFIT
	 Reference Energy          =   -1000.5087355510964926 [Eh]
	 Singles Energy            =      -0.0000000000000000 [Eh]
	 Same-Spin Energy          =      -0.3705508885910155 [Eh]
	 Opposite-Spin Energy      =      -0.9894486098637278 [Eh]
	 Correlation Energy        =      -1.3599994984547434 [Eh]
	 Total Energy              =   -1001.8687350495512192 [Eh]

	 ================> DF-SCS-MP2 Energies <==================
	-----------------------------------------------------------
	 SCS Same-Spin Scale       =       0.3333333333333333 [-]
	 SCS Opposite-Spin Scale   =       1.2000000000000000 [-]
	 SCS Same-Spin Energy      =      -0.1235169628636718 [Eh]
	 SCS Opposite-Spin Energy  =      -1.1873383318364734 [Eh]
	 SCS Correlation Energy    =      -1.3108552947001453 [Eh]
	 SCS Total Energy          =   -1001.8195908457965970 [Eh]
	-----------------------------------------------------------

  Dipole Moment: [D]
     X:     0.2853      Y:    -0.1588      Z:     1.4929     Total:     1.5282

*** Psi4 exiting successfully. Buy a developer a beer!
