                               Psi4 1.4a3.dev225

  ==> Input File <==

--------------------------------------------------------------------------
#psi4
#
memory 32 gb

molecule  {
0 1
  I       -2.1233850    -0.0000070     0.0029360
  I        0.9137110    -1.7822490    -0.4028610
  I        0.9034961     1.7702171    -0.4374490
  C        0.1632690     0.0000000     1.9871780
  C        0.0090770     0.0000000     0.4634120
  C        1.5921310     0.0000020     2.5199530
  H       -0.3713710     0.8821210     2.3563980
  H       -0.3713680    -0.8821230     2.3563980
  H        2.1414910    -0.8861860     2.1993740
  H        1.5595910     0.0000060     3.6127340
  H        2.1414910     0.8861880     2.1993680
units angstrom
no_reorient  #important for SAPT in psi4, default
symmetry c1  #important for SAPT in psi4, default
}

set PROPERTIES_ORIGIN ["COM"]
properties('MP2/aug-cc-pvtz', properties = ['dipole'])
--------------------------------------------------------------------------

    Molecular point group: c1
  Charge       = 0
  Multiplicity = 1
  Basis Set: AUG-CC-PVTZ
    Blend: AUG-CC-PVTZ
  Basis Set: (AUG-CC-PVTZ AUX)
    Blend: AUG-CC-PVTZ-JKFIT + DEF2-UNIVERSAL-JKFIT

    Orbital Energies [Eh]
    ---------------------

    Doubly Occupied:

       1A    -11.391386     2A    -11.266227     3A    -11.232234
       4A     -7.733978     5A     -7.733594     6A     -7.733515
       7A     -5.566482     8A     -5.566081     9A     -5.566032
      10A     -5.555562    11A     -5.555455    12A     -5.555187
      13A     -5.555088    14A     -5.555045    15A     -5.555008
      16A     -2.295999    17A     -2.295580    18A     -2.295430
      19A     -2.290901    20A     -2.290794    21A     -2.290504
      22A     -2.290440    23A     -2.290388    24A     -2.290334
      25A     -2.278670    26A     -2.278660    27A     -2.278314
      28A     -2.278303    29A     -2.278172    30A     -2.278167
      31A     -1.110858    32A     -0.993061    33A     -0.900232
      34A     -0.896791    35A     -0.875281    36A     -0.735438
      37A     -0.646378    38A     -0.606148    39A     -0.566386
      40A     -0.538841    41A     -0.515306    42A     -0.471838
      43A     -0.465411    44A     -0.395474    45A     -0.394571
      46A     -0.389224    47A     -0.362214    48A     -0.361386
      49A     -0.350773

  @DF-RHF Final Energy: -1000.50992343874202

   => Energetics <=

    Nuclear Repulsion Energy =            645.4512292140555019
    One-Electron Energy =               -2985.9280192366732081
    Two-Electron Energy =                1339.9668665838757988
    Total Energy =                      -1000.5099234387421347
  Basis Set: (AUG-CC-PVTZ AUX)
    Blend: AUG-CC-PVTZ-RI + DEF2-QZVPP-RI
    Molecular point group: c1

    Geometry (in Angstrom), charge = 0, multiplicity = 1:

       Center              X                  Y                   Z               Mass
    ------------   -----------------  -----------------  -----------------  -----------------
         I           -2.093647466431     0.003615409000     0.083068651591   126.904471900000
         I            0.943448533569    -1.778626591000    -0.322728348409   126.904471900000
         I            0.933233633569     1.773839509000    -0.357316348409   126.904471900000
         C            0.193006533569     0.003622409000     2.067310651591    12.000000000000
         C            0.038814533569     0.003622409000     0.543544651591    12.000000000000
         C            1.621868533569     0.003624409000     2.600085651591    12.000000000000
         H           -0.341633466431     0.885743409000     2.436530651591     1.007825032230
         H           -0.341630466431    -0.878500591000     2.436530651591     1.007825032230
         H            2.171228533569    -0.882563591000     2.279506651591     1.007825032230
         H            1.589328533569     0.003628409000     3.692866651591     1.007825032230
         H            2.171228533569     0.889810409000     2.279500651591     1.007825032230

  Basis Set: AUG-CC-PVTZ
    Blend: AUG-CC-PVTZ
  Basis Set: (AUG-CC-PVTZ AUX)
    Blend: AUG-CC-PVTZ-JKFIT + DEF2-UNIVERSAL-JKFIT
	 Reference Energy          =   -1000.5099234387420211 [Eh]
	 Singles Energy            =      -0.0000000000000000 [Eh]
	 Same-Spin Energy          =      -0.3703623480669397 [Eh]
	 Opposite-Spin Energy      =      -0.9891828235460174 [Eh]
	 Correlation Energy        =      -1.3595451716129572 [Eh]
	 Total Energy              =   -1001.8694686103549429 [Eh]

	 ================> DF-SCS-MP2 Energies <==================
	-----------------------------------------------------------
	 SCS Same-Spin Scale       =       0.3333333333333333 [-]
	 SCS Opposite-Spin Scale   =       1.2000000000000000 [-]
	 SCS Same-Spin Energy      =      -0.1234541160223132 [Eh]
	 SCS Opposite-Spin Energy  =      -1.1870193882552209 [Eh]
	 SCS Correlation Energy    =      -1.3104735042775342 [Eh]
	 SCS Total Energy          =   -1001.8203969430195457 [Eh]
	-----------------------------------------------------------

  Dipole Moment: [D]
     X:     0.3727      Y:     0.0136      Z:     1.4674     Total:     1.5141

*** Psi4 exiting successfully. Buy a developer a beer!
