                               Psi4 1.4a3.dev225

  ==> Input File <==

--------------------------------------------------------------------------
#psi4
#
memory 32 gb

molecule  {
0 1
  I       -2.1233850    -0.0000070     0.0029360
  I        0.9137110    -1.7822490    -0.4028610
  I        0.9690266     1.8429722    -0.1901587
  C        0.1632690     0.0000000     1.9871780
  C        0.0090770     0.0000000     0.4634120
  C        1.5921310     0.0000020     2.5199530
  H       -0.3713710     0.8821210     2.3563980
  H       -0.3713680    -0.8821230     2.3563980
  H        2.1414910    -0.8861860     2.1993740
  H        1.5595910     0.0000060     3.6127340
  H        2.1414910     0.8861880     2.1993680
units angstrom
no_reorient  #important for SAPT in psi4, default
symmetry c1  #important for SAPT in psi4, default
}

set PROPERTIES_ORIGIN ["COM"]
properties('MP2/aug-cc-pvtz', properties = ['dipole'])
--------------------------------------------------------------------------

    Molecular point group: c1
  Charge       = 0
  Multiplicity = 1
  Basis Set: AUG-CC-PVTZ
    Blend: AUG-CC-PVTZ
  Basis Set: (AUG-CC-PVTZ AUX)
    Blend: AUG-CC-PVTZ-JKFIT + DEF2-UNIVERSAL-JKFIT

    Orbital Energies [Eh]
    ---------------------

    Doubly Occupied:

       1A    -11.390667     2A    -11.263985     3A    -11.230469
       4A     -7.735318     5A     -7.735057     6A     -7.732888
       7A     -5.567843     8A     -5.567608     9A     -5.565343
      10A     -5.556899    11A     -5.556757    12A     -5.556560
      13A     -5.556516    14A     -5.554533    15A     -5.554378
      16A     -2.297337    17A     -2.297030    18A     -2.294822
      19A     -2.292248    20A     -2.292110    21A     -2.291943
      22A     -2.291893    23A     -2.289831    24A     -2.289657
      25A     -2.279958    26A     -2.279950    27A     -2.279640
      28A     -2.279638    29A     -2.277670    30A     -2.277653
      31A     -1.112230    32A     -0.990078    33A     -0.899793
      34A     -0.899540    35A     -0.874565    36A     -0.734553
      37A     -0.646006    38A     -0.606075    39A     -0.565279
      40A     -0.540332    41A     -0.512806    42A     -0.470345
      43A     -0.464527    44A     -0.395365    45A     -0.392293
      46A     -0.385465    47A     -0.366111    48A     -0.363889
      49A     -0.353265

  @DF-RHF Final Energy: -1000.50649141126542

   => Energetics <=

    Nuclear Repulsion Energy =            644.7784546081462622
    One-Electron Energy =               -2984.5524537259325371
    Two-Electron Energy =                1339.2675077065209734
    Total Energy =                      -1000.5064914112654151
  Basis Set: (AUG-CC-PVTZ AUX)
    Blend: AUG-CC-PVTZ-RI + DEF2-QZVPP-RI
    Molecular point group: c1

    Geometry (in Angstrom), charge = 0, multiplicity = 1:

       Center              X                  Y                   Z               Mass
    ------------   -----------------  -----------------  -----------------  -----------------
         I           -2.113365459070    -0.018276450915     0.008659509055   126.904471900000
         I            0.923730540930    -1.800518450915    -0.397137490945   126.904471900000
         I            0.979046140930     1.824702749085    -0.184435190945   126.904471900000
         C            0.173288540930    -0.018269450915     1.992901509055    12.000000000000
         C            0.019096540930    -0.018269450915     0.469135509055    12.000000000000
         C            1.602150540930    -0.018267450915     2.525676509055    12.000000000000
         H           -0.361351459070     0.863851549085     2.362121509055     1.007825032230
         H           -0.361348459070    -0.900392450915     2.362121509055     1.007825032230
         H            2.151510540930    -0.904455450915     2.205097509055     1.007825032230
         H            1.569610540930    -0.018263450915     3.618457509055     1.007825032230
         H            2.151510540930     0.867918549085     2.205091509055     1.007825032230

  Basis Set: AUG-CC-PVTZ
    Blend: AUG-CC-PVTZ
  Basis Set: (AUG-CC-PVTZ AUX)
    Blend: AUG-CC-PVTZ-JKFIT + DEF2-UNIVERSAL-JKFIT
	 Reference Energy          =   -1000.5064914112654151 [Eh]
	 Singles Energy            =      -0.0000000000000000 [Eh]
	 Same-Spin Energy          =      -0.3709512802743808 [Eh]
	 Opposite-Spin Energy      =      -0.9902125439136246 [Eh]
	 Correlation Energy        =      -1.3611638241880053 [Eh]
	 Total Energy              =   -1001.8676552354534124 [Eh]

	 ================> DF-SCS-MP2 Energies <==================
	-----------------------------------------------------------
	 SCS Same-Spin Scale       =       0.3333333333333333 [-]
	 SCS Opposite-Spin Scale   =       1.2000000000000000 [-]
	 SCS Same-Spin Energy      =      -0.1236504267581269 [Eh]
	 SCS Opposite-Spin Energy  =      -1.1882550526963493 [Eh]
	 SCS Correlation Energy    =      -1.3119054794544762 [Eh]
	 SCS Total Energy          =   -1001.8183968907198960 [Eh]
	-----------------------------------------------------------

  Dipole Moment: [D]
     X:     0.3263      Y:    -0.0910      Z:     1.4697     Total:     1.5082

*** Psi4 exiting successfully. Buy a developer a beer!
