                               Psi4 1.4a3.dev225

  ==> Input File <==

--------------------------------------------------------------------------
#psi4
#
memory 32 gb

molecule  {
0 1
  I       -2.1233850    -0.0000070     0.0029360
  I        0.9137110    -1.7822490    -0.4028610
  I        0.9136990     1.7822560    -0.4028600
  C        0.1632690     0.0000000     1.9871780
  C        0.0380000    -0.0449144     0.4614230
  C        1.5921310     0.0000020     2.5199530
  H       -0.3713710     0.8821210     2.3563980
  H       -0.3713680    -0.8821230     2.3563980
  H        2.1414910    -0.8861860     2.1993740
  H        1.5595910     0.0000060     3.6127340
  H        2.1414910     0.8861880     2.1993680
units angstrom
no_reorient  #important for SAPT in psi4, default
symmetry c1  #important for SAPT in psi4, default
}

set PROPERTIES_ORIGIN ["COM"]
properties('MP2/aug-cc-pvtz', properties = ['dipole'])
--------------------------------------------------------------------------

    Molecular point group: c1
  Charge       = 0
  Multiplicity = 1
  Basis Set: AUG-CC-PVTZ
    Blend: AUG-CC-PVTZ
  Basis Set: (AUG-CC-PVTZ AUX)
    Blend: AUG-CC-PVTZ-JKFIT + DEF2-UNIVERSAL-JKFIT

    Orbital Energies [Eh]
    ---------------------

    Doubly Occupied:

       1A    -11.391615     2A    -11.266032     3A    -11.231870
       4A     -7.738101     5A     -7.731845     6A     -7.731433
       7A     -5.570723     8A     -5.564279     9A     -5.563880
      10A     -5.559678    11A     -5.559573    12A     -5.553444
      13A     -5.553335    14A     -5.552971    15A     -5.552933
      16A     -2.300501    17A     -2.295137    18A     -2.295026
      19A     -2.293637    20A     -2.293172    21A     -2.288709
      22A     -2.288600    23A     -2.288255    24A     -2.288217
      25A     -2.282780    26A     -2.282769    27A     -2.276567
      28A     -2.276559    29A     -2.276107    30A     -2.276102
      31A     -1.111491    32A     -0.992617    33A     -0.903494
      34A     -0.895255    35A     -0.873393    36A     -0.736235
      37A     -0.646461    38A     -0.606179    39A     -0.566090
      40A     -0.539003    41A     -0.515523    42A     -0.471624
      43A     -0.466091    44A     -0.398371    45A     -0.392052
      46A     -0.387116    47A     -0.364462    48A     -0.359983
      49A     -0.350803

  @DF-RHF Final Energy: -1000.50867545529627

   => Energetics <=

    Nuclear Repulsion Energy =            645.3139759084873504
    One-Electron Energy =               -2985.6451180246062904
    Two-Electron Energy =                1339.8224666608225562
    Total Energy =                      -1000.5086754552962702
  Basis Set: (AUG-CC-PVTZ AUX)
    Blend: AUG-CC-PVTZ-RI + DEF2-QZVPP-RI
    Molecular point group: c1

    Geometry (in Angstrom), charge = 0, multiplicity = 1:

       Center              X                  Y                   Z               Mass
    ------------   -----------------  -----------------  -----------------  -----------------
         I           -2.097540435595     0.001270864863     0.072717485076   126.904471900000
         I            0.939555564405    -1.780971135137    -0.333079514924   126.904471900000
         I            0.939543564405     1.783533864863    -0.333078514924   126.904471900000
         C            0.189113564405     0.001277864863     2.056959485076    12.000000000000
         C            0.063844564405    -0.043636535137     0.531204485076    12.000000000000
         C            1.617975564405     0.001279864863     2.589734485076    12.000000000000
         H           -0.345526435595     0.883398864863     2.426179485076     1.007825032230
         H           -0.345523435595    -0.880845135137     2.426179485076     1.007825032230
         H            2.167335564405    -0.884908135137     2.269155485076     1.007825032230
         H            1.585435564405     0.001283864863     3.682515485076     1.007825032230
         H            2.167335564405     0.887465864863     2.269149485076     1.007825032230

  Basis Set: AUG-CC-PVTZ
    Blend: AUG-CC-PVTZ
  Basis Set: (AUG-CC-PVTZ AUX)
    Blend: AUG-CC-PVTZ-JKFIT + DEF2-UNIVERSAL-JKFIT
	 Reference Energy          =   -1000.5086754552962702 [Eh]
	 Singles Energy            =      -0.0000000000000000 [Eh]
	 Same-Spin Energy          =      -0.3704911137168594 [Eh]
	 Opposite-Spin Energy      =      -0.9894166627433594 [Eh]
	 Correlation Energy        =      -1.3599077764602188 [Eh]
	 Total Energy              =   -1001.8685832317564746 [Eh]

	 ================> DF-SCS-MP2 Energies <==================
	-----------------------------------------------------------
	 SCS Same-Spin Scale       =       0.3333333333333333 [-]
	 SCS Opposite-Spin Scale   =       1.2000000000000000 [-]
	 SCS Same-Spin Energy      =      -0.1234970379056198 [Eh]
	 SCS Opposite-Spin Energy  =      -1.1872999952920311 [Eh]
	 SCS Correlation Energy    =      -1.3107970331976508 [Eh]
	 SCS Total Energy          =   -1001.8194724884939433 [Eh]
	-----------------------------------------------------------

  Dipole Moment: [D]
     X:     0.4706      Y:    -0.1746      Z:     1.4537     Total:     1.5379

*** Psi4 exiting successfully. Buy a developer a beer!
