                               Psi4 1.4a3.dev225

  ==> Input File <==

--------------------------------------------------------------------------
#psi4
#
memory 32 gb

molecule  {
0 1
  I       -2.1233850    -0.0000070     0.0029360
  I        0.9137110    -1.7822490    -0.4028610
  I        0.9517251     1.8249487    -0.2619717
  C        0.1632690     0.0000000     1.9871780
  C        0.0090770     0.0000000     0.4634120
  C        1.5921310     0.0000020     2.5199530
  H       -0.3713710     0.8821210     2.3563980
  H       -0.3713680    -0.8821230     2.3563980
  H        2.1414910    -0.8861860     2.1993740
  H        1.5595910     0.0000060     3.6127340
  H        2.1414910     0.8861880     2.1993680
units angstrom
no_reorient  #important for SAPT in psi4, default
symmetry c1  #important for SAPT in psi4, default
}

set PROPERTIES_ORIGIN ["COM"]
properties('MP2/aug-cc-pvtz', properties = ['dipole'])
--------------------------------------------------------------------------

    Molecular point group: c1
  Charge       = 0
  Multiplicity = 1
  Basis Set: AUG-CC-PVTZ
    Blend: AUG-CC-PVTZ
  Basis Set: (AUG-CC-PVTZ AUX)
    Blend: AUG-CC-PVTZ-JKFIT + DEF2-UNIVERSAL-JKFIT

    Orbital Energies [Eh]
    ---------------------

    Doubly Occupied:

       1A    -11.390913     2A    -11.264599     3A    -11.231005
       4A     -7.734826     5A     -7.734615     6A     -7.733232
       7A     -5.567339     8A     -5.567157     9A     -5.565692
      10A     -5.556412    11A     -5.556281    12A     -5.556125
      13A     -5.556088    14A     -5.554859    15A     -5.554727
      16A     -2.296845    17A     -2.296576    18A     -2.295162
      19A     -2.291751    20A     -2.291627    21A     -2.291499
      22A     -2.291453    23A     -2.290155    24A     -2.290006
      25A     -2.279489    26A     -2.279481    27A     -2.279221
      28A     -2.279218    29A     -2.277994    30A     -2.277980
      31A     -1.111719    32A     -0.990909    33A     -0.899869
      34A     -0.898756    35A     -0.874791    36A     -0.734786
      37A     -0.646064    38A     -0.606035    39A     -0.565562
      40A     -0.539762    41A     -0.513479    42A     -0.470748
      43A     -0.464907    44A     -0.395278    45A     -0.392880
      46A     -0.386768    47A     -0.365125    48A     -0.363253
      49A     -0.352639

  @DF-RHF Final Energy: -1000.50823267177714

   => Energetics <=

    Nuclear Repulsion Energy =            644.8555303402836216
    One-Electron Energy =               -2984.7162147433837163
    Two-Electron Energy =                1339.3524517313230717
    Total Energy =                      -1000.5082326717770229
  Basis Set: (AUG-CC-PVTZ AUX)
    Blend: AUG-CC-PVTZ-RI + DEF2-QZVPP-RI
    Molecular point group: c1

    Geometry (in Angstrom), charge = 0, multiplicity = 1:

       Center              X                  Y                   Z               Mass
    ------------   -----------------  -----------------  -----------------  -----------------
         I           -2.108159473313    -0.012853216844     0.030267893019   126.904471900000
         I            0.928936526687    -1.795095216844    -0.375529106981   126.904471900000
         I            0.966950626687     1.812102483156    -0.234639806981   126.904471900000
         C            0.178494526687    -0.012846216844     2.014509893019    12.000000000000
         C            0.024302526687    -0.012846216844     0.490743893019    12.000000000000
         C            1.607356526687    -0.012844216844     2.547284893019    12.000000000000
         H           -0.356145473313     0.869274783156     2.383729893019     1.007825032230
         H           -0.356142473313    -0.894969216844     2.383729893019     1.007825032230
         H            2.156716526687    -0.899032216844     2.226705893019     1.007825032230
         H            1.574816526687    -0.012840216844     3.640065893019     1.007825032230
         H            2.156716526687     0.873341783156     2.226699893019     1.007825032230

  Basis Set: AUG-CC-PVTZ
    Blend: AUG-CC-PVTZ
  Basis Set: (AUG-CC-PVTZ AUX)
    Blend: AUG-CC-PVTZ-JKFIT + DEF2-UNIVERSAL-JKFIT
	 Reference Energy          =   -1000.5082326717771366 [Eh]
	 Singles Energy            =      -0.0000000000000000 [Eh]
	 Same-Spin Energy          =      -0.3707217250725899 [Eh]
	 Opposite-Spin Energy      =      -0.9898231127595133 [Eh]
	 Correlation Energy        =      -1.3605448378321032 [Eh]
	 Total Energy              =   -1001.8687775096092309 [Eh]

	 ================> DF-SCS-MP2 Energies <==================
	-----------------------------------------------------------
	 SCS Same-Spin Scale       =       0.3333333333333333 [-]
	 SCS Opposite-Spin Scale   =       1.2000000000000000 [-]
	 SCS Same-Spin Energy      =      -0.1235739083575300 [Eh]
	 SCS Opposite-Spin Energy  =      -1.1877877353114159 [Eh]
	 SCS Correlation Energy    =      -1.3113616436689459 [Eh]
	 SCS Total Energy          =   -1001.8195943154461247 [Eh]
	-----------------------------------------------------------

  Dipole Moment: [D]
     X:     0.3401      Y:    -0.0588      Z:     1.4685     Total:     1.5085

*** Psi4 exiting successfully. Buy a developer a beer!
