                               Psi4 1.4a3.dev225

  ==> Input File <==

--------------------------------------------------------------------------
#psi4
#
memory 32 gb

molecule  {
0 1
  I       -2.1233850    -0.0000070     0.0029360
  I        0.9137110    -1.7822490    -0.4028610
  I        0.9136990     1.7822560    -0.4028600
  C        0.1632690     0.0000000     1.9871780
  C        0.0090770     0.0000000     0.4634120
  C        1.5921310     0.0000020     2.5199530
  H       -0.3713710     0.8821210     2.3563980
  H       -0.3713680    -0.8821230     2.3563980
  H        2.1414910    -0.8861860     2.1993740
  H        1.5655438     0.0000053     3.4128226
  H        2.1414910     0.8861880     2.1993680
units angstrom
no_reorient  #important for SAPT in psi4, default
symmetry c1  #important for SAPT in psi4, default
}

set PROPERTIES_ORIGIN ["COM"]
properties('MP2/aug-cc-pvtz', properties = ['dipole'])
--------------------------------------------------------------------------

    Molecular point group: c1
  Charge       = 0
  Multiplicity = 1
  Basis Set: AUG-CC-PVTZ
    Blend: AUG-CC-PVTZ
  Basis Set: (AUG-CC-PVTZ AUX)
    Blend: AUG-CC-PVTZ-JKFIT + DEF2-UNIVERSAL-JKFIT

    Orbital Energies [Eh]
    ---------------------

    Doubly Occupied:

       1A    -11.390706     2A    -11.264921     3A    -11.207460
       4A     -7.733230     5A     -7.733228     6A     -7.733096
       7A     -5.565724     8A     -5.565720     9A     -5.565599
      10A     -5.554829    11A     -5.554825    12A     -5.554711
      13A     -5.554707    14A     -5.554632    15A     -5.554599
      16A     -2.295336    17A     -2.295113    18A     -2.295000
      19A     -2.290190    20A     -2.290116    21A     -2.290047
      22A     -2.290046    23A     -2.289958    24A     -2.289907
      25A     -2.277940    26A     -2.277932    27A     -2.277928
      28A     -2.277925    29A     -2.277767    30A     -2.277762
      31A     -1.113808    32A     -1.006894    33A     -0.902254
      34A     -0.896540    35A     -0.885708    36A     -0.734765
      37A     -0.645430    38A     -0.636384    39A     -0.564958
      40A     -0.537639    41A     -0.529220    42A     -0.470967
      43A     -0.464803    44A     -0.394752    45A     -0.393579
      46A     -0.388318    47A     -0.362250    48A     -0.361213
      49A     -0.350601

  @DF-RHF Final Energy: -1000.47552755078732

   => Energetics <=

    Nuclear Repulsion Energy =            646.4840849660420190
    One-Electron Energy =               -2987.8771472690614246
    Two-Electron Energy =                1340.9175347522318589
    Total Energy =                      -1000.4755275507873193
  Basis Set: (AUG-CC-PVTZ AUX)
    Blend: AUG-CC-PVTZ-RI + DEF2-QZVPP-RI
    Molecular point group: c1

    Geometry (in Angstrom), charge = 0, multiplicity = 1:

       Center              X                  Y                   Z               Mass
    ------------   -----------------  -----------------  -----------------  -----------------
         I           -2.096731722935    -0.000007069570     0.073138603376   126.904471900000
         I            0.940364277065    -1.782249069570    -0.332658396624   126.904471900000
         I            0.940352277065     1.782255930430    -0.332657396624   126.904471900000
         C            0.189922277065    -0.000000069570     2.057380603376    12.000000000000
         C            0.035730277065    -0.000000069570     0.533614603376    12.000000000000
         C            1.618784277065     0.000001930430     2.590155603376    12.000000000000
         H           -0.344717722935     0.882120930430     2.426600603376     1.007825032230
         H           -0.344714722935    -0.882123069570     2.426600603376     1.007825032230
         H            2.168144277065    -0.886186069570     2.269576603376     1.007825032230
         H            1.592197077065     0.000005230430     3.483025203376     1.007825032230
         H            2.168144277065     0.886187930430     2.269570603376     1.007825032230

  Basis Set: AUG-CC-PVTZ
    Blend: AUG-CC-PVTZ
  Basis Set: (AUG-CC-PVTZ AUX)
    Blend: AUG-CC-PVTZ-JKFIT + DEF2-UNIVERSAL-JKFIT
	 Reference Energy          =   -1000.4755275507873193 [Eh]
	 Singles Energy            =      -0.0000000000000000 [Eh]
	 Same-Spin Energy          =      -0.3705272358457993 [Eh]
	 Opposite-Spin Energy      =      -0.9887072080880340 [Eh]
	 Correlation Energy        =      -1.3592344439338333 [Eh]
	 Total Energy              =   -1001.8347619947211342 [Eh]

	 ================> DF-SCS-MP2 Energies <==================
	-----------------------------------------------------------
	 SCS Same-Spin Scale       =       0.3333333333333333 [-]
	 SCS Opposite-Spin Scale   =       1.2000000000000000 [-]
	 SCS Same-Spin Energy      =      -0.1235090786152664 [Eh]
	 SCS Opposite-Spin Energy  =      -1.1864486497056408 [Eh]
	 SCS Correlation Energy    =      -1.3099577283209072 [Eh]
	 SCS Total Energy          =   -1001.7854852791082294 [Eh]
	-----------------------------------------------------------

  Dipole Moment: [D]
     X:     0.3991      Y:     0.0000      Z:     1.5533     Total:     1.6037

*** Psi4 exiting successfully. Buy a developer a beer!
