                               Psi4 1.4a3.dev225

  ==> Input File <==

--------------------------------------------------------------------------
#psi4
#
memory 32 gb

molecule  {
0 1
  I       -2.1233850    -0.0000070     0.0029360
  I        0.9137110    -1.7822490    -0.4028610
  I        0.9136990     1.7822560    -0.4028600
  C        0.1632690     0.0000000     1.9871780
  C        0.0962684    -0.1345244     0.4630218
  C        1.5921310     0.0000020     2.5199530
  H       -0.3713710     0.8821210     2.3563980
  H       -0.3713680    -0.8821230     2.3563980
  H        2.1414910    -0.8861860     2.1993740
  H        1.5595910     0.0000060     3.6127340
  H        2.1414910     0.8861880     2.1993680
units angstrom
no_reorient  #important for SAPT in psi4, default
symmetry c1  #important for SAPT in psi4, default
}

set PROPERTIES_ORIGIN ["COM"]
properties('MP2/aug-cc-pvtz', properties = ['dipole'])
--------------------------------------------------------------------------

    Molecular point group: c1
  Charge       = 0
  Multiplicity = 1
  Basis Set: AUG-CC-PVTZ
    Blend: AUG-CC-PVTZ
  Basis Set: (AUG-CC-PVTZ AUX)
    Blend: AUG-CC-PVTZ-JKFIT + DEF2-UNIVERSAL-JKFIT

    Orbital Energies [Eh]
    ---------------------

    Doubly Occupied:

       1A    -11.394119     2A    -11.267423     3A    -11.232046
       4A     -7.746226     5A     -7.727944     6A     -7.726761
       7A     -5.579059     8A     -5.567833     9A     -5.567733
      10A     -5.560273    11A     -5.559059    12A     -5.549560
      13A     -5.549431    14A     -5.548333    15A     -5.548284
      16A     -2.309598    17A     -2.303494    18A     -2.303384
      19A     -2.290996    20A     -2.290984    21A     -2.289382
      22A     -2.288099    23A     -2.284719    24A     -2.284587
      25A     -2.283465    26A     -2.283417    27A     -2.272690
      28A     -2.272684    29A     -2.271508    30A     -2.271501
      31A     -1.114504    32A     -0.996658    33A     -0.911264
      34A     -0.888831    35A     -0.869792    36A     -0.738593
      37A     -0.647241    38A     -0.607889    39A     -0.567110
      40A     -0.539249    41A     -0.519904    42A     -0.473588
      43A     -0.466747    44A     -0.403065    45A     -0.386764
      46A     -0.382041    47A     -0.366632    48A     -0.356472
      49A     -0.348144

  @DF-RHF Final Energy: -1000.49863176465055

   => Energetics <=

    Nuclear Repulsion Energy =            645.3687775111541214
    One-Electron Energy =               -2985.7166632070611740
    Two-Electron Energy =                1339.8492539312567260
    Total Energy =                      -1000.4986317646505540
  Basis Set: (AUG-CC-PVTZ AUX)
    Blend: AUG-CC-PVTZ-RI + DEF2-QZVPP-RI
    Molecular point group: c1

    Geometry (in Angstrom), charge = 0, multiplicity = 1:

       Center              X                  Y                   Z               Mass
    ------------   -----------------  -----------------  -----------------  -----------------
         I           -2.099198329104     0.003820511625     0.072671994893   126.904471900000
         I            0.937897670896    -1.778421488375    -0.333125005107   126.904471900000
         I            0.937885670896     1.786083511625    -0.333124005107   126.904471900000
         C            0.187455670896     0.003827511625     2.056913994893    12.000000000000
         C            0.120455070896    -0.130696888375     0.532757794893    12.000000000000
         C            1.616317670896     0.003829511625     2.589688994893    12.000000000000
         H           -0.347184329104     0.885948511625     2.426133994893     1.007825032230
         H           -0.347181329104    -0.878295488375     2.426133994893     1.007825032230
         H            2.165677670896    -0.882358488375     2.269109994893     1.007825032230
         H            1.583777670896     0.003833511625     3.682469994893     1.007825032230
         H            2.165677670896     0.890015511625     2.269103994893     1.007825032230

  Basis Set: AUG-CC-PVTZ
    Blend: AUG-CC-PVTZ
  Basis Set: (AUG-CC-PVTZ AUX)
    Blend: AUG-CC-PVTZ-JKFIT + DEF2-UNIVERSAL-JKFIT
	 Reference Energy          =   -1000.4986317646505540 [Eh]
	 Singles Energy            =      -0.0000000000000000 [Eh]
	 Same-Spin Energy          =      -0.3711865345420949 [Eh]
	 Opposite-Spin Energy      =      -0.9904518420542623 [Eh]
	 Correlation Energy        =      -1.3616383765963573 [Eh]
	 Total Energy              =   -1001.8602701412469287 [Eh]

	 ================> DF-SCS-MP2 Energies <==================
	-----------------------------------------------------------
	 SCS Same-Spin Scale       =       0.3333333333333333 [-]
	 SCS Opposite-Spin Scale   =       1.2000000000000000 [-]
	 SCS Same-Spin Energy      =      -0.1237288448473650 [Eh]
	 SCS Opposite-Spin Energy  =      -1.1885422104651147 [Eh]
	 SCS Correlation Energy    =      -1.3122710553124797 [Eh]
	 SCS Total Energy          =   -1001.8109028199630757 [Eh]
	-----------------------------------------------------------

  Dipole Moment: [D]
     X:     0.6939      Y:    -0.5455      Z:     1.4356     Total:     1.6852

*** Psi4 exiting successfully. Buy a developer a beer!
