                               Psi4 1.4a3.dev225

  ==> Input File <==

--------------------------------------------------------------------------
#psi4
#
memory 32 gb

molecule  {
0 1
  I       -2.1233850    -0.0000070     0.0029360
  I        0.9137110    -1.7822490    -0.4028610
  I        0.9136990     1.7822560    -0.4028600
  C        0.1632690     0.0000000     1.9871780
  C        0.0070635     0.0000000     0.4435136
  C        1.5921310     0.0000020     2.5199530
  H       -0.3713710     0.8821210     2.3563980
  H       -0.3713680    -0.8821230     2.3563980
  H        2.1414910    -0.8861860     2.1993740
  H        1.5595910     0.0000060     3.6127340
  H        2.1414910     0.8861880     2.1993680
units angstrom
no_reorient  #important for SAPT in psi4, default
symmetry c1  #important for SAPT in psi4, default
}

set PROPERTIES_ORIGIN ["COM"]
properties('MP2/aug-cc-pvtz', properties = ['dipole'])
--------------------------------------------------------------------------

    Molecular point group: c1
  Charge       = 0
  Multiplicity = 1
  Basis Set: AUG-CC-PVTZ
    Blend: AUG-CC-PVTZ
  Basis Set: (AUG-CC-PVTZ AUX)
    Blend: AUG-CC-PVTZ-JKFIT + DEF2-UNIVERSAL-JKFIT

    Orbital Energies [Eh]
    ---------------------

    Doubly Occupied:

       1A    -11.390774     2A    -11.266916     3A    -11.231660
       4A     -7.734020     5A     -7.734018     6A     -7.733804
       7A     -5.566519     8A     -5.566514     9A     -5.566329
      10A     -5.555617    11A     -5.555613    12A     -5.555514
      13A     -5.555510    14A     -5.555332    15A     -5.555304
      16A     -2.296161    17A     -2.295941    18A     -2.295770
      19A     -2.290981    20A     -2.290907    21A     -2.290849
      22A     -2.290840    23A     -2.290687    24A     -2.290647
      25A     -2.278742    26A     -2.278735    27A     -2.278730
      28A     -2.278728    29A     -2.278463    30A     -2.278459
      31A     -1.107631    32A     -0.993649    33A     -0.900222
      34A     -0.897878    35A     -0.873377    36A     -0.734652
      37A     -0.644939    38A     -0.605236    39A     -0.564976
      40A     -0.538389    41A     -0.513105    42A     -0.473662
      43A     -0.467327    44A     -0.395408    45A     -0.394122
      46A     -0.387356    47A     -0.363383    48A     -0.362348
      49A     -0.351339

  @DF-RHF Final Energy: -1000.50979810340073

   => Energetics <=

    Nuclear Repulsion Energy =            645.3757012219497256
    One-Electron Energy =               -2985.7768322609540519
    Two-Electron Energy =                1339.8913329356034865
    Total Energy =                      -1000.5097981034007262
  Basis Set: (AUG-CC-PVTZ AUX)
    Blend: AUG-CC-PVTZ-RI + DEF2-QZVPP-RI
    Molecular point group: c1

    Geometry (in Angstrom), charge = 0, multiplicity = 1:

       Center              X                  Y                   Z               Mass
    ------------   -----------------  -----------------  -----------------  -----------------
         I           -2.096660208533    -0.000007071243     0.073227055924   126.904471900000
         I            0.940435791467    -1.782249071243    -0.332569944076   126.904471900000
         I            0.940423791467     1.782255928757    -0.332568944076   126.904471900000
         C            0.189993791467    -0.000000071243     2.057469055924    12.000000000000
         C            0.033788291467    -0.000000071243     0.513804655924    12.000000000000
         C            1.618855791467     0.000001928757     2.590244055924    12.000000000000
         H           -0.344646208533     0.882120928757     2.426689055924     1.007825032230
         H           -0.344643208533    -0.882123071243     2.426689055924     1.007825032230
         H            2.168215791467    -0.886186071243     2.269665055924     1.007825032230
         H            1.586315791467     0.000005928757     3.683025055924     1.007825032230
         H            2.168215791467     0.886187928757     2.269659055924     1.007825032230

  Basis Set: AUG-CC-PVTZ
    Blend: AUG-CC-PVTZ
  Basis Set: (AUG-CC-PVTZ AUX)
    Blend: AUG-CC-PVTZ-JKFIT + DEF2-UNIVERSAL-JKFIT
	 Reference Energy          =   -1000.5097981034007262 [Eh]
	 Singles Energy            =      -0.0000000000000000 [Eh]
	 Same-Spin Energy          =      -0.3703348477053519 [Eh]
	 Opposite-Spin Energy      =      -0.9891620633822538 [Eh]
	 Correlation Energy        =      -1.3594969110876056 [Eh]
	 Total Energy              =   -1001.8692950144883298 [Eh]

	 ================> DF-SCS-MP2 Energies <==================
	-----------------------------------------------------------
	 SCS Same-Spin Scale       =       0.3333333333333333 [-]
	 SCS Opposite-Spin Scale   =       1.2000000000000000 [-]
	 SCS Same-Spin Energy      =      -0.1234449492351173 [Eh]
	 SCS Opposite-Spin Energy  =      -1.1869944760587046 [Eh]
	 SCS Correlation Energy    =      -1.3104394252938218 [Eh]
	 SCS Total Energy          =   -1001.8202375286945198 [Eh]
	-----------------------------------------------------------

  Dipole Moment: [D]
     X:     0.3675      Y:     0.0000      Z:     1.4570     Total:     1.5026

*** Psi4 exiting successfully. Buy a developer a beer!
