                               Psi4 1.4a3.dev225

  ==> Input File <==

--------------------------------------------------------------------------
#psi4
#
memory 32 gb

molecule  {
0 1
  I       -2.1233850    -0.0000070     0.0029360
  I        0.9137110    -1.7822490    -0.4028610
  I        0.9136990     1.7822560    -0.4028600
  C        0.1632690     0.0000000     1.9871780
  C        0.0090770     0.0000000     0.4634120
  C        1.5921310     0.0000020     2.5199530
  H       -0.4689702     1.0431533     2.4237996
  H       -0.3713680    -0.8821230     2.3563980
  H        2.1414910    -0.8861860     2.1993740
  H        1.5595910     0.0000060     3.6127340
  H        2.1414910     0.8861880     2.1993680
units angstrom
no_reorient  #important for SAPT in psi4, default
symmetry c1  #important for SAPT in psi4, default
}

set PROPERTIES_ORIGIN ["COM"]
properties('MP2/aug-cc-pvtz', properties = ['dipole'])
--------------------------------------------------------------------------

    Molecular point group: c1
  Charge       = 0
  Multiplicity = 1
  Basis Set: AUG-CC-PVTZ
    Blend: AUG-CC-PVTZ
  Basis Set: (AUG-CC-PVTZ AUX)
    Blend: AUG-CC-PVTZ-JKFIT + DEF2-UNIVERSAL-JKFIT

    Orbital Energies [Eh]
    ---------------------

    Doubly Occupied:

       1A    -11.392214     2A    -11.287211     3A    -11.233860
       4A     -7.735048     5A     -7.733684     6A     -7.733471
       7A     -5.567573     8A     -5.566215     9A     -5.566041
      10A     -5.556627    11A     -5.556502    12A     -5.555236
      13A     -5.555164    14A     -5.554969    15A     -5.554930
      16A     -2.297062    17A     -2.295721    18A     -2.295471
      19A     -2.291987    20A     -2.291856    21A     -2.290598
      22A     -2.290538    23A     -2.290373    24A     -2.290339
      25A     -2.279714    26A     -2.279703    27A     -2.278345
      28A     -2.278335    29A     -2.278059    30A     -2.278053
      31A     -1.106343    32A     -0.992276    33A     -0.898382
      34A     -0.897475    35A     -0.870100    36A     -0.728378
      37A     -0.631109    38A     -0.604590    39A     -0.566790
      40A     -0.535333    41A     -0.511571    42A     -0.471568
      43A     -0.453320    44A     -0.395492    45A     -0.394411
      46A     -0.388900    47A     -0.362961    48A     -0.361858
      49A     -0.351339

  @DF-RHF Final Energy: -1000.48973191703544

   => Energetics <=

    Nuclear Repulsion Energy =            644.3070072648310997
    One-Electron Energy =               -2983.6392902564034557
    Two-Electron Energy =                1338.8425510745369138
    Total Energy =                      -1000.4897319170354422
  Basis Set: (AUG-CC-PVTZ AUX)
    Blend: AUG-CC-PVTZ-RI + DEF2-QZVPP-RI
    Molecular point group: c1

    Geometry (in Angstrom), charge = 0, multiplicity = 1:

       Center              X                  Y                   Z               Mass
    ------------   -----------------  -----------------  -----------------  -----------------
         I           -2.096484273809    -0.000391875998     0.072499828960   126.904471900000
         I            0.940611726191    -1.782633875998    -0.333297171040   126.904471900000
         I            0.940599726191     1.781871124002    -0.333296171040   126.904471900000
         C            0.190169726191    -0.000384875998     2.056741828960    12.000000000000
         C            0.035977726191    -0.000384875998     0.532975828960    12.000000000000
         C            1.619031726191    -0.000382875998     2.589516828960    12.000000000000
         H           -0.442069473809     1.042768424002     2.493363428960     1.007825032230
         H           -0.344467273809    -0.882507875998     2.425961828960     1.007825032230
         H            2.168391726191    -0.886570875998     2.268937828960     1.007825032230
         H            1.586491726191    -0.000378875998     3.682297828960     1.007825032230
         H            2.168391726191     0.885803124002     2.268931828960     1.007825032230

  Basis Set: AUG-CC-PVTZ
    Blend: AUG-CC-PVTZ
  Basis Set: (AUG-CC-PVTZ AUX)
    Blend: AUG-CC-PVTZ-JKFIT + DEF2-UNIVERSAL-JKFIT
	 Reference Energy          =   -1000.4897319170354422 [Eh]
	 Singles Energy            =      -0.0000000000000000 [Eh]
	 Same-Spin Energy          =      -0.3708483098742926 [Eh]
	 Opposite-Spin Energy      =      -0.9911769153413769 [Eh]
	 Correlation Energy        =      -1.3620252252156695 [Eh]
	 Total Energy              =   -1001.8517571422511310 [Eh]

	 ================> DF-SCS-MP2 Energies <==================
	-----------------------------------------------------------
	 SCS Same-Spin Scale       =       0.3333333333333333 [-]
	 SCS Opposite-Spin Scale   =       1.2000000000000000 [-]
	 SCS Same-Spin Energy      =      -0.1236161032914309 [Eh]
	 SCS Opposite-Spin Energy  =      -1.1894122984096522 [Eh]
	 SCS Correlation Energy    =      -1.3130284017010831 [Eh]
	 SCS Total Energy          =   -1001.8027603187365457 [Eh]
	-----------------------------------------------------------

  Dipole Moment: [D]
     X:     0.4264      Y:    -0.0582      Z:     1.4401     Total:     1.5031

*** Psi4 exiting successfully. Buy a developer a beer!
