                               Psi4 1.4a3.dev225

  ==> Input File <==

--------------------------------------------------------------------------
#psi4
#
memory 32 gb

molecule  {
0 1
  I       -2.1233850    -0.0000070     0.0029360
  I        0.9137110    -1.7822490    -0.4028610
  I        0.9136990     1.7822560    -0.4028600
  C        0.1632690     0.0000000     1.9871780
  C        0.0090770     0.0000000     0.4634120
  C        1.5921310     0.0000020     2.5199530
  H       -0.3811309     0.8982242     2.3631382
  H       -0.3713680    -0.8821230     2.3563980
  H        2.1414910    -0.8861860     2.1993740
  H        1.5595910     0.0000060     3.6127340
  H        2.1414910     0.8861880     2.1993680
units angstrom
no_reorient  #important for SAPT in psi4, default
symmetry c1  #important for SAPT in psi4, default
}

set PROPERTIES_ORIGIN ["COM"]
properties('MP2/aug-cc-pvtz', properties = ['dipole'])
--------------------------------------------------------------------------

    Molecular point group: c1
  Charge       = 0
  Multiplicity = 1
  Basis Set: AUG-CC-PVTZ
    Blend: AUG-CC-PVTZ
  Basis Set: (AUG-CC-PVTZ AUX)
    Blend: AUG-CC-PVTZ-JKFIT + DEF2-UNIVERSAL-JKFIT

    Orbital Energies [Eh]
    ---------------------

    Doubly Occupied:

       1A    -11.391384     2A    -11.268185     3A    -11.232152
       4A     -7.733932     5A     -7.733820     6A     -7.733704
       7A     -5.566425     8A     -5.566314     9A     -5.566230
      10A     -5.555523    11A     -5.555415    12A     -5.555408
      13A     -5.555305    14A     -5.555226    15A     -5.555193
      16A     -2.295994    17A     -2.295753    18A     -2.295633
      19A     -2.290860    20A     -2.290748    21A     -2.290723
      22A     -2.290652    23A     -2.290578    24A     -2.290530
      25A     -2.278637    26A     -2.278627    27A     -2.278524
      28A     -2.278514    29A     -2.278347    30A     -2.278342
      31A     -1.110288    32A     -0.992514    33A     -0.899858
      34A     -0.897189    35A     -0.874507    36A     -0.734285
      37A     -0.644516    38A     -0.606013    39A     -0.566226
      40A     -0.538568    41A     -0.514617    42A     -0.471484
      43A     -0.464525    44A     -0.395367    45A     -0.394209
      46A     -0.388861    47A     -0.362822    48A     -0.361808
      49A     -0.351191

  @DF-RHF Final Energy: -1000.50931616540174

   => Energetics <=

    Nuclear Repulsion Energy =            645.1812266329394561
    One-Electron Energy =               -2985.3900306458544947
    Two-Electron Energy =                1339.6994878475134101
    Total Energy =                      -1000.5093161654017422
  Basis Set: (AUG-CC-PVTZ AUX)
    Blend: AUG-CC-PVTZ-RI + DEF2-QZVPP-RI
    Molecular point group: c1

    Geometry (in Angstrom), charge = 0, multiplicity = 1:

       Center              X                  Y                   Z               Mass
    ------------   -----------------  -----------------  -----------------  -----------------
         I           -2.096694175675    -0.000045551647     0.072644786184   126.904471900000
         I            0.940401824325    -1.782287551647    -0.333152213816   126.904471900000
         I            0.940389824325     1.782217448353    -0.333151213816   126.904471900000
         C            0.189959824325    -0.000038551647     2.056886786184    12.000000000000
         C            0.035767824325    -0.000038551647     0.533120786184    12.000000000000
         C            1.618821824325    -0.000036551647     2.589661786184    12.000000000000
         H           -0.354440075675     0.898185648353     2.432846986184     1.007825032230
         H           -0.344677175675    -0.882161551647     2.426106786184     1.007825032230
         H            2.168181824325    -0.886224551647     2.269082786184     1.007825032230
         H            1.586281824325    -0.000032551647     3.682442786184     1.007825032230
         H            2.168181824325     0.886149448353     2.269076786184     1.007825032230

  Basis Set: AUG-CC-PVTZ
    Blend: AUG-CC-PVTZ
  Basis Set: (AUG-CC-PVTZ AUX)
    Blend: AUG-CC-PVTZ-JKFIT + DEF2-UNIVERSAL-JKFIT
	 Reference Energy          =   -1000.5093161654017422 [Eh]
	 Singles Energy            =      -0.0000000000000000 [Eh]
	 Same-Spin Energy          =      -0.3704514849053915 [Eh]
	 Opposite-Spin Energy      =      -0.9894275423109392 [Eh]
	 Correlation Energy        =      -1.3598790272163308 [Eh]
	 Total Energy              =   -1001.8691951926181218 [Eh]

	 ================> DF-SCS-MP2 Energies <==================
	-----------------------------------------------------------
	 SCS Same-Spin Scale       =       0.3333333333333333 [-]
	 SCS Opposite-Spin Scale   =       1.2000000000000000 [-]
	 SCS Same-Spin Energy      =      -0.1234838283017972 [Eh]
	 SCS Opposite-Spin Energy  =      -1.1873130507731271 [Eh]
	 SCS Correlation Energy    =      -1.3107968790749243 [Eh]
	 SCS Total Energy          =   -1001.8201130444766704 [Eh]
	-----------------------------------------------------------

  Dipole Moment: [D]
     X:     0.3712      Y:    -0.0041      Z:     1.4663     Total:     1.5126

*** Psi4 exiting successfully. Buy a developer a beer!
