                               Psi4 1.4a3.dev225

  ==> Input File <==

--------------------------------------------------------------------------
#psi4
#
memory 32 gb

molecule  {
0 1
  I       -2.1233850    -0.0000070     0.0029360
  I        0.9137110    -1.7822490    -0.4028610
  I        0.9136990     1.7822560    -0.4028600
  C        0.1632690     0.0000000     1.9871780
  C        0.0090770     0.0000000     0.4634120
  C        1.5921310     0.0000020     2.5199530
  H       -0.3713710     0.8821210     2.3563980
  H       -0.3713680    -0.8821230     2.3563980
  H        2.1414910    -0.8861860     2.1993740
  H        1.5610792     0.0000058     3.5627562
  H        2.1414910     0.8861880     2.1993680
units angstrom
no_reorient  #important for SAPT in psi4, default
symmetry c1  #important for SAPT in psi4, default
}

set PROPERTIES_ORIGIN ["COM"]
properties('MP2/aug-cc-pvtz', properties = ['dipole'])
--------------------------------------------------------------------------

    Molecular point group: c1
  Charge       = 0
  Multiplicity = 1
  Basis Set: AUG-CC-PVTZ
    Blend: AUG-CC-PVTZ
  Basis Set: (AUG-CC-PVTZ AUX)
    Blend: AUG-CC-PVTZ-JKFIT + DEF2-UNIVERSAL-JKFIT

    Orbital Energies [Eh]
    ---------------------

    Doubly Occupied:

       1A    -11.391100     2A    -11.265577     3A    -11.225898
       4A     -7.733646     5A     -7.733644     6A     -7.733531
       7A     -5.566138     8A     -5.566134     9A     -5.566047
      10A     -5.555241    11A     -5.555236    12A     -5.555131
      13A     -5.555127    14A     -5.555060    15A     -5.555025
      16A     -2.295757    17A     -2.295527    18A     -2.295443
      19A     -2.290600    20A     -2.290527    21A     -2.290472
      22A     -2.290472    23A     -2.290395    24A     -2.290342
      25A     -2.278357    26A     -2.278349    27A     -2.278345
      28A     -2.278342    29A     -2.278185    30A     -2.278180
      31A     -1.111349    32A     -0.995202    33A     -0.900321
      34A     -0.896974    35A     -0.877650    36A     -0.735114
      37A     -0.645992    38A     -0.612931    39A     -0.565774
      40A     -0.538507    41A     -0.519382    42A     -0.471421
      43A     -0.465174    44A     -0.395167    45A     -0.394002
      46A     -0.388671    47A     -0.362632    48A     -0.361620
      49A     -0.350997

  @DF-RHF Final Energy: -1000.50882573621118

   => Energetics <=

    Nuclear Repulsion Energy =            645.5590746867612779
    One-Electron Energy =               -2986.1343893553885209
    Two-Electron Energy =                1340.0664889324161777
    Total Energy =                      -1000.5088257362112927
  Basis Set: (AUG-CC-PVTZ AUX)
    Blend: AUG-CC-PVTZ-RI + DEF2-QZVPP-RI
    Molecular point group: c1

    Geometry (in Angstrom), charge = 0, multiplicity = 1:

       Center              X                  Y                   Z               Mass
    ------------   -----------------  -----------------  -----------------  -----------------
         I           -2.096721054272    -0.000007070765     0.072780320211   126.904471900000
         I            0.940374945728    -1.782249070765    -0.333016679789   126.904471900000
         I            0.940362945728     1.782255929235    -0.333015679789   126.904471900000
         C            0.189932945728    -0.000000070765     2.057022320211    12.000000000000
         C            0.035740945728    -0.000000070765     0.533256320211    12.000000000000
         C            1.618794945728     0.000001929235     2.589797320211    12.000000000000
         H           -0.344707054272     0.882120929235     2.426242320211     1.007825032230
         H           -0.344704054272    -0.882123070765     2.426242320211     1.007825032230
         H            2.168154945728    -0.886186070765     2.269218320211     1.007825032230
         H            1.587743145728     0.000005729235     3.632600520211     1.007825032230
         H            2.168154945728     0.886187929235     2.269212320211     1.007825032230

  Basis Set: AUG-CC-PVTZ
    Blend: AUG-CC-PVTZ
  Basis Set: (AUG-CC-PVTZ AUX)
    Blend: AUG-CC-PVTZ-JKFIT + DEF2-UNIVERSAL-JKFIT
	 Reference Energy          =   -1000.5088257362111790 [Eh]
	 Singles Energy            =      -0.0000000000000000 [Eh]
	 Same-Spin Energy          =      -0.3704202886910843 [Eh]
	 Opposite-Spin Energy      =      -0.9890053765372997 [Eh]
	 Correlation Energy        =      -1.3594256652283840 [Eh]
	 Total Energy              =   -1001.8682514014395792 [Eh]

	 ================> DF-SCS-MP2 Energies <==================
	-----------------------------------------------------------
	 SCS Same-Spin Scale       =       0.3333333333333333 [-]
	 SCS Opposite-Spin Scale   =       1.2000000000000000 [-]
	 SCS Same-Spin Energy      =      -0.1234734295636948 [Eh]
	 SCS Opposite-Spin Energy  =      -1.1868064518447596 [Eh]
	 SCS Correlation Energy    =      -1.3102798814084544 [Eh]
	 SCS Total Energy          =   -1001.8191056176195843 [Eh]
	-----------------------------------------------------------

  Dipole Moment: [D]
     X:     0.3764      Y:     0.0000      Z:     1.4959     Total:     1.5425

*** Psi4 exiting successfully. Buy a developer a beer!
