                               Psi4 1.4a3.dev225

  ==> Input File <==

--------------------------------------------------------------------------
#psi4
#
memory 32 gb

molecule  {
0 1
  I       -2.1233850    -0.0000070     0.0029360
  I        0.9137110    -1.7822490    -0.4028610
  I        0.9136990     1.7822560    -0.4028600
  C        0.1632690     0.0000000     1.9871780
  C        0.0090770     0.0000000     0.4634120
  C        1.5921310     0.0000020     2.5199530
  H       -0.3713710     0.8821210     2.3563980
  H       -0.3713680    -0.8821230     2.3563980
  H        2.1414910    -0.8861860     2.1993740
  H        1.5595910     0.0000060     3.6127340
  H        2.1414910     0.8861880     2.1993680
units angstrom
no_reorient  #important for SAPT in psi4, default
symmetry c1  #important for SAPT in psi4, default
}

set PROPERTIES_ORIGIN ["COM"]
properties('MP2/aug-cc-pvtz', properties = ['dipole'])
--------------------------------------------------------------------------

    Molecular point group: c1
  Charge       = 0
  Multiplicity = 1
  Basis Set: AUG-CC-PVTZ
    Blend: AUG-CC-PVTZ
  Basis Set: (AUG-CC-PVTZ AUX)
    Blend: AUG-CC-PVTZ-JKFIT + DEF2-UNIVERSAL-JKFIT

    Orbital Energies [Eh]
    ---------------------

    Doubly Occupied:

       1A    -11.391307     2A    -11.265893     3A    -11.232000
       4A     -7.733842     5A     -7.733840     6A     -7.733735
       7A     -5.566335     8A     -5.566330     9A     -5.566256
      10A     -5.555435    11A     -5.555431    12A     -5.555328
      13A     -5.555325    14A     -5.555260    15A     -5.555225
      16A     -2.295956    17A     -2.295723    18A     -2.295651
      19A     -2.290794    20A     -2.290721    21A     -2.290673
      22A     -2.290672    23A     -2.290599    24A     -2.290545
      25A     -2.278553    26A     -2.278546    27A     -2.278541
      28A     -2.278538    29A     -2.278382    30A     -2.278377
      31A     -1.110990    32A     -0.992623    33A     -0.900144
      34A     -0.897178    35A     -0.875198    36A     -0.735301
      37A     -0.646299    38A     -0.606104    39A     -0.566211
      40A     -0.538978    41A     -0.514928    42A     -0.471606
      43A     -0.465365    44A     -0.395365    45A     -0.394199
      46A     -0.388848    47A     -0.362814    48A     -0.361810
      49A     -0.351184

  @DF-RHF Final Energy: -1000.50986702986859

   => Energetics <=

    Nuclear Repulsion Energy =            645.2866147596216706
    One-Electron Energy =               -2985.5950473643742953
    Two-Electron Energy =                1339.7985655748841509
    Total Energy =                      -1000.5098670298687011
  Basis Set: (AUG-CC-PVTZ AUX)
    Blend: AUG-CC-PVTZ-RI + DEF2-QZVPP-RI
    Molecular point group: c1

    Geometry (in Angstrom), charge = 0, multiplicity = 1:

       Center              X                  Y                   Z               Mass
    ------------   -----------------  -----------------  -----------------  -----------------
         I           -2.096717498052    -0.000007071243     0.072660892648   126.904471900000
         I            0.940378501948    -1.782249071243    -0.333136107352   126.904471900000
         I            0.940366501948     1.782255928757    -0.333135107352   126.904471900000
         C            0.189936501948    -0.000000071243     2.056902892648    12.000000000000
         C            0.035744501948    -0.000000071243     0.533136892648    12.000000000000
         C            1.618798501948     0.000001928757     2.589677892648    12.000000000000
         H           -0.344703498052     0.882120928757     2.426122892648     1.007825032230
         H           -0.344700498052    -0.882123071243     2.426122892648     1.007825032230
         H            2.168158501948    -0.886186071243     2.269098892648     1.007825032230
         H            1.586258501948     0.000005928757     3.682458892648     1.007825032230
         H            2.168158501948     0.886187928757     2.269092892648     1.007825032230

  Basis Set: AUG-CC-PVTZ
    Blend: AUG-CC-PVTZ
  Basis Set: (AUG-CC-PVTZ AUX)
    Blend: AUG-CC-PVTZ-JKFIT + DEF2-UNIVERSAL-JKFIT
	 Reference Energy          =   -1000.5098670298685875 [Eh]
	 Singles Energy            =      -0.0000000000000000 [Eh]
	 Same-Spin Energy          =      -0.3704108804702655 [Eh]
	 Opposite-Spin Energy      =      -0.9892746577918308 [Eh]
	 Correlation Energy        =      -1.3596855382620963 [Eh]
	 Total Energy              =   -1001.8695525681306435 [Eh]

	 ================> DF-SCS-MP2 Energies <==================
	-----------------------------------------------------------
	 SCS Same-Spin Scale       =       0.3333333333333333 [-]
	 SCS Opposite-Spin Scale   =       1.2000000000000000 [-]
	 SCS Same-Spin Energy      =      -0.1234702934900885 [Eh]
	 SCS Opposite-Spin Energy  =      -1.1871295893501970 [Eh]
	 SCS Correlation Energy    =      -1.3105998828402854 [Eh]
	 SCS Total Energy          =   -1001.8204669127088664 [Eh]
	-----------------------------------------------------------

  Dipole Moment: [D]
     X:     0.3664      Y:    -0.0000      Z:     1.4675     Total:     1.5126

*** Psi4 exiting successfully. Buy a developer a beer!
