                               Psi4 1.4a3.dev225

  ==> Input File <==

--------------------------------------------------------------------------
#psi4
#
memory 32 gb

molecule  {
0 1
  I       -2.1233850    -0.0000070     0.0029360
  I        0.9137110    -1.7822490    -0.4028610
  I        0.9136990     1.7822560    -0.4028600
  C        0.1632690     0.0000000     1.9871780
  C       -0.0009907     0.0000000     0.3639201
  C        1.5921310     0.0000020     2.5199530
  H       -0.3713710     0.8821210     2.3563980
  H       -0.3713680    -0.8821230     2.3563980
  H        2.1414910    -0.8861860     2.1993740
  H        1.5595910     0.0000060     3.6127340
  H        2.1414910     0.8861880     2.1993680
units angstrom
no_reorient  #important for SAPT in psi4, default
symmetry c1  #important for SAPT in psi4, default
}

set PROPERTIES_ORIGIN ["COM"]
properties('MP2/aug-cc-pvtz', properties = ['dipole'])
--------------------------------------------------------------------------

    Molecular point group: c1
  Charge       = 0
  Multiplicity = 1
  Basis Set: AUG-CC-PVTZ
    Blend: AUG-CC-PVTZ
  Basis Set: (AUG-CC-PVTZ AUX)
    Blend: AUG-CC-PVTZ-JKFIT + DEF2-UNIVERSAL-JKFIT

    Orbital Energies [Eh]
    ---------------------

    Doubly Occupied:

       1A    -11.388524     2A    -11.270924     3A    -11.230755
       4A     -7.734584     5A     -7.734581     6A     -7.733973
       7A     -5.567108     8A     -5.567103     9A     -5.566515
      10A     -5.556194    11A     -5.556190    12A     -5.556104
      13A     -5.556100    14A     -5.555508    15A     -5.555508
      16A     -2.296879    17A     -2.296666    18A     -2.296096
      19A     -2.291581    20A     -2.291507    21A     -2.291454
      22A     -2.291435    23A     -2.290882    24A     -2.290876
      25A     -2.279346    26A     -2.279340    27A     -2.279336
      28A     -2.279334    29A     -2.278672    30A     -2.278672
      31A     -1.096446    32A     -0.997751    33A     -0.901132
      34A     -0.900537    35A     -0.866126    36A     -0.732019
      37A     -0.640491    38A     -0.602167    39A     -0.560674
      40A     -0.536547    41A     -0.506256    42A     -0.481371
      43A     -0.474607    44A     -0.395300    45A     -0.393776
      46A     -0.380142    47A     -0.365549    48A     -0.364388
      49A     -0.351831

  @DF-RHF Final Energy: -1000.50539631437130

   => Energetics <=

    Nuclear Repulsion Energy =            645.7161049644167861
    One-Electron Energy =               -2986.4652911856228457
    Two-Electron Energy =                1340.2437899068345359
    Total Energy =                      -1000.5053963143714100
  Basis Set: (AUG-CC-PVTZ AUX)
    Blend: AUG-CC-PVTZ-RI + DEF2-QZVPP-RI
    Molecular point group: c1

    Geometry (in Angstrom), charge = 0, multiplicity = 1:

       Center              X                  Y                   Z               Mass
    ------------   -----------------  -----------------  -----------------  -----------------
         I           -2.096431044768    -0.000007071243     0.075491706181   126.904471900000
         I            0.940664955232    -1.782249071243    -0.330305293819   126.904471900000
         I            0.940652955232     1.782255928757    -0.330304293819   126.904471900000
         C            0.190222955232    -0.000000071243     2.059733706181    12.000000000000
         C            0.025963255232    -0.000000071243     0.436475806181    12.000000000000
         C            1.619084955232     0.000001928757     2.592508706181    12.000000000000
         H           -0.344417044768     0.882120928757     2.428953706181     1.007825032230
         H           -0.344414044768    -0.882123071243     2.428953706181     1.007825032230
         H            2.168444955232    -0.886186071243     2.271929706181     1.007825032230
         H            1.586544955232     0.000005928757     3.685289706181     1.007825032230
         H            2.168444955232     0.886187928757     2.271923706181     1.007825032230

  Basis Set: AUG-CC-PVTZ
    Blend: AUG-CC-PVTZ
  Basis Set: (AUG-CC-PVTZ AUX)
    Blend: AUG-CC-PVTZ-JKFIT + DEF2-UNIVERSAL-JKFIT
	 Reference Energy          =   -1000.5053963143712963 [Eh]
	 Singles Energy            =      -0.0000000000000000 [Eh]
	 Same-Spin Energy          =      -0.3702667190002799 [Eh]
	 Opposite-Spin Energy      =      -0.9890983132711338 [Eh]
	 Correlation Energy        =      -1.3593650322714137 [Eh]
	 Total Energy              =   -1001.8647613466426947 [Eh]

	 ================> DF-SCS-MP2 Energies <==================
	-----------------------------------------------------------
	 SCS Same-Spin Scale       =       0.3333333333333333 [-]
	 SCS Opposite-Spin Scale   =       1.2000000000000000 [-]
	 SCS Same-Spin Energy      =      -0.1234222396667599 [Eh]
	 SCS Opposite-Spin Energy  =      -1.1869179759253605 [Eh]
	 SCS Correlation Energy    =      -1.3103402155921204 [Eh]
	 SCS Total Energy          =   -1001.8157365299633739 [Eh]
	-----------------------------------------------------------

  Dipole Moment: [D]
     X:     0.3767      Y:     0.0000      Z:     1.4426     Total:     1.4910

*** Psi4 exiting successfully. Buy a developer a beer!
