                               Psi4 1.4a3.dev225

  ==> Input File <==

--------------------------------------------------------------------------
#psi4
#
memory 32 gb

molecule  {
0 1
  I       -2.1233850    -0.0000070     0.0029360
  I        0.9137110    -1.7822490    -0.4028610
  I        0.9136990     1.7822560    -0.4028600
  C        0.1632690     0.0000000     1.9871780
  C        0.0090770     0.0000000     0.4634120
  C        1.5921310     0.0000020     2.5199530
  H       -0.3713710     0.8821210     2.3563980
  H       -0.3713680    -0.8821230     2.3563980
  H        2.1414910    -0.8861860     2.1993740
  H        1.5589957     0.0000061     3.6327251
  H        2.1414910     0.8861880     2.1993680
units angstrom
no_reorient  #important for SAPT in psi4, default
symmetry c1  #important for SAPT in psi4, default
}

set PROPERTIES_ORIGIN ["COM"]
properties('MP2/aug-cc-pvtz', properties = ['dipole'])
--------------------------------------------------------------------------

    Molecular point group: c1
  Charge       = 0
  Multiplicity = 1
  Basis Set: AUG-CC-PVTZ
    Blend: AUG-CC-PVTZ
  Basis Set: (AUG-CC-PVTZ AUX)
    Blend: AUG-CC-PVTZ-JKFIT + DEF2-UNIVERSAL-JKFIT

    Orbital Energies [Eh]
    ---------------------

    Doubly Occupied:

       1A    -11.391401     2A    -11.266034     3A    -11.234400
       4A     -7.733929     5A     -7.733927     6A     -7.733824
       7A     -5.566421     8A     -5.566417     9A     -5.566348
      10A     -5.555521    11A     -5.555516    12A     -5.555416
      13A     -5.555412    14A     -5.555348    15A     -5.555313
      16A     -2.296044    17A     -2.295810    18A     -2.295742
      19A     -2.290880    20A     -2.290807    21A     -2.290761
      22A     -2.290761    23A     -2.290689    24A     -2.290635
      25A     -2.278640    26A     -2.278632    27A     -2.278627
      28A     -2.278625    29A     -2.278468    30A     -2.278463
      31A     -1.110895    32A     -0.991744    33A     -0.900113
      34A     -0.897268    35A     -0.874292    36A     -0.735387
      37A     -0.646440    38A     -0.603574    39A     -0.566409
      40A     -0.539191    41A     -0.512966    42A     -0.471679
      43A     -0.465451    44A     -0.395454    45A     -0.394287
      46A     -0.388927    47A     -0.362895    48A     -0.361894
      49A     -0.351266

  @DF-RHF Final Energy: -1000.50937003581600

   => Energetics <=

    Nuclear Repulsion Energy =            645.1817883558773019
    One-Electron Energy =               -2985.3844338180342675
    Two-Electron Energy =                1339.6932754263407332
    Total Energy =                      -1000.5093700358161186
  Basis Set: (AUG-CC-PVTZ AUX)
    Blend: AUG-CC-PVTZ-RI + DEF2-QZVPP-RI
    Molecular point group: c1

    Geometry (in Angstrom), charge = 0, multiplicity = 1:

       Center              X                  Y                   Z               Mass
    ------------   -----------------  -----------------  -----------------  -----------------
         I           -2.096716075515    -0.000007071482     0.072613121671   126.904471900000
         I            0.940379924485    -1.782249071482    -0.333183878329   126.904471900000
         I            0.940367924485     1.782255928518    -0.333182878329   126.904471900000
         C            0.189937924485    -0.000000071482     2.056855121671    12.000000000000
         C            0.035745924485    -0.000000071482     0.533089121671    12.000000000000
         C            1.618799924485     0.000001928518     2.589630121671    12.000000000000
         H           -0.344702075515     0.882120928518     2.426075121671     1.007825032230
         H           -0.344699075515    -0.882123071482     2.426075121671     1.007825032230
         H            2.168159924485    -0.886186071482     2.269051121671     1.007825032230
         H            1.585664624485     0.000006028518     3.702402221671     1.007825032230
         H            2.168159924485     0.886187928518     2.269045121671     1.007825032230

  Basis Set: AUG-CC-PVTZ
    Blend: AUG-CC-PVTZ
  Basis Set: (AUG-CC-PVTZ AUX)
    Blend: AUG-CC-PVTZ-JKFIT + DEF2-UNIVERSAL-JKFIT
	 Reference Energy          =   -1000.5093700358160049 [Eh]
	 Singles Energy            =      -0.0000000000000000 [Eh]
	 Same-Spin Energy          =      -0.3704089994539882 [Eh]
	 Opposite-Spin Energy      =      -0.9893998258692386 [Eh]
	 Correlation Energy        =      -1.3598088253232268 [Eh]
	 Total Energy              =   -1001.8691788611391758 [Eh]

	 ================> DF-SCS-MP2 Energies <==================
	-----------------------------------------------------------
	 SCS Same-Spin Scale       =       0.3333333333333333 [-]
	 SCS Opposite-Spin Scale   =       1.2000000000000000 [-]
	 SCS Same-Spin Energy      =      -0.1234696664846627 [Eh]
	 SCS Opposite-Spin Energy  =      -1.1872797910430863 [Eh]
	 SCS Correlation Energy    =      -1.3107494575277490 [Eh]
	 SCS Total Energy          =   -1001.8201194933437819 [Eh]
	-----------------------------------------------------------

  Dipole Moment: [D]
     X:     0.3621      Y:    -0.0000      Z:     1.4549     Total:     1.4993

*** Psi4 exiting successfully. Buy a developer a beer!
