                               Psi4 1.4a3.dev225

  ==> Input File <==

--------------------------------------------------------------------------
#psi4
#
memory 32 gb

molecule  {
0 1
  I       -2.1233850    -0.0000070     0.0029360
  I        0.9137110    -1.7822490    -0.4028610
  I        0.9136990     1.7822560    -0.4028600
  C        0.1632690     0.0000000     1.9871780
  C        0.0090770     0.0000000     0.4634120
  C        1.5921310     0.0000020     2.5199530
  H       -0.3469712     0.8418629     2.3395476
  H       -0.3713680    -0.8821230     2.3563980
  H        2.1414910    -0.8861860     2.1993740
  H        1.5595910     0.0000060     3.6127340
  H        2.1414910     0.8861880     2.1993680
units angstrom
no_reorient  #important for SAPT in psi4, default
symmetry c1  #important for SAPT in psi4, default
}

set PROPERTIES_ORIGIN ["COM"]
properties('MP2/aug-cc-pvtz', properties = ['dipole'])
--------------------------------------------------------------------------

    Molecular point group: c1
  Charge       = 0
  Multiplicity = 1
  Basis Set: AUG-CC-PVTZ
    Blend: AUG-CC-PVTZ
  Basis Set: (AUG-CC-PVTZ AUX)
    Blend: AUG-CC-PVTZ-JKFIT + DEF2-UNIVERSAL-JKFIT

    Orbital Energies [Eh]
    ---------------------

    Doubly Occupied:

       1A    -11.391131     2A    -11.260035     3A    -11.231654
       4A     -7.733898     5A     -7.733812     6A     -7.733644
       7A     -5.566382     8A     -5.566324     9A     -5.566131
      10A     -5.555497    11A     -5.555384    12A     -5.555346
      13A     -5.555305    14A     -5.555237    15A     -5.555134
      16A     -2.295954    17A     -2.295727    18A     -2.295562
      19A     -2.290819    20A     -2.290729    21A     -2.290696
      22A     -2.290635    23A     -2.290546    24A     -2.290434
      25A     -2.278615    26A     -2.278605    27A     -2.278471
      28A     -2.278466    29A     -2.278357    30A     -2.278347
      31A     -1.113034    32A     -0.992982    33A     -0.901041
      34A     -0.897165    35A     -0.877088    36A     -0.738207
      37A     -0.650836    38A     -0.606292    39A     -0.566217
      40A     -0.540013    41A     -0.515673    42A     -0.472140
      43A     -0.467027    44A     -0.395371    45A     -0.394185
      46A     -0.388809    47A     -0.362801    48A     -0.361818
      49A     -0.351172

  @DF-RHF Final Energy: -1000.50900040329407

   => Energetics <=

    Nuclear Repulsion Energy =            645.5589019483835500
    One-Electron Energy =               -2986.1183025467807965
    Two-Electron Energy =                1340.0504001951030659
    Total Energy =                      -1000.5090004032940669
  Basis Set: (AUG-CC-PVTZ AUX)
    Blend: AUG-CC-PVTZ-RI + DEF2-QZVPP-RI
    Molecular point group: c1

    Geometry (in Angstrom), charge = 0, multiplicity = 1:

       Center              X                  Y                   Z               Mass
    ------------   -----------------  -----------------  -----------------  -----------------
         I           -2.096775804112     0.000089130005     0.072701158570   126.904471900000
         I            0.940320195888    -1.782152869995    -0.333095841430   126.904471900000
         I            0.940308195888     1.782352130005    -0.333094841430   126.904471900000
         C            0.189878195888     0.000096130005     2.056943158570    12.000000000000
         C            0.035686195888     0.000096130005     0.533177158570    12.000000000000
         C            1.618740195888     0.000098130005     2.589718158570    12.000000000000
         H           -0.320362004112     0.841959030005     2.409312758570     1.007825032230
         H           -0.344758804112    -0.882026869995     2.426163158570     1.007825032230
         H            2.168100195888    -0.886089869995     2.269139158570     1.007825032230
         H            1.586200195888     0.000102130005     3.682499158570     1.007825032230
         H            2.168100195888     0.886284130005     2.269133158570     1.007825032230

  Basis Set: AUG-CC-PVTZ
    Blend: AUG-CC-PVTZ
  Basis Set: (AUG-CC-PVTZ AUX)
    Blend: AUG-CC-PVTZ-JKFIT + DEF2-UNIVERSAL-JKFIT
	 Reference Energy          =   -1000.5090004032940669 [Eh]
	 Singles Energy            =      -0.0000000000000000 [Eh]
	 Same-Spin Energy          =      -0.3703167398743600 [Eh]
	 Opposite-Spin Energy      =      -0.9889438085854917 [Eh]
	 Correlation Energy        =      -1.3592605484598517 [Eh]
	 Total Energy              =   -1001.8682609517538822 [Eh]

	 ================> DF-SCS-MP2 Energies <==================
	-----------------------------------------------------------
	 SCS Same-Spin Scale       =       0.3333333333333333 [-]
	 SCS Opposite-Spin Scale   =       1.2000000000000000 [-]
	 SCS Same-Spin Energy      =      -0.1234389132914533 [Eh]
	 SCS Opposite-Spin Energy  =      -1.1867325703025899 [Eh]
	 SCS Correlation Energy    =      -1.3101714835940432 [Eh]
	 SCS Total Energy          =   -1001.8191718868880571 [Eh]
	-----------------------------------------------------------

  Dipole Moment: [D]
     X:     0.3557      Y:     0.0086      Z:     1.4690     Total:     1.5115

*** Psi4 exiting successfully. Buy a developer a beer!
