                               Psi4 1.4a3.dev225

  ==> Input File <==

--------------------------------------------------------------------------
#psi4
#
memory 32 gb

molecule  {
0 1
  I       -2.1233850    -0.0000070     0.0029360
  I        0.9137110    -1.7822490    -0.4028610
  I        0.9136990     1.7822560    -0.4028600
  C        0.1632690     0.0000000     1.9871780
  C        0.0040431     0.0000000     0.4136660
  C        1.5921310     0.0000020     2.5199530
  H       -0.3713710     0.8821210     2.3563980
  H       -0.3713680    -0.8821230     2.3563980
  H        2.1414910    -0.8861860     2.1993740
  H        1.5595910     0.0000060     3.6127340
  H        2.1414910     0.8861880     2.1993680
units angstrom
no_reorient  #important for SAPT in psi4, default
symmetry c1  #important for SAPT in psi4, default
}

set PROPERTIES_ORIGIN ["COM"]
properties('MP2/aug-cc-pvtz', properties = ['dipole'])
--------------------------------------------------------------------------

    Molecular point group: c1
  Charge       = 0
  Multiplicity = 1
  Basis Set: AUG-CC-PVTZ
    Blend: AUG-CC-PVTZ
  Basis Set: (AUG-CC-PVTZ AUX)
    Blend: AUG-CC-PVTZ-JKFIT + DEF2-UNIVERSAL-JKFIT

    Orbital Energies [Eh]
    ---------------------

    Doubly Occupied:

       1A    -11.389949     2A    -11.268440     3A    -11.231242
       4A     -7.734257     5A     -7.734255     6A     -7.733885
       7A     -5.566764     8A     -5.566760     9A     -5.566415
      10A     -5.555859    11A     -5.555854    12A     -5.555761
      13A     -5.555758    14A     -5.555417    15A     -5.555398
      16A     -2.296450    17A     -2.296238    18A     -2.295914
      19A     -2.291231    20A     -2.291157    21A     -2.291099
      22A     -2.291084    23A     -2.290779    24A     -2.290755
      25A     -2.278995    26A     -2.278988    27A     -2.278983
      28A     -2.278981    29A     -2.278560    30A     -2.278558
      31A     -1.103037    32A     -0.995194    33A     -0.900478
      34A     -0.898902    35A     -0.870612    36A     -0.733674
      37A     -0.643095    38A     -0.604012    39A     -0.563247
      40A     -0.537607    41A     -0.510450    42A     -0.476650
      43A     -0.470166    44A     -0.395416    45A     -0.394015
      46A     -0.384866    47A     -0.364213    48A     -0.363132
      49A     -0.351545

  @DF-RHF Final Energy: -1000.50887189367529

   => Energetics <=

    Nuclear Repulsion Energy =            645.5069134451664468
    One-Electron Energy =               -2986.0433771609814357
    Two-Electron Energy =                1340.0275918221395841
    Total Energy =                      -1000.5088718936754049
  Basis Set: (AUG-CC-PVTZ AUX)
    Blend: AUG-CC-PVTZ-RI + DEF2-QZVPP-RI
    Molecular point group: c1

    Geometry (in Angstrom), charge = 0, multiplicity = 1:

       Center              X                  Y                   Z               Mass
    ------------   -----------------  -----------------  -----------------  -----------------
         I           -2.096574269987    -0.000007071243     0.074076300837   126.904471900000
         I            0.940521730013    -1.782249071243    -0.331720699163   126.904471900000
         I            0.940509730013     1.782255928757    -0.331719699163   126.904471900000
         C            0.190079730013    -0.000000071243     2.058318300837    12.000000000000
         C            0.030853830013    -0.000000071243     0.484806300837    12.000000000000
         C            1.618941730013     0.000001928757     2.591093300837    12.000000000000
         H           -0.344560269987     0.882120928757     2.427538300837     1.007825032230
         H           -0.344557269987    -0.882123071243     2.427538300837     1.007825032230
         H            2.168301730013    -0.886186071243     2.270514300837     1.007825032230
         H            1.586401730013     0.000005928757     3.683874300837     1.007825032230
         H            2.168301730013     0.886187928757     2.270508300837     1.007825032230

  Basis Set: AUG-CC-PVTZ
    Blend: AUG-CC-PVTZ
  Basis Set: (AUG-CC-PVTZ AUX)
    Blend: AUG-CC-PVTZ-JKFIT + DEF2-UNIVERSAL-JKFIT
	 Reference Energy          =   -1000.5088718936752912 [Eh]
	 Singles Energy            =      -0.0000000000000000 [Eh]
	 Same-Spin Energy          =      -0.3702669378205418 [Eh]
	 Opposite-Spin Energy      =      -0.9890667134966760 [Eh]
	 Correlation Energy        =      -1.3593336513172178 [Eh]
	 Total Energy              =   -1001.8682055449925201 [Eh]

	 ================> DF-SCS-MP2 Energies <==================
	-----------------------------------------------------------
	 SCS Same-Spin Scale       =       0.3333333333333333 [-]
	 SCS Opposite-Spin Scale   =       1.2000000000000000 [-]
	 SCS Same-Spin Energy      =      -0.1234223126068473 [Eh]
	 SCS Opposite-Spin Energy  =      -1.1868800561960111 [Eh]
	 SCS Correlation Energy    =      -1.3103023688028583 [Eh]
	 SCS Total Energy          =   -1001.8191742624781000 [Eh]
	-----------------------------------------------------------

  Dipole Moment: [D]
     X:     0.3701      Y:    -0.0000      Z:     1.4468     Total:     1.4934

*** Psi4 exiting successfully. Buy a developer a beer!
