                               Psi4 1.4a3.dev225

  ==> Input File <==

--------------------------------------------------------------------------
#psi4
#
memory 32 gb

molecule  {
0 1
  I       -2.1233850    -0.0000070     0.0029360
  I        0.9137110    -1.7822490    -0.4028610
  I        0.9136990     1.7822560    -0.4028600
  C        0.1632690     0.0000000     1.9871780
  C        0.0110905     0.0000000     0.4833104
  C        1.5921310     0.0000020     2.5199530
  H       -0.3713710     0.8821210     2.3563980
  H       -0.3713680    -0.8821230     2.3563980
  H        2.1414910    -0.8861860     2.1993740
  H        1.5595910     0.0000060     3.6127340
  H        2.1414910     0.8861880     2.1993680
units angstrom
no_reorient  #important for SAPT in psi4, default
symmetry c1  #important for SAPT in psi4, default
}

set PROPERTIES_ORIGIN ["COM"]
properties('MP2/aug-cc-pvtz', properties = ['dipole'])
--------------------------------------------------------------------------

    Molecular point group: c1
  Charge       = 0
  Multiplicity = 1
  Basis Set: AUG-CC-PVTZ
    Blend: AUG-CC-PVTZ
  Basis Set: (AUG-CC-PVTZ AUX)
    Blend: AUG-CC-PVTZ-JKFIT + DEF2-UNIVERSAL-JKFIT

    Orbital Energies [Eh]
    ---------------------

    Doubly Occupied:

       1A    -11.391825     2A    -11.264870     3A    -11.232395
       4A     -7.733651     5A     -7.733645     6A     -7.733643
       7A     -5.566169     8A     -5.566132     9A     -5.566127
      10A     -5.555234    11A     -5.555230    12A     -5.555173
      13A     -5.555132    14A     -5.555123    15A     -5.555120
      16A     -2.295748    17A     -2.295500    18A     -2.295487
      19A     -2.290588    20A     -2.290542    21A     -2.290532
      22A     -2.290511    23A     -2.290432    24A     -2.290387
      25A     -2.278345    26A     -2.278338    27A     -2.278332
      28A     -2.278330    29A     -2.278285    30A     -2.278280
      31A     -1.114603    32A     -0.991607    33A     -0.900171
      34A     -0.896462    35A     -0.876963    36A     -0.735953
      37A     -0.647774    38A     -0.607016    39A     -0.567515
      40A     -0.539625    41A     -0.516791    42A     -0.469501
      43A     -0.463347    44A     -0.395291    45A     -0.394317
      46A     -0.390167    47A     -0.362231    48A     -0.361256
      49A     -0.351013

  @DF-RHF Final Energy: -1000.50945609385940

   => Energetics <=

    Nuclear Repulsion Energy =            645.1966804353299949
    One-Electron Energy =               -2985.4108525206670492
    Two-Electron Energy =                1339.7047159914775420
    Total Energy =                      -1000.5094560938593986
  Basis Set: (AUG-CC-PVTZ AUX)
    Blend: AUG-CC-PVTZ-RI + DEF2-QZVPP-RI
    Molecular point group: c1

    Geometry (in Angstrom), charge = 0, multiplicity = 1:

       Center              X                  Y                   Z               Mass
    ------------   -----------------  -----------------  -----------------  -----------------
         I           -2.096774787570    -0.000007071243     0.072094729373   126.904471900000
         I            0.940321212430    -1.782249071243    -0.333702270627   126.904471900000
         I            0.940309212430     1.782255928757    -0.333701270627   126.904471900000
         C            0.189879212430    -0.000000071243     2.056336729373    12.000000000000
         C            0.037700712430    -0.000000071243     0.552469129373    12.000000000000
         C            1.618741212430     0.000001928757     2.589111729373    12.000000000000
         H           -0.344760787570     0.882120928757     2.425556729373     1.007825032230
         H           -0.344757787570    -0.882123071243     2.425556729373     1.007825032230
         H            2.168101212430    -0.886186071243     2.268532729373     1.007825032230
         H            1.586201212430     0.000005928757     3.681892729373     1.007825032230
         H            2.168101212430     0.886187928757     2.268526729373     1.007825032230

  Basis Set: AUG-CC-PVTZ
    Blend: AUG-CC-PVTZ
  Basis Set: (AUG-CC-PVTZ AUX)
    Blend: AUG-CC-PVTZ-JKFIT + DEF2-UNIVERSAL-JKFIT
	 Reference Energy          =   -1000.5094560938593986 [Eh]
	 Singles Energy            =      -0.0000000000000000 [Eh]
	 Same-Spin Energy          =      -0.3705129848397928 [Eh]
	 Opposite-Spin Energy      =      -0.9894271674763426 [Eh]
	 Correlation Energy        =      -1.3599401523161354 [Eh]
	 Total Energy              =   -1001.8693962461754836 [Eh]

	 ================> DF-SCS-MP2 Energies <==================
	-----------------------------------------------------------
	 SCS Same-Spin Scale       =       0.3333333333333333 [-]
	 SCS Opposite-Spin Scale   =       1.2000000000000000 [-]
	 SCS Same-Spin Energy      =      -0.1235043282799309 [Eh]
	 SCS Opposite-Spin Energy  =      -1.1873126009716111 [Eh]
	 SCS Correlation Energy    =      -1.3108169292515419 [Eh]
	 SCS Total Energy          =   -1001.8202730231109854 [Eh]
	-----------------------------------------------------------

  Dipole Moment: [D]
     X:     0.3660      Y:    -0.0000      Z:     1.4814     Total:     1.5260

*** Psi4 exiting successfully. Buy a developer a beer!
