                               Psi4 1.4a3.dev225

  ==> Input File <==

--------------------------------------------------------------------------
#psi4
#
memory 32 gb

molecule  {
0 1
  I       -2.1233850    -0.0000070     0.0029360
  I        0.9137110    -1.7822490    -0.4028610
  I        0.9136990     1.7822560    -0.4028600
  C        0.1632690     0.0000000     1.9871780
  C        0.0090770     0.0000000     0.4634120
  C        1.5921310     0.0000020     2.5199530
  H       -0.3713710     0.8821210     2.3563980
  H       -0.3713680    -0.8821230     2.3563980
  H        2.1414910    -0.8861860     2.1993740
  H        1.5601863     0.0000059     3.5927429
  H        2.1414910     0.8861880     2.1993680
units angstrom
no_reorient  #important for SAPT in psi4, default
symmetry c1  #important for SAPT in psi4, default
}

set PROPERTIES_ORIGIN ["COM"]
properties('MP2/aug-cc-pvtz', properties = ['dipole'])
--------------------------------------------------------------------------

    Molecular point group: c1
  Charge       = 0
  Multiplicity = 1
  Basis Set: AUG-CC-PVTZ
    Blend: AUG-CC-PVTZ
  Basis Set: (AUG-CC-PVTZ AUX)
    Blend: AUG-CC-PVTZ-JKFIT + DEF2-UNIVERSAL-JKFIT

    Orbital Energies [Eh]
    ---------------------

    Doubly Occupied:

       1A    -11.391220     2A    -11.265761     3A    -11.229575
       4A     -7.733760     5A     -7.733758     6A     -7.733649
       7A     -5.566253     8A     -5.566248     9A     -5.566169
      10A     -5.555354    11A     -5.555349    12A     -5.555246
      13A     -5.555242    14A     -5.555176    15A     -5.555141
      16A     -2.295873    17A     -2.295641    18A     -2.295564
      19A     -2.290713    20A     -2.290640    21A     -2.290589
      22A     -2.290588    23A     -2.290514    24A     -2.290460
      25A     -2.278471    26A     -2.278464    27A     -2.278459
      28A     -2.278456    29A     -2.278300    30A     -2.278295
      31A     -1.111111    32A     -0.993587    33A     -0.900196
      34A     -0.897093    35A     -0.876149    36A     -0.735222
      37A     -0.646169    38A     -0.608752    39A     -0.566026
      40A     -0.538779    41A     -0.516788    42A     -0.471532
      43A     -0.465284    44A     -0.395282    45A     -0.394117
      46A     -0.388773    47A     -0.362738    48A     -0.361730
      49A     -0.351106

  @DF-RHF Final Energy: -1000.50987174634588

   => Energetics <=

    Nuclear Repulsion Energy =            645.3937604833200794
    One-Electron Energy =               -2985.8085376341018673
    Two-Electron Energy =                1339.9049054044360219
    Total Energy =                      -1000.5098717463458797
  Basis Set: (AUG-CC-PVTZ AUX)
    Blend: AUG-CC-PVTZ-RI + DEF2-QZVPP-RI
    Molecular point group: c1

    Geometry (in Angstrom), charge = 0, multiplicity = 1:

       Center              X                  Y                   Z               Mass
    ------------   -----------------  -----------------  -----------------  -----------------
         I           -2.096718920588    -0.000007071004     0.072708663626   126.904471900000
         I            0.940377079412    -1.782249071004    -0.333088336374   126.904471900000
         I            0.940365079412     1.782255928996    -0.333087336374   126.904471900000
         C            0.189935079412    -0.000000071004     2.056950663626    12.000000000000
         C            0.035743079412    -0.000000071004     0.533184663626    12.000000000000
         C            1.618797079412     0.000001928996     2.589725663626    12.000000000000
         H           -0.344704920588     0.882120928996     2.426170663626     1.007825032230
         H           -0.344701920588    -0.882123071004     2.426170663626     1.007825032230
         H            2.168157079412    -0.886186071004     2.269146663626     1.007825032230
         H            1.586852379412     0.000005828996     3.662515563626     1.007825032230
         H            2.168157079412     0.886187928996     2.269140663626     1.007825032230

  Basis Set: AUG-CC-PVTZ
    Blend: AUG-CC-PVTZ
  Basis Set: (AUG-CC-PVTZ AUX)
    Blend: AUG-CC-PVTZ-JKFIT + DEF2-UNIVERSAL-JKFIT
	 Reference Energy          =   -1000.5098717463458797 [Eh]
	 Singles Energy            =      -0.0000000000000000 [Eh]
	 Same-Spin Energy          =      -0.3704136883024441 [Eh]
	 Opposite-Spin Energy      =      -0.9891589543989829 [Eh]
	 Correlation Energy        =      -1.3595726427014272 [Eh]
	 Total Energy              =   -1001.8694443890473167 [Eh]

	 ================> DF-SCS-MP2 Energies <==================
	-----------------------------------------------------------
	 SCS Same-Spin Scale       =       0.3333333333333333 [-]
	 SCS Opposite-Spin Scale   =       1.2000000000000000 [-]
	 SCS Same-Spin Energy      =      -0.1234712294341480 [Eh]
	 SCS Opposite-Spin Energy  =      -1.1869907452787796 [Eh]
	 SCS Correlation Energy    =      -1.3104619747129276 [Eh]
	 SCS Total Energy          =   -1001.8203337210587733 [Eh]
	-----------------------------------------------------------

  Dipole Moment: [D]
     X:     0.3706      Y:    -0.0000      Z:     1.4794     Total:     1.5251

*** Psi4 exiting successfully. Buy a developer a beer!
