                               Psi4 1.4a3.dev225

  ==> Input File <==

--------------------------------------------------------------------------
#psi4
#
memory 32 gb

molecule  {
0 1
  I       -2.1233850    -0.0000070     0.0029360
  I        0.9137110    -1.7822490    -0.4028610
  I        0.9136990     1.7822560    -0.4028600
  C        0.1632690     0.0000000     1.9871780
  C        0.0090770     0.0000000     0.4634120
  C        1.5921310     0.0000020     2.5199530
  H       -0.3713710     0.8821210     2.3563980
  H       -0.3713680    -0.8821230     2.3563980
  H        2.1414910    -0.8861860     2.1993740
  H        1.5993135     0.0651441     3.6112523
  H        2.1414910     0.8861880     2.1993680
units angstrom
no_reorient  #important for SAPT in psi4, default
symmetry c1  #important for SAPT in psi4, default
}

set PROPERTIES_ORIGIN ["COM"]
properties('MP2/aug-cc-pvtz', properties = ['dipole'])
--------------------------------------------------------------------------

    Molecular point group: c1
  Charge       = 0
  Multiplicity = 1
  Basis Set: AUG-CC-PVTZ
    Blend: AUG-CC-PVTZ
  Basis Set: (AUG-CC-PVTZ AUX)
    Blend: AUG-CC-PVTZ-JKFIT + DEF2-UNIVERSAL-JKFIT

    Orbital Energies [Eh]
    ---------------------

    Doubly Occupied:

       1A    -11.391498     2A    -11.266191     3A    -11.231777
       4A     -7.733926     5A     -7.733894     6A     -7.733702
       7A     -5.566425     8A     -5.566417     9A     -5.566201
      10A     -5.555516    11A     -5.555415    12A     -5.555413
      13A     -5.555378    14A     -5.555294    15A     -5.555178
      16A     -2.296019    17A     -2.295801    18A     -2.295635
      19A     -2.290846    20A     -2.290800    21A     -2.290777
      22A     -2.290702    23A     -2.290616    24A     -2.290491
      25A     -2.278635    26A     -2.278625    27A     -2.278529
      28A     -2.278524    29A     -2.278400    30A     -2.278390
      31A     -1.110869    32A     -0.992358    33A     -0.900268
      34A     -0.897155    35A     -0.875788    36A     -0.735292
      37A     -0.646529    38A     -0.605702    39A     -0.566112
      40A     -0.539350    41A     -0.513287    42A     -0.472030
      43A     -0.465339    44A     -0.395376    45A     -0.394204
      46A     -0.388970    47A     -0.362812    48A     -0.361811
      49A     -0.351199

  @DF-RHF Final Energy: -1000.50931071731952

   => Energetics <=

    Nuclear Repulsion Energy =            645.2435586221167796
    One-Electron Energy =               -2985.5068062600280427
    Two-Electron Energy =                1339.7539369205917410
    Total Energy =                      -1000.5093107173195222
  Basis Set: (AUG-CC-PVTZ AUX)
    Blend: AUG-CC-PVTZ-RI + DEF2-QZVPP-RI
    Molecular point group: c1

    Geometry (in Angstrom), charge = 0, multiplicity = 1:

       Center              X                  Y                   Z               Mass
    ------------   -----------------  -----------------  -----------------  -----------------
         I           -2.096812419424    -0.000162726044     0.072664433337   126.904471900000
         I            0.940283580576    -1.782404726044    -0.333132566663   126.904471900000
         I            0.940271580576     1.782100273956    -0.333131566663   126.904471900000
         C            0.189841580576    -0.000155726044     2.056906433337    12.000000000000
         C            0.035649580576    -0.000155726044     0.533140433337    12.000000000000
         C            1.618703580576    -0.000153726044     2.589681433337    12.000000000000
         H           -0.344798419424     0.881965273956     2.426126433337     1.007825032230
         H           -0.344795419424    -0.882278726044     2.426126433337     1.007825032230
         H            2.168063580576    -0.886341726044     2.269102433337     1.007825032230
         H            1.625886080576     0.064988373956     3.680980733337     1.007825032230
         H            2.168063580576     0.886032273956     2.269096433337     1.007825032230

  Basis Set: AUG-CC-PVTZ
    Blend: AUG-CC-PVTZ
  Basis Set: (AUG-CC-PVTZ AUX)
    Blend: AUG-CC-PVTZ-JKFIT + DEF2-UNIVERSAL-JKFIT
	 Reference Energy          =   -1000.5093107173195222 [Eh]
	 Singles Energy            =      -0.0000000000000000 [Eh]
	 Same-Spin Energy          =      -0.3704288648928294 [Eh]
	 Opposite-Spin Energy      =      -0.9892955311815501 [Eh]
	 Correlation Energy        =      -1.3597243960743794 [Eh]
	 Total Energy              =   -1001.8690351133939203 [Eh]

	 ================> DF-SCS-MP2 Energies <==================
	-----------------------------------------------------------
	 SCS Same-Spin Scale       =       0.3333333333333333 [-]
	 SCS Opposite-Spin Scale   =       1.2000000000000000 [-]
	 SCS Same-Spin Energy      =      -0.1234762882976098 [Eh]
	 SCS Opposite-Spin Energy  =      -1.1871546374178601 [Eh]
	 SCS Correlation Energy    =      -1.3106309257154698 [Eh]
	 SCS Total Energy          =   -1001.8199416430350084 [Eh]
	-----------------------------------------------------------

  Dipole Moment: [D]
     X:     0.3718      Y:     0.0240      Z:     1.4654     Total:     1.5121

*** Psi4 exiting successfully. Buy a developer a beer!
