                               Psi4 1.4a3.dev225

  ==> Input File <==

--------------------------------------------------------------------------
#psi4
#
memory 32 gb

molecule  {
0 1
  I       -2.1233850    -0.0000070     0.0029360
  I        0.9137110    -1.7822490    -0.4028610
  I        0.9136990     1.7822560    -0.4028600
  C        0.1632690     0.0000000     1.9871780
  C        0.0090770     0.0000000     0.4634120
  C        1.5921310     0.0000020     2.5199530
  H       -0.3713710     0.8821210     2.3563980
  H       -0.3713680    -0.8821230     2.3563980
  H        2.1414910    -0.8861860     2.1993740
  H        1.5566146     0.0000064     3.7126897
  H        2.1414910     0.8861880     2.1993680
units angstrom
no_reorient  #important for SAPT in psi4, default
symmetry c1  #important for SAPT in psi4, default
}

set PROPERTIES_ORIGIN ["COM"]
properties('MP2/aug-cc-pvtz', properties = ['dipole'])
--------------------------------------------------------------------------

    Molecular point group: c1
  Charge       = 0
  Multiplicity = 1
  Basis Set: AUG-CC-PVTZ
    Blend: AUG-CC-PVTZ
  Basis Set: (AUG-CC-PVTZ AUX)
    Blend: AUG-CC-PVTZ-JKFIT + DEF2-UNIVERSAL-JKFIT

    Orbital Energies [Eh]
    ---------------------

    Doubly Occupied:

       1A    -11.391840     2A    -11.266677     3A    -11.243713
       4A     -7.734323     5A     -7.734321     6A     -7.734230
       7A     -5.566816     8A     -5.566812     9A     -5.566765
      10A     -5.555911    11A     -5.555907    12A     -5.555812
      13A     -5.555808    14A     -5.555748    15A     -5.555712
      16A     -2.296444    17A     -2.296205    18A     -2.296155
      19A     -2.291270    20A     -2.291198    21A     -2.291164
      22A     -2.291164    23A     -2.291096    24A     -2.291041
      25A     -2.279033    26A     -2.279025    27A     -2.279020
      28A     -2.279018    29A     -2.278860    30A     -2.278855
      31A     -1.110757    32A     -0.988972    33A     -0.900160
      34A     -0.897675    35A     -0.871155    36A     -0.735789
      37A     -0.647108    38A     -0.594733    39A     -0.567328
      40A     -0.540185    41A     -0.504137    42A     -0.471903
      43A     -0.465853    44A     -0.395855    45A     -0.394682
      46A     -0.389292    47A     -0.363263    48A     -0.362272
      49A     -0.351642

  @DF-RHF Final Energy: -1000.50344084421374

   => Energetics <=

    Nuclear Repulsion Energy =            644.7836963393731367
    One-Electron Energy =               -2984.5688776514462006
    Two-Electron Energy =                1339.2817404678594357
    Total Energy =                      -1000.5034408442138556
  Basis Set: (AUG-CC-PVTZ AUX)
    Blend: AUG-CC-PVTZ-RI + DEF2-QZVPP-RI
    Molecular point group: c1

    Geometry (in Angstrom), charge = 0, multiplicity = 1:

       Center              X                  Y                   Z               Mass
    ------------   -----------------  -----------------  -----------------  -----------------
         I           -2.096710385610    -0.000007072199     0.072422037285   126.904471900000
         I            0.940385614390    -1.782249072199    -0.333374962715   126.904471900000
         I            0.940373614390     1.782255927801    -0.333373962715   126.904471900000
         C            0.189943614390    -0.000000072199     2.056664037285    12.000000000000
         C            0.035751614390    -0.000000072199     0.532898037285    12.000000000000
         C            1.618805614390     0.000001927801     2.589439037285    12.000000000000
         H           -0.344696385610     0.882120927801     2.425884037285     1.007825032230
         H           -0.344693385610    -0.882123072199     2.425884037285     1.007825032230
         H            2.168165614390    -0.886186072199     2.268860037285     1.007825032230
         H            1.583289214390     0.000006327801     3.782175737285     1.007825032230
         H            2.168165614390     0.886187927801     2.268854037285     1.007825032230

  Basis Set: AUG-CC-PVTZ
    Blend: AUG-CC-PVTZ
  Basis Set: (AUG-CC-PVTZ AUX)
    Blend: AUG-CC-PVTZ-JKFIT + DEF2-UNIVERSAL-JKFIT
	 Reference Energy          =   -1000.5034408442137419 [Eh]
	 Singles Energy            =      -0.0000000000000000 [Eh]
	 Same-Spin Energy          =      -0.3704053961988075 [Eh]
	 Opposite-Spin Energy      =      -0.9899775267216079 [Eh]
	 Correlation Energy        =      -1.3603829229204154 [Eh]
	 Total Energy              =   -1001.8638237671341358 [Eh]

	 ================> DF-SCS-MP2 Energies <==================
	-----------------------------------------------------------
	 SCS Same-Spin Scale       =       0.3333333333333333 [-]
	 SCS Opposite-Spin Scale   =       1.2000000000000000 [-]
	 SCS Same-Spin Energy      =      -0.1234684653996025 [Eh]
	 SCS Opposite-Spin Energy  =      -1.1879730320659294 [Eh]
	 SCS Correlation Energy    =      -1.3114414974655320 [Eh]
	 SCS Total Energy          =   -1001.8148823416793221 [Eh]
	-----------------------------------------------------------

  Dipole Moment: [D]
     X:     0.3431      Y:    -0.0000      Z:     1.3977     Total:     1.4392

*** Psi4 exiting successfully. Buy a developer a beer!
