                               Psi4 1.4a3.dev225

  ==> Input File <==

--------------------------------------------------------------------------
#psi4
#
memory 32 gb

molecule  {
0 1
  I       -2.1233850    -0.0000070     0.0029360
  I        0.9137110    -1.7822490    -0.4028610
  I        0.9136990     1.7822560    -0.4028600
  C        0.1632690     0.0000000     1.9871780
  C        0.0090770     0.0000000     0.4634120
  C        1.5921310     0.0000020     2.5199530
  H       -0.3713710     0.8821210     2.3563980
  H       -0.3713680    -0.8821230     2.3563980
  H        2.1414910    -0.8861860     2.1993740
  H        1.5581028     0.0000062     3.6627118
  H        2.1414910     0.8861880     2.1993680
units angstrom
no_reorient  #important for SAPT in psi4, default
symmetry c1  #important for SAPT in psi4, default
}

set PROPERTIES_ORIGIN ["COM"]
properties('MP2/aug-cc-pvtz', properties = ['dipole'])
--------------------------------------------------------------------------

    Molecular point group: c1
  Charge       = 0
  Multiplicity = 1
  Basis Set: AUG-CC-PVTZ
    Blend: AUG-CC-PVTZ
  Basis Set: (AUG-CC-PVTZ AUX)
    Blend: AUG-CC-PVTZ-JKFIT + DEF2-UNIVERSAL-JKFIT

    Orbital Energies [Eh]
    ---------------------

    Doubly Occupied:

       1A    -11.391554     2A    -11.266260     3A    -11.237949
       4A     -7.734068     5A     -7.734066     6A     -7.733968
       7A     -5.566560     8A     -5.566556     9A     -5.566496
      10A     -5.555658    11A     -5.555654    12A     -5.555555
      13A     -5.555552    14A     -5.555489    15A     -5.555454
      16A     -2.296185    17A     -2.295949    18A     -2.295888
      19A     -2.291017    20A     -2.290945    21A     -2.290903
      22A     -2.290903    23A     -2.290833    24A     -2.290778
      25A     -2.278779    26A     -2.278771    27A     -2.278766
      28A     -2.278763    29A     -2.278607    30A     -2.278602
      31A     -1.110800    32A     -0.990572    33A     -0.900101
      34A     -0.897411    35A     -0.873022    36A     -0.735526
      37A     -0.646671    38A     -0.600014    39A     -0.566730
      40A     -0.539538    41A     -0.509831    42A     -0.471780
      43A     -0.465591    44A     -0.395595    45A     -0.394426
      46A     -0.389055    47A     -0.363024    48A     -0.362028
      49A     -0.351399

  @DF-RHF Final Energy: -1000.50781565267380

   => Energetics <=

    Nuclear Repulsion Energy =            645.0286715999668559
    One-Electron Energy =               -2985.0736976842431432
    Two-Electron Energy =                1339.5372104316024888
    Total Energy =                      -1000.5078156526737985
  Basis Set: (AUG-CC-PVTZ AUX)
    Blend: AUG-CC-PVTZ-RI + DEF2-QZVPP-RI
    Molecular point group: c1

    Geometry (in Angstrom), charge = 0, multiplicity = 1:

       Center              X                  Y                   Z               Mass
    ------------   -----------------  -----------------  -----------------  -----------------
         I           -2.096713941831    -0.000007071721     0.072541465086   126.904471900000
         I            0.940382058169    -1.782249071721    -0.333255534914   126.904471900000
         I            0.940370058169     1.782255928279    -0.333254534914   126.904471900000
         C            0.189940058169    -0.000000071721     2.056783465086    12.000000000000
         C            0.035748058169    -0.000000071721     0.533017465086    12.000000000000
         C            1.618802058169     0.000001928279     2.589558465086    12.000000000000
         H           -0.344699941831     0.882120928279     2.426003465086     1.007825032230
         H           -0.344696941831    -0.882123071721     2.426003465086     1.007825032230
         H            2.168162058169    -0.886186071721     2.268979465086     1.007825032230
         H            1.584773858169     0.000006128279     3.732317265086     1.007825032230
         H            2.168162058169     0.886187928279     2.268973465086     1.007825032230

  Basis Set: AUG-CC-PVTZ
    Blend: AUG-CC-PVTZ
  Basis Set: (AUG-CC-PVTZ AUX)
    Blend: AUG-CC-PVTZ-JKFIT + DEF2-UNIVERSAL-JKFIT
	 Reference Energy          =   -1000.5078156526737985 [Eh]
	 Singles Energy            =      -0.0000000000000000 [Eh]
	 Same-Spin Energy          =      -0.3704072960934412 [Eh]
	 Opposite-Spin Energy      =      -0.9896032579728605 [Eh]
	 Correlation Energy        =      -1.3600105540663017 [Eh]
	 Total Energy              =   -1001.8678262067401192 [Eh]

	 ================> DF-SCS-MP2 Energies <==================
	-----------------------------------------------------------
	 SCS Same-Spin Scale       =       0.3333333333333333 [-]
	 SCS Opposite-Spin Scale   =       1.2000000000000000 [-]
	 SCS Same-Spin Energy      =      -0.1234690986978137 [Eh]
	 SCS Opposite-Spin Energy  =      -1.1875239095674326 [Eh]
	 SCS Correlation Energy    =      -1.3109930082652463 [Eh]
	 SCS Total Energy          =   -1001.8188086609389984 [Eh]
	-----------------------------------------------------------

  Dipole Moment: [D]
     X:     0.3553      Y:    -0.0000      Z:     1.4347     Total:     1.4780

*** Psi4 exiting successfully. Buy a developer a beer!
