                               Psi4 1.4a3.dev225

  ==> Input File <==

--------------------------------------------------------------------------
#psi4
#
memory 32 gb

molecule  {
0 1
  I       -2.1233850    -0.0000070     0.0029360
  I        0.9137110    -1.7822490    -0.4028610
  I        0.9136990     1.7822560    -0.4028600
  C        0.1632690     0.0000000     1.9871780
  C        0.0292125     0.0000000     0.6623958
  C        1.5921310     0.0000020     2.5199530
  H       -0.3713710     0.8821210     2.3563980
  H       -0.3713680    -0.8821230     2.3563980
  H        2.1414910    -0.8861860     2.1993740
  H        1.5595910     0.0000060     3.6127340
  H        2.1414910     0.8861880     2.1993680
units angstrom
no_reorient  #important for SAPT in psi4, default
symmetry c1  #important for SAPT in psi4, default
}

set PROPERTIES_ORIGIN ["COM"]
properties('MP2/aug-cc-pvtz', properties = ['dipole'])
--------------------------------------------------------------------------

    Molecular point group: c1
  Charge       = 0
  Multiplicity = 1
  Basis Set: AUG-CC-PVTZ
    Blend: AUG-CC-PVTZ
  Basis Set: (AUG-CC-PVTZ AUX)
    Blend: AUG-CC-PVTZ-JKFIT + DEF2-UNIVERSAL-JKFIT

    Orbital Energies [Eh]
    ---------------------

    Doubly Occupied:

       1A    -11.395511     2A    -11.256552     3A    -11.239308
       4A     -7.731866     5A     -7.730639     6A     -7.730637
       7A     -5.564340     8A     -5.563054     9A     -5.563049
      10A     -5.553366    11A     -5.553273    12A     -5.552210
      13A     -5.552205    14A     -5.552062    15A     -5.552058
      16A     -2.293499    17A     -2.292234    18A     -2.292115
      19A     -2.288697    20A     -2.288611    21A     -2.287502
      22A     -2.287428    23A     -2.287319    24A     -2.287303
      25A     -2.276421    26A     -2.276407    27A     -2.275283
      28A     -2.275270    29A     -2.275261    30A     -2.275257
      31A     -1.160777    32A     -0.984268    33A     -0.908913
      34A     -0.889297    35A     -0.884059    36A     -0.742879
      37A     -0.667649    38A     -0.617771    39A     -0.582261
      40A     -0.548796    41A     -0.535188    42A     -0.448617
      43A     -0.443165    44A     -0.400360    45A     -0.392637
      46A     -0.390909    47A     -0.355966    48A     -0.355221
      49A     -0.348505

  @DF-RHF Final Energy: -1000.47662876788627

   => Energetics <=

    Nuclear Repulsion Energy =            644.4163114488602560
    One-Electron Energy =               -2983.7739329792875651
    Two-Electron Energy =                1338.8809927625411547
    Total Energy =                      -1000.4766287678862682
  Basis Set: (AUG-CC-PVTZ AUX)
    Blend: AUG-CC-PVTZ-RI + DEF2-QZVPP-RI
    Molecular point group: c1

    Geometry (in Angstrom), charge = 0, multiplicity = 1:

       Center              X                  Y                   Z               Mass
    ------------   -----------------  -----------------  -----------------  -----------------
         I           -2.097290407463    -0.000007071243     0.066999265584   126.904471900000
         I            0.939805592537    -1.782249071243    -0.338797734416   126.904471900000
         I            0.939793592537     1.782255928757    -0.338796734416   126.904471900000
         C            0.189363592537    -0.000000071243     2.051241265584    12.000000000000
         C            0.055307092537    -0.000000071243     0.726459065584    12.000000000000
         C            1.618225592537     0.000001928757     2.584016265584    12.000000000000
         H           -0.345276407463     0.882120928757     2.420461265584     1.007825032230
         H           -0.345273407463    -0.882123071243     2.420461265584     1.007825032230
         H            2.167585592537    -0.886186071243     2.263437265584     1.007825032230
         H            1.585685592537     0.000005928757     3.676797265584     1.007825032230
         H            2.167585592537     0.886187928757     2.263431265584     1.007825032230

  Basis Set: AUG-CC-PVTZ
    Blend: AUG-CC-PVTZ
  Basis Set: (AUG-CC-PVTZ AUX)
    Blend: AUG-CC-PVTZ-JKFIT + DEF2-UNIVERSAL-JKFIT
	 Reference Energy          =   -1000.4766287678862682 [Eh]
	 Singles Energy            =      -0.0000000000000000 [Eh]
	 Same-Spin Energy          =      -0.3728136076675938 [Eh]
	 Opposite-Spin Energy      =      -0.9926396964433435 [Eh]
	 Correlation Energy        =      -1.3654533041109373 [Eh]
	 Total Energy              =   -1001.8420820719971971 [Eh]

	 ================> DF-SCS-MP2 Energies <==================
	-----------------------------------------------------------
	 SCS Same-Spin Scale       =       0.3333333333333333 [-]
	 SCS Opposite-Spin Scale   =       1.2000000000000000 [-]
	 SCS Same-Spin Energy      =      -0.1242712025558646 [Eh]
	 SCS Opposite-Spin Energy  =      -1.1911676357320122 [Eh]
	 SCS Correlation Energy    =      -1.3154388382878768 [Eh]
	 SCS Total Energy          =   -1001.7920676061741005 [Eh]
	-----------------------------------------------------------

  Dipole Moment: [D]
     X:     0.4002      Y:    -0.0000      Z:     1.8125     Total:     1.8562

*** Psi4 exiting successfully. Buy a developer a beer!
