                               Psi4 1.4a3.dev225

  ==> Input File <==

--------------------------------------------------------------------------
#psi4
#
memory 32 gb

molecule  {
0 1
  I       -2.1233850    -0.0000070     0.0029360
  I        0.9137110    -1.7822490    -0.4028610
  I        0.9136990     1.7822560    -0.4028600
  C        0.1632690     0.0000000     1.9871780
  C        0.0090770     0.0000000     0.4634120
  C        1.5921310     0.0000020     2.5199530
  H       -0.3957708     0.9223791     2.3732484
  H       -0.3713680    -0.8821230     2.3563980
  H        2.1414910    -0.8861860     2.1993740
  H        1.5595910     0.0000060     3.6127340
  H        2.1414910     0.8861880     2.1993680
units angstrom
no_reorient  #important for SAPT in psi4, default
symmetry c1  #important for SAPT in psi4, default
}

set PROPERTIES_ORIGIN ["COM"]
properties('MP2/aug-cc-pvtz', properties = ['dipole'])
--------------------------------------------------------------------------

    Molecular point group: c1
  Charge       = 0
  Multiplicity = 1
  Basis Set: AUG-CC-PVTZ
    Blend: AUG-CC-PVTZ
  Basis Set: (AUG-CC-PVTZ AUX)
    Blend: AUG-CC-PVTZ-JKFIT + DEF2-UNIVERSAL-JKFIT

    Orbital Energies [Eh]
    ---------------------

    Doubly Occupied:

       1A    -11.391504     2A    -11.271562     3A    -11.232394
       4A     -7.734080     5A     -7.733790     6A     -7.733660
       7A     -5.566577     8A     -5.566289     9A     -5.566192
      10A     -5.555670    11A     -5.555559    12A     -5.555373
      13A     -5.555274    14A     -5.555177    15A     -5.555146
      16A     -2.296103    17A     -2.295767    18A     -2.295601
      19A     -2.291004    20A     -2.290889    21A     -2.290700
      22A     -2.290624    23A     -2.290538    24A     -2.290499
      25A     -2.278781    26A     -2.278771    27A     -2.278488
      28A     -2.278478    29A     -2.278294    30A     -2.278289
      31A     -1.109350    32A     -0.992385    33A     -0.899489
      34A     -0.897212    35A     -0.873546    36A     -0.732912
      37A     -0.641909    38A     -0.605856    39A     -0.566265
      40A     -0.537963    41A     -0.514136    42A     -0.471375
      43A     -0.463095    44A     -0.395373    45A     -0.394229
      46A     -0.388879    47A     -0.362837    48A     -0.361809
      49A     -0.351206

  @DF-RHF Final Energy: -1000.50769602730520

   => Energetics <=

    Nuclear Repulsion Energy =            645.0266126754062270
    One-Electron Energy =               -2985.0868151334670983
    Two-Electron Energy =                1339.5525064307555567
    Total Energy =                      -1000.5076960273052009
  Basis Set: (AUG-CC-PVTZ AUX)
    Blend: AUG-CC-PVTZ-RI + DEF2-QZVPP-RI
    Molecular point group: c1

    Geometry (in Angstrom), charge = 0, multiplicity = 1:

       Center              X                  Y                   Z               Mass
    ------------   -----------------  -----------------  -----------------  -----------------
         I           -2.096659191991    -0.000103272491     0.072620626726   126.904471900000
         I            0.940436808009    -1.782345272491    -0.333176373274   126.904471900000
         I            0.940424808009     1.782159727509    -0.333175373274   126.904471900000
         C            0.189994808009    -0.000096272491     2.056862626726    12.000000000000
         C            0.035802808009    -0.000096272491     0.533096626726    12.000000000000
         C            1.618856808009    -0.000094272491     2.589637626726    12.000000000000
         H           -0.369044991991     0.922282827509     2.442933026726     1.007825032230
         H           -0.344642191991    -0.882219272491     2.426082626726     1.007825032230
         H            2.168216808009    -0.886282272491     2.269058626726     1.007825032230
         H            1.586316808009    -0.000090272491     3.682418626726     1.007825032230
         H            2.168216808009     0.886091727509     2.269052626726     1.007825032230

  Basis Set: AUG-CC-PVTZ
    Blend: AUG-CC-PVTZ
  Basis Set: (AUG-CC-PVTZ AUX)
    Blend: AUG-CC-PVTZ-JKFIT + DEF2-UNIVERSAL-JKFIT
	 Reference Energy          =   -1000.5076960273052009 [Eh]
	 Singles Energy            =      -0.0000000000000000 [Eh]
	 Same-Spin Energy          =      -0.3705146601159721 [Eh]
	 Opposite-Spin Energy      =      -0.9896757440843605 [Eh]
	 Correlation Energy        =      -1.3601904042003325 [Eh]
	 Total Energy              =   -1001.8678864315055534 [Eh]

	 ================> DF-SCS-MP2 Energies <==================
	-----------------------------------------------------------
	 SCS Same-Spin Scale       =       0.3333333333333333 [-]
	 SCS Opposite-Spin Scale   =       1.2000000000000000 [-]
	 SCS Same-Spin Energy      =      -0.1235048867053240 [Eh]
	 SCS Opposite-Spin Energy  =      -1.1876108929012326 [Eh]
	 SCS Correlation Energy    =      -1.3111157796065567 [Eh]
	 SCS Total Energy          =   -1001.8188118069117536 [Eh]
	-----------------------------------------------------------

  Dipole Moment: [D]
     X:     0.3789      Y:    -0.0110      Z:     1.4638     Total:     1.5121

*** Psi4 exiting successfully. Buy a developer a beer!
