                               Psi4 1.4a3.dev225

  ==> Input File <==

--------------------------------------------------------------------------
#psi4
#
memory 32 gb

molecule  {
0 1
  I       -2.1233850    -0.0000070     0.0029360
  I        0.9137110    -1.7822490    -0.4028610
  I        0.9136990     1.7822560    -0.4028600
  C        0.1632690     0.0000000     1.9871780
  C        0.0235172    -0.0224606     0.4621852
  C        1.5921310     0.0000020     2.5199530
  H       -0.3713710     0.8821210     2.3563980
  H       -0.3713680    -0.8821230     2.3563980
  H        2.1414910    -0.8861860     2.1993740
  H        1.5595910     0.0000060     3.6127340
  H        2.1414910     0.8861880     2.1993680
units angstrom
no_reorient  #important for SAPT in psi4, default
symmetry c1  #important for SAPT in psi4, default
}

set PROPERTIES_ORIGIN ["COM"]
properties('MP2/aug-cc-pvtz', properties = ['dipole'])
--------------------------------------------------------------------------

    Molecular point group: c1
  Charge       = 0
  Multiplicity = 1
  Basis Set: AUG-CC-PVTZ
    Blend: AUG-CC-PVTZ
  Basis Set: (AUG-CC-PVTZ AUX)
    Blend: AUG-CC-PVTZ-JKFIT + DEF2-UNIVERSAL-JKFIT

    Orbital Energies [Eh]
    ---------------------

    Doubly Occupied:

       1A    -11.391378     2A    -11.265915     3A    -11.231917
       4A     -7.736001     5A     -7.732833     6A     -7.732580
       7A     -5.568561     8A     -5.565296     9A     -5.565064
      10A     -5.557583    11A     -5.557477    12A     -5.554429
      13A     -5.554322    14A     -5.554112    15A     -5.554075
      16A     -2.298185    17A     -2.294729    18A     -2.294424
      19A     -2.292974    20A     -2.292861    21A     -2.289722
      22A     -2.289620    23A     -2.289431    24A     -2.289392
      25A     -2.280688    26A     -2.280678    27A     -2.277549
      28A     -2.277540    29A     -2.277240    30A     -2.277236
      31A     -1.111160    32A     -0.992475    33A     -0.901295
      34A     -0.896785    35A     -0.874289    36A     -0.735745
      37A     -0.646361    38A     -0.606083    39A     -0.566093
      40A     -0.538982    41A     -0.515090    42A     -0.471454
      43A     -0.465842    44A     -0.396757    45A     -0.393280
      46A     -0.388096    47A     -0.363640    48A     -0.360939
      49A     -0.351071

  @DF-RHF Final Energy: -1000.50956870049902

   => Energetics <=

    Nuclear Repulsion Energy =            645.3007022524426475
    One-Electron Energy =               -2985.6220470803796161
    Two-Electron Energy =                1339.8117761274381792
    Total Energy =                      -1000.5095687004989031
  Basis Set: (AUG-CC-PVTZ AUX)
    Blend: AUG-CC-PVTZ-RI + DEF2-QZVPP-RI
    Molecular point group: c1

    Geometry (in Angstrom), charge = 0, multiplicity = 1:

       Center              X                  Y                   Z               Mass
    ------------   -----------------  -----------------  -----------------  -----------------
         I           -2.097128360781     0.000631993549     0.072695798425   126.904471900000
         I            0.939967639219    -1.781610006451    -0.333101201575   126.904471900000
         I            0.939955639219     1.782894993549    -0.333100201575   126.904471900000
         C            0.189525639219     0.000638993549     2.056937798425    12.000000000000
         C            0.049773839219    -0.021821606451     0.531944998425    12.000000000000
         C            1.618387639219     0.000640993549     2.589712798425    12.000000000000
         H           -0.345114360781     0.882759993549     2.426157798425     1.007825032230
         H           -0.345111360781    -0.881484006451     2.426157798425     1.007825032230
         H            2.167747639219    -0.885547006451     2.269133798425     1.007825032230
         H            1.585847639219     0.000644993549     3.682493798425     1.007825032230
         H            2.167747639219     0.886826993549     2.269127798425     1.007825032230

  Basis Set: AUG-CC-PVTZ
    Blend: AUG-CC-PVTZ
  Basis Set: (AUG-CC-PVTZ AUX)
    Blend: AUG-CC-PVTZ-JKFIT + DEF2-UNIVERSAL-JKFIT
	 Reference Energy          =   -1000.5095687004990168 [Eh]
	 Singles Energy            =      -0.0000000000000000 [Eh]
	 Same-Spin Energy          =      -0.3704305319624636 [Eh]
	 Opposite-Spin Energy      =      -0.9893173262892156 [Eh]
	 Correlation Energy        =      -1.3597478582516791 [Eh]
	 Total Energy              =   -1001.8693165587507110 [Eh]

	 ================> DF-SCS-MP2 Energies <==================
	-----------------------------------------------------------
	 SCS Same-Spin Scale       =       0.3333333333333333 [-]
	 SCS Opposite-Spin Scale   =       1.2000000000000000 [-]
	 SCS Same-Spin Energy      =      -0.1234768439874878 [Eh]
	 SCS Opposite-Spin Energy  =      -1.1871807915470587 [Eh]
	 SCS Correlation Energy    =      -1.3106576355345465 [Eh]
	 SCS Total Energy          =   -1001.8202263360335564 [Eh]
	-----------------------------------------------------------

  Dipole Moment: [D]
     X:     0.4182      Y:    -0.0868      Z:     1.4602     Total:     1.5213

*** Psi4 exiting successfully. Buy a developer a beer!
