                               Psi4 1.4a3.dev225

  ==> Input File <==

--------------------------------------------------------------------------
#psi4
#
memory 32 gb

molecule  {
0 1
  I       -2.1233850    -0.0000070     0.0029360
  I        0.9137110    -1.7822490    -0.4028610
  I        0.9136990     1.7822560    -0.4028600
  C        0.1632690     0.0000000     1.9871780
  C        0.0090770     0.0000000     0.4634120
  C        1.5921310     0.0000020     2.5199530
  H       -0.3713710     0.8821210     2.3563980
  H       -0.3713680    -0.8821230     2.3563980
  H        2.1414910    -0.8861860     2.1993740
  H        1.5200271    -0.0651321     3.6088918
  H        2.1414910     0.8861880     2.1993680
units angstrom
no_reorient  #important for SAPT in psi4, default
symmetry c1  #important for SAPT in psi4, default
}

set PROPERTIES_ORIGIN ["COM"]
properties('MP2/aug-cc-pvtz', properties = ['dipole'])
--------------------------------------------------------------------------

    Molecular point group: c1
  Charge       = 0
  Multiplicity = 1
  Basis Set: AUG-CC-PVTZ
    Blend: AUG-CC-PVTZ
  Basis Set: (AUG-CC-PVTZ AUX)
    Blend: AUG-CC-PVTZ-JKFIT + DEF2-UNIVERSAL-JKFIT

    Orbital Energies [Eh]
    ---------------------

    Doubly Occupied:

       1A    -11.391093     2A    -11.265653     3A    -11.232257
       4A     -7.733982     5A     -7.733752     6A     -7.733562
       7A     -5.566465     8A     -5.566243     9A     -5.566073
      10A     -5.555574    11A     -5.555477    12A     -5.555346
      13A     -5.555235    14A     -5.555093    15A     -5.555059
      16A     -2.295995    17A     -2.295704    18A     -2.295489
      19A     -2.290893    20A     -2.290791    21A     -2.290663
      22A     -2.290565    23A     -2.290437    24A     -2.290394
      25A     -2.278701    26A     -2.278691    27A     -2.278460
      28A     -2.278450    29A     -2.278223    30A     -2.278218
      31A     -1.111163    32A     -0.993006    33A     -0.900038
      34A     -0.897197    35A     -0.874698    36A     -0.735372
      37A     -0.646737    38A     -0.606338    39A     -0.566342
      40A     -0.539570    41A     -0.514707    42A     -0.471110
      43A     -0.465356    44A     -0.395346    45A     -0.394193
      46A     -0.388712    47A     -0.362823    48A     -0.361789
      49A     -0.351161

  @DF-RHF Final Energy: -1000.50931379013093

   => Energetics <=

    Nuclear Repulsion Energy =            645.3402975613926174
    One-Electron Energy =               -2985.7028195799016430
    Two-Electron Energy =                1339.8532082283779800
    Total Energy =                      -1000.5093137901310456
  Basis Set: (AUG-CC-PVTZ AUX)
    Blend: AUG-CC-PVTZ-RI + DEF2-QZVPP-RI
    Molecular point group: c1

    Geometry (in Angstrom), charge = 0, multiplicity = 1:

       Center              X                  Y                   Z               Mass
    ------------   -----------------  -----------------  -----------------  -----------------
         I           -2.096622955672     0.000148583558     0.072670074017   126.904471900000
         I            0.940473044328    -1.782093416442    -0.333126925983   126.904471900000
         I            0.940461044328     1.782411583558    -0.333125925983   126.904471900000
         C            0.190031044328     0.000155583558     2.056912074017    12.000000000000
         C            0.035839044328     0.000155583558     0.533146074017    12.000000000000
         C            1.618893044328     0.000157583558     2.589687074017    12.000000000000
         H           -0.344608955672     0.882276583558     2.426132074017     1.007825032230
         H           -0.344605955672    -0.881967416442     2.426132074017     1.007825032230
         H            2.168253044328    -0.886030416442     2.269108074017     1.007825032230
         H            1.546789144328    -0.064976516442     3.678625874017     1.007825032230
         H            2.168253044328     0.886343583558     2.269102074017     1.007825032230

  Basis Set: AUG-CC-PVTZ
    Blend: AUG-CC-PVTZ
  Basis Set: (AUG-CC-PVTZ AUX)
    Blend: AUG-CC-PVTZ-JKFIT + DEF2-UNIVERSAL-JKFIT
	 Reference Energy          =   -1000.5093137901309319 [Eh]
	 Singles Energy            =      -0.0000000000000000 [Eh]
	 Same-Spin Energy          =      -0.3704520976706002 [Eh]
	 Opposite-Spin Energy      =      -0.9893337302093432 [Eh]
	 Correlation Energy        =      -1.3597858278799433 [Eh]
	 Total Energy              =   -1001.8690996180108641 [Eh]

	 ================> DF-SCS-MP2 Energies <==================
	-----------------------------------------------------------
	 SCS Same-Spin Scale       =       0.3333333333333333 [-]
	 SCS Opposite-Spin Scale   =       1.2000000000000000 [-]
	 SCS Same-Spin Energy      =      -0.1234840325568667 [Eh]
	 SCS Opposite-Spin Energy  =      -1.1872004762512118 [Eh]
	 SCS Correlation Energy    =      -1.3106845088080785 [Eh]
	 SCS Total Energy          =   -1001.8199982989390264 [Eh]
	-----------------------------------------------------------

  Dipole Moment: [D]
     X:     0.3632      Y:    -0.0221      Z:     1.4673     Total:     1.5118

*** Psi4 exiting successfully. Buy a developer a beer!
