                               Psi4 1.4a3.dev225

  ==> Input File <==

--------------------------------------------------------------------------
#psi4
#
memory 32 gb

molecule  {
0 1
  I       -2.1233850    -0.0000070     0.0029360
  I        0.9137110    -1.7822490    -0.4028610
  I        0.9136990     1.7822560    -0.4028600
  C        0.1632690     0.0000000     1.9871780
  C       -0.0481704     0.0897741     0.4729548
  C        1.5921310     0.0000020     2.5199530
  H       -0.3713710     0.8821210     2.3563980
  H       -0.3713680    -0.8821230     2.3563980
  H        2.1414910    -0.8861860     2.1993740
  H        1.5595910     0.0000060     3.6127340
  H        2.1414910     0.8861880     2.1993680
units angstrom
no_reorient  #important for SAPT in psi4, default
symmetry c1  #important for SAPT in psi4, default
}

set PROPERTIES_ORIGIN ["COM"]
properties('MP2/aug-cc-pvtz', properties = ['dipole'])
--------------------------------------------------------------------------

    Molecular point group: c1
  Charge       = 0
  Multiplicity = 1
  Basis Set: AUG-CC-PVTZ
    Blend: AUG-CC-PVTZ
  Basis Set: (AUG-CC-PVTZ AUX)
    Blend: AUG-CC-PVTZ-JKFIT + DEF2-UNIVERSAL-JKFIT

    Orbital Energies [Eh]
    ---------------------

    Doubly Occupied:

       1A    -11.392789     2A    -11.266784     3A    -11.232699
       4A     -7.738571     5A     -7.738182     6A     -7.724297
       7A     -5.571247     8A     -5.570803     9A     -5.560072
      10A     -5.560035    11A     -5.559759    12A     -5.559637
      13A     -5.556450    14A     -5.545990    15A     -5.545884
      16A     -2.301041    17A     -2.300524    18A     -2.295593
      19A     -2.295560    20A     -2.295219    21A     -2.295078
      22A     -2.285450    23A     -2.283167    24A     -2.283159
      25A     -2.282845    26A     -2.282831    27A     -2.280958
      28A     -2.280844    29A     -2.269234    30A     -2.269225
      31A     -1.111868    32A     -0.995510    33A     -0.907082
      34A     -0.886778    35A     -0.878992    36A     -0.734106
      37A     -0.646463    38A     -0.607219    39A     -0.567919
      40A     -0.539154    41A     -0.516608    42A     -0.475222
      43A     -0.461762    44A     -0.399054    45A     -0.394535
      46A     -0.383152    47A     -0.366553    48A     -0.357211
      49A     -0.350107

  @DF-RHF Final Energy: -1000.50571272342336

   => Energetics <=

    Nuclear Repulsion Energy =            645.2099389026598146
    One-Electron Energy =               -2985.4248548384275637
    Two-Electron Energy =                1339.7092032123443914
    Total Energy =                      -1000.5057127234233576
  Basis Set: (AUG-CC-PVTZ AUX)
    Blend: AUG-CC-PVTZ-RI + DEF2-QZVPP-RI
    Molecular point group: c1

    Geometry (in Angstrom), charge = 0, multiplicity = 1:

       Center              X                  Y                   Z               Mass
    ------------   -----------------  -----------------  -----------------  -----------------
         I           -2.095088654753    -0.002561387093     0.072389374189   126.904471900000
         I            0.942007345247    -1.784803387093    -0.333407625811   126.904471900000
         I            0.941995345247     1.779701612907    -0.333406625811   126.904471900000
         C            0.191565345247    -0.002554387093     2.056631374189    12.000000000000
         C           -0.019874054753     0.087219712907     0.542408174189    12.000000000000
         C            1.620427345247    -0.002552387093     2.589406374189    12.000000000000
         H           -0.343074654753     0.879566612907     2.425851374189     1.007825032230
         H           -0.343071654753    -0.884677387093     2.425851374189     1.007825032230
         H            2.169787345247    -0.888740387093     2.268827374189     1.007825032230
         H            1.587887345247    -0.002548387093     3.682187374189     1.007825032230
         H            2.169787345247     0.883633612907     2.268821374189     1.007825032230

  Basis Set: AUG-CC-PVTZ
    Blend: AUG-CC-PVTZ
  Basis Set: (AUG-CC-PVTZ AUX)
    Blend: AUG-CC-PVTZ-JKFIT + DEF2-UNIVERSAL-JKFIT
	 Reference Energy          =   -1000.5057127234233576 [Eh]
	 Singles Energy            =      -0.0000000000000000 [Eh]
	 Same-Spin Energy          =      -0.3706870753619474 [Eh]
	 Opposite-Spin Energy      =      -0.9895688552942975 [Eh]
	 Correlation Energy        =      -1.3602559306562449 [Eh]
	 Total Energy              =   -1001.8659686540795519 [Eh]

	 ================> DF-SCS-MP2 Energies <==================
	-----------------------------------------------------------
	 SCS Same-Spin Scale       =       0.3333333333333333 [-]
	 SCS Opposite-Spin Scale   =       1.2000000000000000 [-]
	 SCS Same-Spin Energy      =      -0.1235623584539825 [Eh]
	 SCS Opposite-Spin Energy  =      -1.1874826263531570 [Eh]
	 SCS Correlation Energy    =      -1.3110449848071395 [Eh]
	 SCS Total Energy          =   -1001.8167577082305115 [Eh]
	-----------------------------------------------------------

  Dipole Moment: [D]
     X:     0.1622      Y:     0.3444      Z:     1.5054     Total:     1.5528

*** Psi4 exiting successfully. Buy a developer a beer!
