                               Psi4 1.4a3.dev225

  ==> Input File <==

--------------------------------------------------------------------------
#psi4
#
memory 32 gb

molecule  {
0 1
  I       -2.1233850    -0.0000070     0.0029360
  I        0.9137110    -1.7822490    -0.4028610
  I        0.9136990     1.7822560    -0.4028600
  C        0.1632690     0.0000000     1.9871780
  C        0.0173826     0.0163634     0.4554585
  C        1.5921310     0.0000020     2.5199530
  H       -0.3713710     0.8821210     2.3563980
  H       -0.3713680    -0.8821230     2.3563980
  H        2.1414910    -0.8861860     2.1993740
  H        1.5595910     0.0000060     3.6127340
  H        2.1414910     0.8861880     2.1993680
units angstrom
no_reorient  #important for SAPT in psi4, default
symmetry c1  #important for SAPT in psi4, default
}

set PROPERTIES_ORIGIN ["COM"]
properties('MP2/aug-cc-pvtz', properties = ['dipole'])
--------------------------------------------------------------------------

    Molecular point group: c1
  Charge       = 0
  Multiplicity = 1
  Basis Set: AUG-CC-PVTZ
    Blend: AUG-CC-PVTZ
  Basis Set: (AUG-CC-PVTZ AUX)
    Blend: AUG-CC-PVTZ-JKFIT + DEF2-UNIVERSAL-JKFIT

    Orbital Energies [Eh]
    ---------------------

    Doubly Occupied:

       1A    -11.391150     2A    -11.266270     3A    -11.231816
       4A     -7.735414     5A     -7.733116     6A     -7.733046
       7A     -5.567955     8A     -5.565586     9A     -5.565546
      10A     -5.557000    11A     -5.556896    12A     -5.554712
      13A     -5.554607    14A     -5.554576    15A     -5.554543
      16A     -2.297550    17A     -2.295080    18A     -2.294906
      19A     -2.292373    20A     -2.292261    21A     -2.290014
      22A     -2.289945    23A     -2.289905    24A     -2.289846
      25A     -2.280112    26A     -2.280102    27A     -2.277834
      28A     -2.277825    29A     -2.277705    30A     -2.277701
      31A     -1.109849    32A     -0.992882    33A     -0.900824
      34A     -0.897227    35A     -0.874000    36A     -0.735336
      37A     -0.645833    38A     -0.605769    39A     -0.565677
      40A     -0.538761    41A     -0.514348    42A     -0.472241
      43A     -0.466385    44A     -0.396251    45A     -0.393556
      46A     -0.387923    47A     -0.363557    48A     -0.361445
      49A     -0.351181

  @DF-RHF Final Energy: -1000.50974772122504

   => Energetics <=

    Nuclear Repulsion Energy =            645.3276228378875885
    One-Electron Energy =               -2985.6778654621402893
    Two-Electron Energy =                1339.8404949030275475
    Total Energy =                      -1000.5097477212250396
  Basis Set: (AUG-CC-PVTZ AUX)
    Blend: AUG-CC-PVTZ-RI + DEF2-QZVPP-RI
    Molecular point group: c1

    Geometry (in Angstrom), charge = 0, multiplicity = 1:

       Center              X                  Y                   Z               Mass
    ------------   -----------------  -----------------  -----------------  -----------------
         I           -2.096953814826    -0.000472654212     0.072887191226   126.904471900000
         I            0.940142185174    -1.782714654212    -0.332909808774   126.904471900000
         I            0.940130185174     1.781790345788    -0.332908808774   126.904471900000
         C            0.189700185174    -0.000465654212     2.057129191226    12.000000000000
         C            0.043813785174     0.015897745788     0.525409691226    12.000000000000
         C            1.618562185174    -0.000463654212     2.589904191226    12.000000000000
         H           -0.344939814826     0.881655345788     2.426349191226     1.007825032230
         H           -0.344936814826    -0.882588654212     2.426349191226     1.007825032230
         H            2.167922185174    -0.886651654212     2.269325191226     1.007825032230
         H            1.586022185174    -0.000459654212     3.682685191226     1.007825032230
         H            2.167922185174     0.885722345788     2.269319191226     1.007825032230

  Basis Set: AUG-CC-PVTZ
    Blend: AUG-CC-PVTZ
  Basis Set: (AUG-CC-PVTZ AUX)
    Blend: AUG-CC-PVTZ-JKFIT + DEF2-UNIVERSAL-JKFIT
	 Reference Energy          =   -1000.5097477212250396 [Eh]
	 Singles Energy            =      -0.0000000000000000 [Eh]
	 Same-Spin Energy          =      -0.3703902005250912 [Eh]
	 Opposite-Spin Energy      =      -0.9892524313341717 [Eh]
	 Correlation Energy        =      -1.3596426318592629 [Eh]
	 Total Energy              =   -1001.8693903530843272 [Eh]

	 ================> DF-SCS-MP2 Energies <==================
	-----------------------------------------------------------
	 SCS Same-Spin Scale       =       0.3333333333333333 [-]
	 SCS Opposite-Spin Scale   =       1.2000000000000000 [-]
	 SCS Same-Spin Energy      =      -0.1234634001750304 [Eh]
	 SCS Opposite-Spin Energy  =      -1.1871029176010059 [Eh]
	 SCS Correlation Energy    =      -1.3105663177760363 [Eh]
	 SCS Total Energy          =   -1001.8203140390011185 [Eh]
	-----------------------------------------------------------

  Dipole Moment: [D]
     X:     0.3989      Y:     0.0628      Z:     1.4587     Total:     1.5136

*** Psi4 exiting successfully. Buy a developer a beer!
