                               Psi4 1.4a3.dev225

  ==> Input File <==

--------------------------------------------------------------------------
#psi4
#
memory 32 gb

molecule  {
0 1
  I       -2.1233850    -0.0000070     0.0029360
  I        0.9137110    -1.7822490    -0.4028610
  I        0.9136990     1.7822560    -0.4028600
  C        0.1632690     0.0000000     1.9871780
  C        0.0090770     0.0000000     0.4634120
  C        1.5921310     0.0000020     2.5199530
  H       -0.3713710     0.8821210     2.3563980
  H       -0.3713680    -0.8821230     2.3563980
  H        2.1414910    -0.8861860     2.1993740
  H        1.5003649    -0.0976019     3.6049791
  H        2.1414910     0.8861880     2.1993680
units angstrom
no_reorient  #important for SAPT in psi4, default
symmetry c1  #important for SAPT in psi4, default
}

set PROPERTIES_ORIGIN ["COM"]
properties('MP2/aug-cc-pvtz', properties = ['dipole'])
--------------------------------------------------------------------------

    Molecular point group: c1
  Charge       = 0
  Multiplicity = 1
  Basis Set: AUG-CC-PVTZ
    Blend: AUG-CC-PVTZ
  Basis Set: (AUG-CC-PVTZ AUX)
    Blend: AUG-CC-PVTZ-JKFIT + DEF2-UNIVERSAL-JKFIT

    Orbital Energies [Eh]
    ---------------------

    Doubly Occupied:

       1A    -11.390979     2A    -11.265558     3A    -11.232397
       4A     -7.734053     5A     -7.733707     6A     -7.733472
       7A     -5.566531     8A     -5.566199     9A     -5.565978
      10A     -5.555646    11A     -5.555553    12A     -5.555303
      13A     -5.555189    14A     -5.555006    15A     -5.554972
      16A     -2.296044    17A     -2.295669    18A     -2.295400
      19A     -2.290957    20A     -2.290861    21A     -2.290622
      22A     -2.290515    23A     -2.290346    24A     -2.290306
      25A     -2.278778    26A     -2.278767    27A     -2.278415
      28A     -2.278406    29A     -2.278139    30A     -2.278134
      31A     -1.111273    32A     -0.993241    33A     -0.899992
      34A     -0.897206    35A     -0.874479    36A     -0.735431
      37A     -0.647217    38A     -0.606371    39A     -0.566417
      40A     -0.540168    41A     -0.513973    42A     -0.470830
      43A     -0.465340    44A     -0.395333    45A     -0.394189
      46A     -0.388640    47A     -0.362830    48A     -0.361772
      49A     -0.351147

  @DF-RHF Final Energy: -1000.50861899306904

   => Energetics <=

    Nuclear Repulsion Energy =            645.3711407922143053
    One-Electron Energy =               -2985.7640158642511778
    Two-Electron Energy =                1339.8842560789678373
    Total Energy =                      -1000.5086189930691489
  Basis Set: (AUG-CC-PVTZ AUX)
    Blend: AUG-CC-PVTZ-RI + DEF2-QZVPP-RI
    Molecular point group: c1

    Geometry (in Angstrom), charge = 0, multiplicity = 1:

       Center              X                  Y                   Z               Mass
    ------------   -----------------  -----------------  -----------------  -----------------
         I           -2.096575970638     0.000226173789     0.072679423852   126.904471900000
         I            0.940520029362    -1.782015826211    -0.333117576148   126.904471900000
         I            0.940508029362     1.782489173789    -0.333116576148   126.904471900000
         C            0.190078029362     0.000233173789     2.056921423852    12.000000000000
         C            0.035886029362     0.000233173789     0.533155423852    12.000000000000
         C            1.618940029362     0.000235173789     2.589696423852    12.000000000000
         H           -0.344561970638     0.882354173789     2.426141423852     1.007825032230
         H           -0.344558970638    -0.881889826211     2.426141423852     1.007825032230
         H            2.168300029362    -0.885952826211     2.269117423852     1.007825032230
         H            1.527173929362    -0.097368726211     3.674722523852     1.007825032230
         H            2.168300029362     0.886421173789     2.269111423852     1.007825032230

  Basis Set: AUG-CC-PVTZ
    Blend: AUG-CC-PVTZ
  Basis Set: (AUG-CC-PVTZ AUX)
    Blend: AUG-CC-PVTZ-JKFIT + DEF2-UNIVERSAL-JKFIT
	 Reference Energy          =   -1000.5086189930690352 [Eh]
	 Singles Energy            =      -0.0000000000000000 [Eh]
	 Same-Spin Energy          =      -0.3704946923939980 [Eh]
	 Opposite-Spin Energy      =      -0.9893920735391262 [Eh]
	 Correlation Energy        =      -1.3598867659331242 [Eh]
	 Total Energy              =   -1001.8685057590021188 [Eh]

	 ================> DF-SCS-MP2 Energies <==================
	-----------------------------------------------------------
	 SCS Same-Spin Scale       =       0.3333333333333333 [-]
	 SCS Opposite-Spin Scale   =       1.2000000000000000 [-]
	 SCS Same-Spin Energy      =      -0.1234982307979993 [Eh]
	 SCS Opposite-Spin Energy  =      -1.1872704882469514 [Eh]
	 SCS Correlation Energy    =      -1.3107687190449506 [Eh]
	 SCS Total Energy          =   -1001.8193877121140076 [Eh]
	-----------------------------------------------------------

  Dipole Moment: [D]
     X:     0.3623      Y:    -0.0326      Z:     1.4663     Total:     1.5108

*** Psi4 exiting successfully. Buy a developer a beer!
