                               Psi4 1.4a3.dev225

  ==> Input File <==

--------------------------------------------------------------------------
#psi4
#
memory 32 gb

molecule  {
0 1
  I       -2.1233850    -0.0000070     0.0029360
  I        0.9137110    -1.7822490    -0.4028610
  I        0.9136990     1.7822560    -0.4028600
  C        0.1632690     0.0000000     1.9871780
  C        0.0090770     0.0000000     0.4634120
  C        1.5921310     0.0000020     2.5199530
  H       -0.3713710     0.8821210     2.3563980
  H       -0.3713680    -0.8821230     2.3563980
  H        2.1414910    -0.8861860     2.1993740
  H        1.5695143     0.0163029     3.6128628
  H        2.1414910     0.8861880     2.1993680
units angstrom
no_reorient  #important for SAPT in psi4, default
symmetry c1  #important for SAPT in psi4, default
}

set PROPERTIES_ORIGIN ["COM"]
properties('MP2/aug-cc-pvtz', properties = ['dipole'])
--------------------------------------------------------------------------

    Molecular point group: c1
  Charge       = 0
  Multiplicity = 1
  Basis Set: AUG-CC-PVTZ
    Blend: AUG-CC-PVTZ
  Basis Set: (AUG-CC-PVTZ AUX)
    Blend: AUG-CC-PVTZ-JKFIT + DEF2-UNIVERSAL-JKFIT

    Orbital Energies [Eh]
    ---------------------

    Doubly Occupied:

       1A    -11.391357     2A    -11.265963     3A    -11.231941
       4A     -7.733863     5A     -7.733806     6A     -7.733776
       7A     -5.566354     8A     -5.566302     9A     -5.566297
      10A     -5.555454    11A     -5.555398    12A     -5.555349
      13A     -5.555300    14A     -5.555289    15A     -5.555264
      16A     -2.295964    17A     -2.295721    18A     -2.295678
      19A     -2.290797    20A     -2.290708    21A     -2.290702
      22A     -2.290676    23A     -2.290621    24A     -2.290561
      25A     -2.278571    26A     -2.278561    27A     -2.278512
      28A     -2.278502    29A     -2.278420    30A     -2.278415
      31A     -1.110955    32A     -0.992546    33A     -0.900173
      34A     -0.897172    35A     -0.875337    36A     -0.735293
      37A     -0.646296    38A     -0.606016    39A     -0.566184
      40A     -0.538980    41A     -0.514694    42A     -0.471718
      43A     -0.465362    44A     -0.395369    45A     -0.394201
      46A     -0.388880    47A     -0.362813    48A     -0.361812
      49A     -0.351188

  @DF-RHF Final Energy: -1000.50983171145151

   => Energetics <=

    Nuclear Repulsion Energy =            645.2748563924278642
    One-Electron Energy =               -2985.5711542414974247
    Two-Electron Energy =                1339.7864661376179356
    Total Energy =                      -1000.5098317114516249
  Basis Set: (AUG-CC-PVTZ AUX)
    Blend: AUG-CC-PVTZ-RI + DEF2-QZVPP-RI
    Molecular point group: c1

    Geometry (in Angstrom), charge = 0, multiplicity = 1:

       Center              X                  Y                   Z               Mass
    ------------   -----------------  -----------------  -----------------  -----------------
         I           -2.096741210891    -0.000046014515     0.072660584866   126.904471900000
         I            0.940354789109    -1.782288014515    -0.333136415134   126.904471900000
         I            0.940342789109     1.782216985485    -0.333135415134   126.904471900000
         C            0.189912789109    -0.000039014515     2.056902584866    12.000000000000
         C            0.035720789109    -0.000039014515     0.533136584866    12.000000000000
         C            1.618774789109    -0.000037014515     2.589677584866    12.000000000000
         H           -0.344727210891     0.882081985485     2.426122584866     1.007825032230
         H           -0.344724210891    -0.882162014515     2.426122584866     1.007825032230
         H            2.168134789109    -0.886225014515     2.269098584866     1.007825032230
         H            1.596158089109     0.016263885485     3.682587384866     1.007825032230
         H            2.168134789109     0.886148985485     2.269092584866     1.007825032230

  Basis Set: AUG-CC-PVTZ
    Blend: AUG-CC-PVTZ
  Basis Set: (AUG-CC-PVTZ AUX)
    Blend: AUG-CC-PVTZ-JKFIT + DEF2-UNIVERSAL-JKFIT
	 Reference Energy          =   -1000.5098317114515112 [Eh]
	 Singles Energy            =      -0.0000000000000000 [Eh]
	 Same-Spin Energy          =      -0.3704097910078486 [Eh]
	 Opposite-Spin Energy      =      -0.9892722107394853 [Eh]
	 Correlation Energy        =      -1.3596820017473339 [Eh]
	 Total Energy              =   -1001.8695137131988986 [Eh]

	 ================> DF-SCS-MP2 Energies <==================
	-----------------------------------------------------------
	 SCS Same-Spin Scale       =       0.3333333333333333 [-]
	 SCS Opposite-Spin Scale   =       1.2000000000000000 [-]
	 SCS Same-Spin Energy      =      -0.1234699303359495 [Eh]
	 SCS Opposite-Spin Energy  =      -1.1871266528873823 [Eh]
	 SCS Correlation Energy    =      -1.3105965832233317 [Eh]
	 SCS Total Energy          =   -1001.8204282946747981 [Eh]
	-----------------------------------------------------------

  Dipole Moment: [D]
     X:     0.3676      Y:     0.0058      Z:     1.4672     Total:     1.5125

*** Psi4 exiting successfully. Buy a developer a beer!
