                               Psi4 1.4a3.dev225

  ==> Input File <==

--------------------------------------------------------------------------
#psi4
#
memory 32 gb

molecule  {
0 1
  I       -2.1233850    -0.0000070     0.0029360
  I        0.9137110    -1.7822490    -0.4028610
  I        0.9136990     1.7822560    -0.4028600
  C        0.1632690     0.0000000     1.9871780
  C       -0.0110585     0.0000000     0.2644282
  C        1.5921310     0.0000020     2.5199530
  H       -0.3713710     0.8821210     2.3563980
  H       -0.3713680    -0.8821230     2.3563980
  H        2.1414910    -0.8861860     2.1993740
  H        1.5595910     0.0000060     3.6127340
  H        2.1414910     0.8861880     2.1993680
units angstrom
no_reorient  #important for SAPT in psi4, default
symmetry c1  #important for SAPT in psi4, default
}

set PROPERTIES_ORIGIN ["COM"]
properties('MP2/aug-cc-pvtz', properties = ['dipole'])
--------------------------------------------------------------------------

    Molecular point group: c1
  Charge       = 0
  Multiplicity = 1
  Basis Set: AUG-CC-PVTZ
    Blend: AUG-CC-PVTZ
  Basis Set: (AUG-CC-PVTZ AUX)
    Blend: AUG-CC-PVTZ-JKFIT + DEF2-UNIVERSAL-JKFIT

    Orbital Energies [Eh]
    ---------------------

    Doubly Occupied:

       1A    -11.385590     2A    -11.275532     3A    -11.230381
       4A     -7.735072     5A     -7.735070     6A     -7.734052
       7A     -5.567640     8A     -5.567636     9A     -5.566628
      10A     -5.556698    11A     -5.556694    12A     -5.556609
      13A     -5.556606    14A     -5.555621    15A     -5.555581
      16A     -2.297588    17A     -2.297368    18A     -2.296356
      19A     -2.292126    20A     -2.292052    21A     -2.292003
      22A     -2.291982    23A     -2.291019    24A     -2.290993
      25A     -2.279870    26A     -2.279865    27A     -2.279860
      28A     -2.279859    29A     -2.278784    30A     -2.278780
      31A     -1.086496    32A     -1.002637    33A     -0.903540
      34A     -0.902752    35A     -0.858338    36A     -0.728601
      37A     -0.636716    38A     -0.599130    39A     -0.556535
      40A     -0.535162    41A     -0.498902    42A     -0.489779
      43A     -0.482396    44A     -0.394680    45A     -0.392961
      46A     -0.368851    47A     -0.368109    48A     -0.366773
      49A     -0.352242

  @DF-RHF Final Energy: -1000.49268943266668

   => Energetics <=

    Nuclear Repulsion Energy =            646.0794293094386376
    One-Electron Energy =               -2987.1872067335798420
    Two-Electron Energy =                1340.6150879914744110
    Total Energy =                      -1000.4926894326667934
  Basis Set: (AUG-CC-PVTZ AUX)
    Blend: AUG-CC-PVTZ-RI + DEF2-QZVPP-RI
    Molecular point group: c1

    Geometry (in Angstrom), charge = 0, multiplicity = 1:

       Center              X                  Y                   Z               Mass
    ------------   -----------------  -----------------  -----------------  -----------------
         I           -2.096144588640    -0.000007071243     0.078322519713   126.904471900000
         I            0.940951411360    -1.782249071243    -0.327474480287   126.904471900000
         I            0.940939411360     1.782255928757    -0.327473480287   126.904471900000
         C            0.190509411360    -0.000000071243     2.062564519713    12.000000000000
         C            0.016181911360    -0.000000071243     0.339814719713    12.000000000000
         C            1.619371411360     0.000001928757     2.595339519713    12.000000000000
         H           -0.344130588640     0.882120928757     2.431784519713     1.007825032230
         H           -0.344127588640    -0.882123071243     2.431784519713     1.007825032230
         H            2.168731411360    -0.886186071243     2.274760519713     1.007825032230
         H            1.586831411360     0.000005928757     3.688120519713     1.007825032230
         H            2.168731411360     0.886187928757     2.274754519713     1.007825032230

  Basis Set: AUG-CC-PVTZ
    Blend: AUG-CC-PVTZ
  Basis Set: (AUG-CC-PVTZ AUX)
    Blend: AUG-CC-PVTZ-JKFIT + DEF2-UNIVERSAL-JKFIT
	 Reference Energy          =   -1000.4926894326666797 [Eh]
	 Singles Energy            =      -0.0000000000000000 [Eh]
	 Same-Spin Energy          =      -0.3706272089210115 [Eh]
	 Opposite-Spin Energy      =      -0.9898337773112473 [Eh]
	 Correlation Energy        =      -1.3604609862322588 [Eh]
	 Total Energy              =   -1001.8531504188989629 [Eh]

	 ================> DF-SCS-MP2 Energies <==================
	-----------------------------------------------------------
	 SCS Same-Spin Scale       =       0.3333333333333333 [-]
	 SCS Opposite-Spin Scale   =       1.2000000000000000 [-]
	 SCS Same-Spin Energy      =      -0.1235424029736705 [Eh]
	 SCS Opposite-Spin Energy  =      -1.1878005327734968 [Eh]
	 SCS Correlation Energy    =      -1.3113429357471673 [Eh]
	 SCS Total Energy          =   -1001.8040323684138002 [Eh]
	-----------------------------------------------------------

  Dipole Moment: [D]
     X:     0.3952      Y:     0.0000      Z:     1.4665     Total:     1.5188

*** Psi4 exiting successfully. Buy a developer a beer!
