                               Psi4 1.4a3.dev225

  ==> Input File <==

--------------------------------------------------------------------------
#psi4
#
memory 32 gb

molecule  {
0 1
  I       -2.1233850    -0.0000070     0.0029360
  I        0.9137110    -1.7822490    -0.4028610
  I        0.9332750     1.8047017    -0.3329009
  C        0.1632690     0.0000000     1.9871780
  C        0.0090770     0.0000000     0.4634120
  C        1.5921310     0.0000020     2.5199530
  H       -0.3713710     0.8821210     2.3563980
  H       -0.3713680    -0.8821230     2.3563980
  H        2.1414910    -0.8861860     2.1993740
  H        1.5595910     0.0000060     3.6127340
  H        2.1414910     0.8861880     2.1993680
units angstrom
no_reorient  #important for SAPT in psi4, default
symmetry c1  #important for SAPT in psi4, default
}

set PROPERTIES_ORIGIN ["COM"]
properties('MP2/aug-cc-pvtz', properties = ['dipole'])
--------------------------------------------------------------------------

    Molecular point group: c1
  Charge       = 0
  Multiplicity = 1
  Basis Set: AUG-CC-PVTZ
    Blend: AUG-CC-PVTZ
  Basis Set: (AUG-CC-PVTZ AUX)
    Blend: AUG-CC-PVTZ-JKFIT + DEF2-UNIVERSAL-JKFIT

    Orbital Energies [Eh]
    ---------------------

    Doubly Occupied:

       1A    -11.391126     2A    -11.265237     3A    -11.231515
       4A     -7.734334     5A     -7.734175     6A     -7.733549
       7A     -5.566836     8A     -5.566706     9A     -5.566021
      10A     -5.555923    11A     -5.555804    12A     -5.555691
      13A     -5.555657    14A     -5.555158    15A     -5.555044
      16A     -2.296361    17A     -2.296122    18A     -2.295480
      19A     -2.291255    20A     -2.291146    21A     -2.291057
      22A     -2.291012    23A     -2.290461    24A     -2.290333
      25A     -2.279020    26A     -2.279011    27A     -2.278801
      28A     -2.278797    29A     -2.278287    30A     -2.278275
      31A     -1.111310    32A     -0.991758    33A     -0.899992
      34A     -0.897962    35A     -0.875007    36A     -0.735036
      37A     -0.646164    38A     -0.606047    39A     -0.565875
      40A     -0.539317    41A     -0.514190    42A     -0.471165
      43A     -0.465190    44A     -0.395265    45A     -0.393511
      46A     -0.387910    47A     -0.364013    48A     -0.362563
      49A     -0.351947

  @DF-RHF Final Energy: -1000.50934157752329

   => Energetics <=

    Nuclear Repulsion Energy =            645.0253301657946849
    One-Electron Energy =               -2985.0645147431573605
    Two-Electron Energy =                1339.5298429998397296
    Total Energy =                      -1000.5093415775231733
  Basis Set: (AUG-CC-PVTZ AUX)
    Blend: AUG-CC-PVTZ-RI + DEF2-QZVPP-RI
    Molecular point group: c1

    Geometry (in Angstrom), charge = 0, multiplicity = 1:

       Center              X                  Y                   Z               Mass
    ------------   -----------------  -----------------  -----------------  -----------------
         I           -2.102607876179    -0.006760936197     0.051610343381   126.904471900000
         I            0.934488123821    -1.789002936197    -0.354186656619   126.904471900000
         I            0.954052123821     1.797947763803    -0.284226556619   126.904471900000
         C            0.184046123821    -0.006753936197     2.035852343381    12.000000000000
         C            0.029854123821    -0.006753936197     0.512086343381    12.000000000000
         C            1.612908123821    -0.006751936197     2.568627343381    12.000000000000
         H           -0.350593876179     0.875367063803     2.405072343381     1.007825032230
         H           -0.350590876179    -0.888876936197     2.405072343381     1.007825032230
         H            2.162268123821    -0.892939936197     2.248048343381     1.007825032230
         H            1.580368123821    -0.006747936197     3.661408343381     1.007825032230
         H            2.162268123821     0.879434063803     2.248042343381     1.007825032230

  Basis Set: AUG-CC-PVTZ
    Blend: AUG-CC-PVTZ
  Basis Set: (AUG-CC-PVTZ AUX)
    Blend: AUG-CC-PVTZ-JKFIT + DEF2-UNIVERSAL-JKFIT
	 Reference Energy          =   -1000.5093415775232870 [Eh]
	 Singles Energy            =      -0.0000000000000000 [Eh]
	 Same-Spin Energy          =      -0.3705424195187554 [Eh]
	 Opposite-Spin Energy      =      -0.9895117686290676 [Eh]
	 Correlation Energy        =      -1.3600541881478230 [Eh]
	 Total Energy              =   -1001.8693957656711291 [Eh]

	 ================> DF-SCS-MP2 Energies <==================
	-----------------------------------------------------------
	 SCS Same-Spin Scale       =       0.3333333333333333 [-]
	 SCS Opposite-Spin Scale   =       1.2000000000000000 [-]
	 SCS Same-Spin Energy      =      -0.1235141398395851 [Eh]
	 SCS Opposite-Spin Energy  =      -1.1874141223548811 [Eh]
	 SCS Correlation Energy    =      -1.3109282621944662 [Eh]
	 SCS Total Energy          =   -1001.8202698397177528 [Eh]
	-----------------------------------------------------------

  Dipole Moment: [D]
     X:     0.3535      Y:    -0.0285      Z:     1.4678     Total:     1.5100

*** Psi4 exiting successfully. Buy a developer a beer!
