                               Psi4 1.4a3.dev225

  ==> Input File <==

--------------------------------------------------------------------------
#psi4
#
memory 32 gb

molecule  {
0 1
  I       -2.1233850    -0.0000070     0.0029360
  I        0.9137110    -1.7822490    -0.4028610
  I        0.9136990     1.7822560    -0.4028600
  C        0.1632690     0.0000000     1.9871780
  C        0.0090770     0.0000000     0.4634120
  C        1.5921310     0.0000020     2.5199530
  H       -0.3713710     0.8821210     2.3563980
  H       -0.3713680    -0.8821230     2.3563980
  H        2.1414910    -0.8861860     2.1993740
  H        1.5536382     0.0000067     3.8126454
  H        2.1414910     0.8861880     2.1993680
units angstrom
no_reorient  #important for SAPT in psi4, default
symmetry c1  #important for SAPT in psi4, default
}

set PROPERTIES_ORIGIN ["COM"]
properties('MP2/aug-cc-pvtz', properties = ['dipole'])
--------------------------------------------------------------------------

    Molecular point group: c1
  Charge       = 0
  Multiplicity = 1
  Basis Set: AUG-CC-PVTZ
    Blend: AUG-CC-PVTZ
  Basis Set: (AUG-CC-PVTZ AUX)
    Blend: AUG-CC-PVTZ-JKFIT + DEF2-UNIVERSAL-JKFIT

    Orbital Energies [Eh]
    ---------------------

    Doubly Occupied:

       1A    -11.392530     2A    -11.267664     3A    -11.254636
       4A     -7.734920     5A     -7.734918     6A     -7.734841
       7A     -5.567416     8A     -5.567412     9A     -5.567391
      10A     -5.556503    11A     -5.556499    12A     -5.556413
      13A     -5.556409    14A     -5.556349    15A     -5.556311
      16A     -2.297051    17A     -2.296805    18A     -2.296775
      19A     -2.291864    20A     -2.291793    21A     -2.291775
      22A     -2.291773    23A     -2.291708    24A     -2.291652
      25A     -2.279629    26A     -2.279621    27A     -2.279616
      28A     -2.279613    29A     -2.279450    30A     -2.279445
      31A     -1.111036    32A     -0.986872    33A     -0.900508
      34A     -0.898291    35A     -0.868366    36A     -0.736431
      37A     -0.648182    38A     -0.586592    39A     -0.568745
      40A     -0.541731    41A     -0.491667    42A     -0.471561
      43A     -0.466485    44A     -0.396465    45A     -0.395278
      46A     -0.389850    47A     -0.363823    48A     -0.362840
      49A     -0.352210

  @DF-RHF Final Energy: -1000.48996597820053

   => Energetics <=

    Nuclear Repulsion Energy =            644.3276174021359566
    One-Electron Energy =               -2983.6037384660680800
    Two-Electron Energy =                1338.7861550857314796
    Total Energy =                      -1000.4899659782004164
  Basis Set: (AUG-CC-PVTZ AUX)
    Blend: AUG-CC-PVTZ-RI + DEF2-QZVPP-RI
    Molecular point group: c1

    Geometry (in Angstrom), charge = 0, multiplicity = 1:

       Center              X                  Y                   Z               Mass
    ------------   -----------------  -----------------  -----------------  -----------------
         I           -2.096703273168    -0.000007072916     0.072183181921   126.904471900000
         I            0.940392726832    -1.782249072916    -0.333613818079   126.904471900000
         I            0.940380726832     1.782255927084    -0.333612818079   126.904471900000
         C            0.189950726832    -0.000000072916     2.056425181921    12.000000000000
         C            0.035758726832    -0.000000072916     0.532659181921    12.000000000000
         C            1.618812726832     0.000001927084     2.589200181921    12.000000000000
         H           -0.344689273168     0.882120927084     2.425645181921     1.007825032230
         H           -0.344686273168    -0.882123072916     2.425645181921     1.007825032230
         H            2.168172726832    -0.886186072916     2.268621181921     1.007825032230
         H            1.580319926832     0.000006627084     3.881892581921     1.007825032230
         H            2.168172726832     0.886187927084     2.268615181921     1.007825032230

  Basis Set: AUG-CC-PVTZ
    Blend: AUG-CC-PVTZ
  Basis Set: (AUG-CC-PVTZ AUX)
    Blend: AUG-CC-PVTZ-JKFIT + DEF2-UNIVERSAL-JKFIT
	 Reference Energy          =   -1000.4899659782005301 [Eh]
	 Singles Energy            =      -0.0000000000000000 [Eh]
	 Same-Spin Energy          =      -0.3703959926058215 [Eh]
	 Opposite-Spin Energy      =      -0.9908306743662340 [Eh]
	 Correlation Energy        =      -1.3612266669720554 [Eh]
	 Total Energy              =   -1001.8511926451725458 [Eh]

	 ================> DF-SCS-MP2 Energies <==================
	-----------------------------------------------------------
	 SCS Same-Spin Scale       =       0.3333333333333333 [-]
	 SCS Opposite-Spin Scale   =       1.2000000000000000 [-]
	 SCS Same-Spin Energy      =      -0.1234653308686071 [Eh]
	 SCS Opposite-Spin Energy  =      -1.1889968092394807 [Eh]
	 SCS Correlation Energy    =      -1.3124621401080878 [Eh]
	 SCS Total Energy          =   -1001.8024281183086259 [Eh]
	-----------------------------------------------------------

  Dipole Moment: [D]
     X:     0.3160      Y:    -0.0000      Z:     1.3121     Total:     1.3496

*** Psi4 exiting successfully. Buy a developer a beer!
