                               Psi4 1.4a3.dev225

  ==> Input File <==

--------------------------------------------------------------------------
#psi4
#
memory 32 gb

molecule  {
0 1
  N        1.2972060    -0.1834440    -0.0000110
  C        0.0425070     0.5749550    -0.0000170
  C       -1.2341620    -0.2639620     0.0000230
  H        0.0562240     1.2306650     0.8768470
  H        0.0562020     1.2306140    -0.8769190
  H       -1.2739250    -0.9067860    -0.8853860
  H       -1.2739030    -0.9067350     0.8854710
  H       -2.1289910     0.3670470     0.0000160
  H        1.3178962    -0.8285064    -0.8529093
  H        1.3169460    -0.7983090     0.8130470
units angstrom
no_reorient  #important for SAPT in psi4, default
symmetry c1  #important for SAPT in psi4, default
}

set PROPERTIES_ORIGIN ["COM"]
properties('MP2/aug-cc-pvtz', properties = ['dipole'])
--------------------------------------------------------------------------

    Molecular point group: c1
  Charge       = 0
  Multiplicity = 1
  Basis Set: AUG-CC-PVTZ
    Blend: AUG-CC-PVTZ
  Basis Set: (AUG-CC-PVTZ AUX)
    Blend: AUG-CC-PVTZ-JKFIT

    Orbital Energies [Eh]
    ---------------------

    Doubly Occupied:

       1A    -15.544979     2A    -11.247388     3A    -11.215312
       4A     -1.169577     5A     -0.984527     6A     -0.827410
       7A     -0.664567     8A     -0.594432     9A     -0.566560
      10A     -0.563039    11A     -0.505101    12A     -0.481587
      13A     -0.390299

  @DF-RHF Final Energy:  -134.30218521687294

   => Energetics <=

    Nuclear Repulsion Energy =             82.5230401546375845
    One-Electron Energy =                -344.1408954385739207
    Two-Electron Energy =                 127.3156700670634081
    Total Energy =                       -134.3021852168729424
  Basis Set: (AUG-CC-PVTZ AUX)
    Blend: AUG-CC-PVTZ-RI
    Molecular point group: c1

    Geometry (in Angstrom), charge = 0, multiplicity = 1:

       Center              X                  Y                   Z               Mass
    ------------   -----------------  -----------------  -----------------  -----------------
         N            1.254586077997    -0.195569227914     0.000881786304    14.003074004430
         C           -0.000112922003     0.562829772086     0.000875786304    12.000000000000
         C           -1.276781922003    -0.276087227914     0.000915786304    12.000000000000
         H            0.013604077997     1.218539772086     0.877739786304     1.007825032230
         H            0.013582077997     1.218488772086    -0.876026213696     1.007825032230
         H           -1.316544922003    -0.918911227914    -0.884493213696     1.007825032230
         H           -1.316522922003    -0.918860227914     0.886363786304     1.007825032230
         H           -2.171610922003     0.354921772086     0.000908786304     1.007825032230
         H            1.275276277997    -0.840631627914    -0.852016513696     1.007825032230
         H            1.274326077997    -0.810434227914     0.813939786304     1.007825032230

  Basis Set: AUG-CC-PVTZ
    Blend: AUG-CC-PVTZ
  Basis Set: (AUG-CC-PVTZ AUX)
    Blend: AUG-CC-PVTZ-JKFIT
	 Reference Energy          =    -134.3021852168729424 [Eh]
	 Singles Energy            =      -0.0000000000000000 [Eh]
	 Same-Spin Energy          =      -0.1381593652212706 [Eh]
	 Opposite-Spin Energy      =      -0.5062154707311648 [Eh]
	 Correlation Energy        =      -0.6443748359524355 [Eh]
	 Total Energy              =    -134.9465600528253901 [Eh]

	 ================> DF-SCS-MP2 Energies <==================
	-----------------------------------------------------------
	 SCS Same-Spin Scale       =       0.3333333333333333 [-]
	 SCS Opposite-Spin Scale   =       1.2000000000000000 [-]
	 SCS Same-Spin Energy      =      -0.0460531217404235 [Eh]
	 SCS Opposite-Spin Energy  =      -0.6074585648773977 [Eh]
	 SCS Correlation Energy    =      -0.6535116866178212 [Eh]
	 SCS Total Energy          =    -134.9556969034907752 [Eh]
	-----------------------------------------------------------

  Dipole Moment: [D]
     X:    -1.1529      Y:    -0.7940      Z:    -0.0051     Total:     1.3999

*** Psi4 exiting successfully. Buy a developer a beer!
