                               Psi4 1.3.2 release

  ==> Input File <==

--------------------------------------------------------------------------
#psi4
#
memory 32 gb

molecule  {
0 1
  N        1.2865301    -0.1226377    -0.0644259
  C        0.0000000     0.5768050     0.0000000
  C       -1.2113480    -0.3553890     0.0000000
  H       -0.0889314     1.2464966     0.8616808
  H       -0.0360080     1.2309690    -0.8773040
  H       -1.2034720    -0.9989080    -0.8858340
  H       -1.2034720    -0.9989080     0.8858340
  H       -2.1510380     0.2067580     0.0000000
  H        1.3739710    -0.6972560    -0.8133190
  H        1.3739710    -0.6972560     0.8133190
units angstrom
no_reorient  #important for SAPT in psi4, default
symmetry c1  #important for SAPT in psi4, default
}

set PROPERTIES_ORIGIN ["COM"]
properties('MP2/aug-cc-pvtz', properties = ['dipole'])
--------------------------------------------------------------------------

    Molecular point group: c1
  Charge       = 0
  Multiplicity = 1
  Basis Set: AUG-CC-PVTZ
    Blend: AUG-CC-PVTZ
  Basis Set: (AUG-CC-PVTZ AUX)
    Blend: AUG-CC-PVTZ-JKFIT

    Orbital Energies [Eh]
    ---------------------

    Doubly Occupied:

       1A    -15.533945     2A    -11.247897     3A    -11.213427
       4A     -1.178562     5A     -0.988037     6A     -0.831084
       7A     -0.676239     8A     -0.604472     9A     -0.573008
      10A     -0.558027    11A     -0.507785    12A     -0.480201
      13A     -0.385508

  @DF-RHF Final Energy:  -134.29949564602134

   => Energetics <=

    Nuclear Repulsion Energy =             82.9782773010677204
    One-Electron Energy =                -344.9991636637598162
    Two-Electron Energy =                 127.7213907166707116
    Total Energy =                       -134.2994956460213416
  Basis Set: (AUG-CC-PVTZ AUX)
    Blend: AUG-CC-PVTZ-RI
    Molecular point group: c1

    Geometry (in Angstrom), charge = 0, multiplicity = 1:

       Center              X                  Y                   Z               Mass
    ------------   -----------------  -----------------  -----------------  -----------------
         N            1.252594180972    -0.127654403533    -0.044054175356    14.003074004430
         C           -0.033935919028     0.571788296467     0.020371724644    12.000000000000
         C           -1.245283919028    -0.360405703533     0.020371724644    12.000000000000
         H           -0.122867319028     1.241479896467     0.882052524644     1.007825032230
         H           -0.069943919028     1.225952296467    -0.856932275356     1.007825032230
         H           -1.237407919028    -1.003924703533    -0.865462275356     1.007825032230
         H           -1.237407919028    -1.003924703533     0.906205724644     1.007825032230
         H           -2.184973919028     0.201741296467     0.020371724644     1.007825032230
         H            1.340035080972    -0.702272703533    -0.792947275356     1.007825032230
         H            1.340035080972    -0.702272703533     0.833690724644     1.007825032230

  Basis Set: AUG-CC-PVTZ
    Blend: AUG-CC-PVTZ
  Basis Set: (AUG-CC-PVTZ AUX)
    Blend: AUG-CC-PVTZ-JKFIT
	 Reference Energy          =    -134.2994956460213416 [Eh]
	 Singles Energy            =      -0.0000000000000000 [Eh]
	 Same-Spin Energy          =      -0.1378105463572822 [Eh]
	 Opposite-Spin Energy      =      -0.5047922136210884 [Eh]
	 Correlation Energy        =      -0.6426027599783706 [Eh]
	 Total Energy              =    -134.9420984059997011 [Eh]

	 ================> DF-SCS-MP2 Energies <==================
	-----------------------------------------------------------
	 SCS Same-Spin Scale       =       0.3333333333333333 [-]
	 SCS Opposite-Spin Scale   =       1.2000000000000000 [-]
	 SCS Same-Spin Energy      =      -0.0459368487857607 [Eh]
	 SCS Opposite-Spin Energy  =      -0.6057506563453060 [Eh]
	 SCS Correlation Energy    =      -0.6516875051310668 [Eh]
	 SCS Total Energy          =    -134.9511831511524065 [Eh]
	-----------------------------------------------------------

  Dipole Moment: [D]
     X:    -1.0150      Y:    -0.8039      Z:     0.0817     Total:     1.2974

*** Psi4 exiting successfully. Buy a developer a beer!
