                               Psi4 1.3.2 release

  ==> Input File <==

--------------------------------------------------------------------------
#psi4
#
memory 32 gb

molecule  {
0 1
  N        1.3071640    -0.0864090     0.0000000
  C        0.0891783     0.5315587     0.0000000
  C       -1.2113480    -0.3553890     0.0000000
  H       -0.0360080     1.2309690     0.8773040
  H       -0.0360080     1.2309690    -0.8773040
  H       -1.2034720    -0.9989080    -0.8858340
  H       -1.2034720    -0.9989080     0.8858340
  H       -2.1510380     0.2067580     0.0000000
  H        1.3739710    -0.6972560    -0.8133190
  H        1.3739710    -0.6972560     0.8133190
units angstrom
no_reorient  #important for SAPT in psi4, default
symmetry c1  #important for SAPT in psi4, default
}

set PROPERTIES_ORIGIN ["COM"]
properties('MP2/aug-cc-pvtz', properties = ['dipole'])
--------------------------------------------------------------------------

    Molecular point group: c1
  Charge       = 0
  Multiplicity = 1
  Basis Set: AUG-CC-PVTZ
    Blend: AUG-CC-PVTZ
  Basis Set: (AUG-CC-PVTZ AUX)
    Blend: AUG-CC-PVTZ-JKFIT

    Orbital Energies [Eh]
    ---------------------

    Doubly Occupied:

       1A    -15.542496     2A    -11.250220     3A    -11.213529
       4A     -1.209047     5A     -0.974286     6A     -0.825669
       7A     -0.681414     8A     -0.613301     9A     -0.575675
      10A     -0.561344    11A     -0.507407    12A     -0.465298
      13A     -0.383794

  @DF-RHF Final Energy:  -134.29489174200666

   => Energetics <=

    Nuclear Repulsion Energy =             83.3709315152866850
    One-Electron Energy =                -345.7246867598004201
    Two-Electron Energy =                 128.0588635025071085
    Total Energy =                       -134.2948917420066550
  Basis Set: (AUG-CC-PVTZ AUX)
    Blend: AUG-CC-PVTZ-RI
    Molecular point group: c1

    Geometry (in Angstrom), charge = 0, multiplicity = 1:

       Center              X                  Y                   Z               Mass
    ------------   -----------------  -----------------  -----------------  -----------------
         N            1.241881374901    -0.090287354995     0.000000000000    14.003074004430
         C            0.023895674901     0.527680345005     0.000000000000    12.000000000000
         C           -1.276630625099    -0.359267354995     0.000000000000    12.000000000000
         H           -0.101290625099     1.227090645005     0.877304000000     1.007825032230
         H           -0.101290625099     1.227090645005    -0.877304000000     1.007825032230
         H           -1.268754625099    -1.002786354995    -0.885834000000     1.007825032230
         H           -1.268754625099    -1.002786354995     0.885834000000     1.007825032230
         H           -2.216320625099     0.202879645005     0.000000000000     1.007825032230
         H            1.308688374901    -0.701134354995    -0.813319000000     1.007825032230
         H            1.308688374901    -0.701134354995     0.813319000000     1.007825032230

  Basis Set: AUG-CC-PVTZ
    Blend: AUG-CC-PVTZ
  Basis Set: (AUG-CC-PVTZ AUX)
    Blend: AUG-CC-PVTZ-JKFIT
	 Reference Energy          =    -134.2948917420066550 [Eh]
	 Singles Energy            =      -0.0000000000000000 [Eh]
	 Same-Spin Energy          =      -0.1385239586871885 [Eh]
	 Opposite-Spin Energy      =      -0.5055298726503195 [Eh]
	 Correlation Energy        =      -0.6440538313375079 [Eh]
	 Total Energy              =    -134.9389455733441707 [Eh]

	 ================> DF-SCS-MP2 Energies <==================
	-----------------------------------------------------------
	 SCS Same-Spin Scale       =       0.3333333333333333 [-]
	 SCS Opposite-Spin Scale   =       1.2000000000000000 [-]
	 SCS Same-Spin Energy      =      -0.0461746528957295 [Eh]
	 SCS Opposite-Spin Energy  =      -0.6066358471803833 [Eh]
	 SCS Correlation Energy    =      -0.6528105000761129 [Eh]
	 SCS Total Energy          =    -134.9477022420827552 [Eh]
	-----------------------------------------------------------

  Dipole Moment: [D]
     X:    -0.7770      Y:    -0.9677      Z:    -0.0000     Total:     1.2410

*** Psi4 exiting successfully. Buy a developer a beer!
