                               Psi4 1.3.2 release

  ==> Input File <==

--------------------------------------------------------------------------
#psi4
#
memory 32 gb

molecule  {
0 1
  N        1.3071640    -0.0864090     0.0000000
  C        0.0131704     0.6007899     0.0432310
  C       -1.2113480    -0.3553890     0.0000000
  H       -0.0360080     1.2309690     0.8773040
  H       -0.0360080     1.2309690    -0.8773040
  H       -1.2034720    -0.9989080    -0.8858340
  H       -1.2034720    -0.9989080     0.8858340
  H       -2.1510380     0.2067580     0.0000000
  H        1.4067191    -0.7064909    -0.8029149
  H        1.3739710    -0.6972560     0.8133190
units angstrom
no_reorient  #important for SAPT in psi4, default
symmetry c1  #important for SAPT in psi4, default
}

set PROPERTIES_ORIGIN ["COM"]
properties('MP2/aug-cc-pvtz', properties = ['dipole'])
--------------------------------------------------------------------------

    Molecular point group: c1
  Charge       = 0
  Multiplicity = 1
  Basis Set: AUG-CC-PVTZ
    Blend: AUG-CC-PVTZ
  Basis Set: (AUG-CC-PVTZ AUX)
    Blend: AUG-CC-PVTZ-JKFIT

    Orbital Energies [Eh]
    ---------------------

    Doubly Occupied:

       1A    -15.538412     2A    -11.247348     3A    -11.215413
       4A     -1.173134     5A     -0.981828     6A     -0.833996
       7A     -0.669182     8A     -0.597759     9A     -0.567219
      10A     -0.559143    11A     -0.511952    12A     -0.483858
      13A     -0.385438

  @DF-RHF Final Energy:  -134.30257831997022

   => Energetics <=

    Nuclear Repulsion Energy =             82.5161239542106415
    One-Electron Energy =                -344.1080404097834844
    Two-Electron Energy =                 127.2893381356026197
    Total Energy =                       -134.3025783199702232
  Basis Set: (AUG-CC-PVTZ AUX)
    Blend: AUG-CC-PVTZ-RI
    Molecular point group: c1

    Geometry (in Angstrom), charge = 0, multiplicity = 1:

       Center              X                  Y                   Z               Mass
    ------------   -----------------  -----------------  -----------------  -----------------
         N            1.261391636932    -0.108518745322    -0.011746177890    14.003074004430
         C           -0.032601963068     0.578680154678     0.031484822110    12.000000000000
         C           -1.257120363068    -0.377498745322    -0.011746177890    12.000000000000
         H           -0.081780363068     1.208859254678     0.865557822110     1.007825032230
         H           -0.081780363068     1.208859254678    -0.889050177890     1.007825032230
         H           -1.249244363068    -1.021017745322    -0.897580177890     1.007825032230
         H           -1.249244363068    -1.021017745322     0.874087822110     1.007825032230
         H           -2.196810363068     0.184648254678    -0.011746177890     1.007825032230
         H            1.360946736932    -0.728600645322    -0.814661077890     1.007825032230
         H            1.328198636932    -0.719365745322     0.801572822110     1.007825032230

  Basis Set: AUG-CC-PVTZ
    Blend: AUG-CC-PVTZ
  Basis Set: (AUG-CC-PVTZ AUX)
    Blend: AUG-CC-PVTZ-JKFIT
	 Reference Energy          =    -134.3025783199702232 [Eh]
	 Singles Energy            =      -0.0000000000000000 [Eh]
	 Same-Spin Energy          =      -0.1378009224923016 [Eh]
	 Opposite-Spin Energy      =      -0.5052607808706805 [Eh]
	 Correlation Energy        =      -0.6430617033629822 [Eh]
	 Total Energy              =    -134.9456400233331976 [Eh]

	 ================> DF-SCS-MP2 Energies <==================
	-----------------------------------------------------------
	 SCS Same-Spin Scale       =       0.3333333333333333 [-]
	 SCS Opposite-Spin Scale   =       1.2000000000000000 [-]
	 SCS Same-Spin Energy      =      -0.0459336408307672 [Eh]
	 SCS Opposite-Spin Energy  =      -0.6063129370448166 [Eh]
	 SCS Correlation Energy    =      -0.6522465778755838 [Eh]
	 SCS Total Energy          =    -134.9548248978458105 [Eh]
	-----------------------------------------------------------

  Dipole Moment: [D]
     X:    -1.0352      Y:    -0.8575      Z:     0.0258     Total:     1.3444

*** Psi4 exiting successfully. Buy a developer a beer!
