                               Psi4 1.3.2 release

  ==> Input File <==

--------------------------------------------------------------------------
#psi4
#
memory 32 gb

molecule  {
0 1
  N        1.2706626    -0.1539118     0.0000000
  C        0.0000000     0.5768050     0.0000000
  C       -1.1609006    -0.4175085     0.0000000
  H       -0.0360080     1.2309690     0.8773040
  H       -0.0360080     1.2309690    -0.8773040
  H       -1.2034720    -0.9989080    -0.8858340
  H       -1.2034720    -0.9989080     0.8858340
  H       -2.1510380     0.2067580     0.0000000
  H        1.3739710    -0.6972560    -0.8133190
  H        1.3739710    -0.6972560     0.8133190
units angstrom
no_reorient  #important for SAPT in psi4, default
symmetry c1  #important for SAPT in psi4, default
}

set PROPERTIES_ORIGIN ["COM"]
properties('MP2/aug-cc-pvtz', properties = ['dipole'])
--------------------------------------------------------------------------

    Molecular point group: c1
  Charge       = 0
  Multiplicity = 1
  Basis Set: AUG-CC-PVTZ
    Blend: AUG-CC-PVTZ
  Basis Set: (AUG-CC-PVTZ AUX)
    Blend: AUG-CC-PVTZ-JKFIT

    Orbital Energies [Eh]
    ---------------------

    Doubly Occupied:

       1A    -15.525591     2A    -11.248346     3A    -11.213606
       4A     -1.179749     5A     -0.985407     6A     -0.832868
       7A     -0.685974     8A     -0.593415     9A     -0.587457
      10A     -0.555680    11A     -0.497654    12A     -0.495355
      13A     -0.375732

  @DF-RHF Final Energy:  -134.29821492889315

   => Energetics <=

    Nuclear Repulsion Energy =             83.3602031084802775
    One-Electron Energy =                -345.7631700642255623
    Two-Electron Energy =                 128.1047520268521396
    Total Energy =                       -134.2982149288931453
  Basis Set: (AUG-CC-PVTZ AUX)
    Blend: AUG-CC-PVTZ-RI
    Molecular point group: c1

    Geometry (in Angstrom), charge = 0, multiplicity = 1:

       Center              X                  Y                   Z               Mass
    ------------   -----------------  -----------------  -----------------  -----------------
         N            1.227038856142    -0.132317898251     0.000000000000    14.003074004430
         C           -0.043623743858     0.598398901749     0.000000000000    12.000000000000
         C           -1.204524343858    -0.395914598251     0.000000000000    12.000000000000
         H           -0.079631743858     1.252562901749     0.877304000000     1.007825032230
         H           -0.079631743858     1.252562901749    -0.877304000000     1.007825032230
         H           -1.247095743858    -0.977314098251    -0.885834000000     1.007825032230
         H           -1.247095743858    -0.977314098251     0.885834000000     1.007825032230
         H           -2.194661743858     0.228351901749     0.000000000000     1.007825032230
         H            1.330347256142    -0.675662098251    -0.813319000000     1.007825032230
         H            1.330347256142    -0.675662098251     0.813319000000     1.007825032230

  Basis Set: AUG-CC-PVTZ
    Blend: AUG-CC-PVTZ
  Basis Set: (AUG-CC-PVTZ AUX)
    Blend: AUG-CC-PVTZ-JKFIT
	 Reference Energy          =    -134.2982149288931453 [Eh]
	 Singles Energy            =      -0.0000000000000000 [Eh]
	 Same-Spin Energy          =      -0.1377313243113266 [Eh]
	 Opposite-Spin Energy      =      -0.5043500699265553 [Eh]
	 Correlation Energy        =      -0.6420813942378819 [Eh]
	 Total Energy              =    -134.9402963231310366 [Eh]

	 ================> DF-SCS-MP2 Energies <==================
	-----------------------------------------------------------
	 SCS Same-Spin Scale       =       0.3333333333333333 [-]
	 SCS Opposite-Spin Scale   =       1.2000000000000000 [-]
	 SCS Same-Spin Energy      =      -0.0459104414371089 [Eh]
	 SCS Opposite-Spin Energy  =      -0.6052200839118663 [Eh]
	 SCS Correlation Energy    =      -0.6511305253489752 [Eh]
	 SCS Total Energy          =    -134.9493454542421205 [Eh]
	-----------------------------------------------------------

  Dipole Moment: [D]
     X:    -0.9185      Y:    -0.7701      Z:     0.0000     Total:     1.1986

*** Psi4 exiting successfully. Buy a developer a beer!
