                               Psi4 1.3.2 release

  ==> Input File <==

--------------------------------------------------------------------------
#psi4
#
memory 32 gb

molecule  {
0 1
  N        1.3071640    -0.0864090     0.0000000
  C        0.0000000     0.5768050     0.0000000
  C       -1.2113480    -0.3553890     0.0000000
  H       -0.0360080     1.2309690     0.8773040
  H       -0.0360080     1.2309690    -0.8773040
  H       -1.2034720    -0.9989080    -0.8858340
  H       -1.2034720    -0.9989080     0.8858340
  H       -2.1510380     0.2067580     0.0000000
  H        1.3708444    -0.6686677    -0.8342689
  H        1.3708444    -0.6686677     0.8342689
units angstrom
no_reorient  #important for SAPT in psi4, default
symmetry c1  #important for SAPT in psi4, default
}

set PROPERTIES_ORIGIN ["COM"]
properties('MP2/aug-cc-pvtz', properties = ['dipole'])
--------------------------------------------------------------------------

    Molecular point group: c1
  Charge       = 0
  Multiplicity = 1
  Basis Set: AUG-CC-PVTZ
    Blend: AUG-CC-PVTZ
  Basis Set: (AUG-CC-PVTZ AUX)
    Blend: AUG-CC-PVTZ-JKFIT

    Orbital Energies [Eh]
    ---------------------

    Doubly Occupied:

       1A    -15.538891     2A    -11.246555     3A    -11.214985
       4A     -1.174657     5A     -0.985503     6A     -0.827421
       7A     -0.675480     8A     -0.593759     9A     -0.570921
      10A     -0.563114    11A     -0.504268    12A     -0.483027
      13A     -0.388651

  @DF-RHF Final Energy:  -134.30512803852741

   => Energetics <=

    Nuclear Repulsion Energy =             82.7488721757983541
    One-Electron Energy =                -344.5735349293349827
    Two-Electron Energy =                 127.5195347150092431
    Total Energy =                       -134.3051280385274140
  Basis Set: (AUG-CC-PVTZ AUX)
    Blend: AUG-CC-PVTZ-RI
    Molecular point group: c1

    Geometry (in Angstrom), charge = 0, multiplicity = 1:

       Center              X                  Y                   Z               Mass
    ------------   -----------------  -----------------  -----------------  -----------------
         N            1.265771590477    -0.103616433480     0.000000000000    14.003074004430
         C           -0.041392409523     0.559597566520     0.000000000000    12.000000000000
         C           -1.252740409523    -0.372596433480     0.000000000000    12.000000000000
         H           -0.077400409523     1.213761566520     0.877304000000     1.007825032230
         H           -0.077400409523     1.213761566520    -0.877304000000     1.007825032230
         H           -1.244864409523    -1.016115433480    -0.885834000000     1.007825032230
         H           -1.244864409523    -1.016115433480     0.885834000000     1.007825032230
         H           -2.192430409523     0.189550566520     0.000000000000     1.007825032230
         H            1.329451990477    -0.685875133480    -0.834268900000     1.007825032230
         H            1.329451990477    -0.685875133480     0.834268900000     1.007825032230

  Basis Set: AUG-CC-PVTZ
    Blend: AUG-CC-PVTZ
  Basis Set: (AUG-CC-PVTZ AUX)
    Blend: AUG-CC-PVTZ-JKFIT
	 Reference Energy          =    -134.3051280385274140 [Eh]
	 Singles Energy            =      -0.0000000000000000 [Eh]
	 Same-Spin Energy          =      -0.1379574122462176 [Eh]
	 Opposite-Spin Energy      =      -0.5053780807407462 [Eh]
	 Correlation Energy        =      -0.6433354929869638 [Eh]
	 Total Energy              =    -134.9484635315143919 [Eh]

	 ================> DF-SCS-MP2 Energies <==================
	-----------------------------------------------------------
	 SCS Same-Spin Scale       =       0.3333333333333333 [-]
	 SCS Opposite-Spin Scale   =       1.2000000000000000 [-]
	 SCS Same-Spin Energy      =      -0.0459858040820725 [Eh]
	 SCS Opposite-Spin Energy  =      -0.6064536968888954 [Eh]
	 SCS Correlation Energy    =      -0.6524395009709679 [Eh]
	 SCS Total Energy          =    -134.9575675394983705 [Eh]
	-----------------------------------------------------------

  Dipole Moment: [D]
     X:    -1.0600      Y:    -0.8453      Z:    -0.0000     Total:     1.3558

*** Psi4 exiting successfully. Buy a developer a beer!
