                               Psi4 1.3.2 release

  ==> Input File <==

--------------------------------------------------------------------------
#psi4
#
memory 32 gb

molecule  {
0 1
  N        1.3071640    -0.0864090     0.0000000
  C       -0.0891783     0.6220513     0.0000000
  C       -1.2113480    -0.3553890     0.0000000
  H       -0.0360080     1.2309690     0.8773040
  H       -0.0360080     1.2309690    -0.8773040
  H       -1.2034720    -0.9989080    -0.8858340
  H       -1.2034720    -0.9989080     0.8858340
  H       -2.1510380     0.2067580     0.0000000
  H        1.3739710    -0.6972560    -0.8133190
  H        1.3739710    -0.6972560     0.8133190
units angstrom
no_reorient  #important for SAPT in psi4, default
symmetry c1  #important for SAPT in psi4, default
}

set PROPERTIES_ORIGIN ["COM"]
properties('MP2/aug-cc-pvtz', properties = ['dipole'])
--------------------------------------------------------------------------

    Molecular point group: c1
  Charge       = 0
  Multiplicity = 1
  Basis Set: AUG-CC-PVTZ
    Blend: AUG-CC-PVTZ
  Basis Set: (AUG-CC-PVTZ AUX)
    Blend: AUG-CC-PVTZ-JKFIT

    Orbital Energies [Eh]
    ---------------------

    Doubly Occupied:

       1A    -15.535253     2A    -11.247660     3A    -11.217298
       4A     -1.149859     5A     -0.997754     6A     -0.833406
       7A     -0.664484     8A     -0.587784     9A     -0.574745
      10A     -0.561884    11A     -0.495948    12A     -0.494516
      13A     -0.388780

  @DF-RHF Final Energy:  -134.29714596463091

   => Energetics <=

    Nuclear Repulsion Energy =             82.1885903444246821
    One-Electron Energy =                -343.4727290437633656
    Two-Electron Energy =                 126.9869927347077549
    Total Energy =                       -134.2971459646308858
  Basis Set: (AUG-CC-PVTZ AUX)
    Blend: AUG-CC-PVTZ-RI
    Molecular point group: c1

    Geometry (in Angstrom), charge = 0, multiplicity = 1:

       Center              X                  Y                   Z               Mass
    ------------   -----------------  -----------------  -----------------  -----------------
         N            1.289382070930    -0.114387733033     0.000000000000    14.003074004430
         C           -0.106960229070     0.594072566967     0.000000000000    12.000000000000
         C           -1.229129929070    -0.383367733033     0.000000000000    12.000000000000
         H           -0.053789929070     1.202990266967     0.877304000000     1.007825032230
         H           -0.053789929070     1.202990266967    -0.877304000000     1.007825032230
         H           -1.221253929070    -1.026886733033    -0.885834000000     1.007825032230
         H           -1.221253929070    -1.026886733033     0.885834000000     1.007825032230
         H           -2.168819929070     0.178779266967     0.000000000000     1.007825032230
         H            1.356189070930    -0.725234733033    -0.813319000000     1.007825032230
         H            1.356189070930    -0.725234733033     0.813319000000     1.007825032230

  Basis Set: AUG-CC-PVTZ
    Blend: AUG-CC-PVTZ
  Basis Set: (AUG-CC-PVTZ AUX)
    Blend: AUG-CC-PVTZ-JKFIT
	 Reference Energy          =    -134.2971459646309142 [Eh]
	 Singles Energy            =      -0.0000000000000000 [Eh]
	 Same-Spin Energy          =      -0.1380549038352089 [Eh]
	 Opposite-Spin Energy      =      -0.5063957672282176 [Eh]
	 Correlation Energy        =      -0.6444506710634265 [Eh]
	 Total Energy              =    -134.9415966356943386 [Eh]

	 ================> DF-SCS-MP2 Energies <==================
	-----------------------------------------------------------
	 SCS Same-Spin Scale       =       0.3333333333333333 [-]
	 SCS Opposite-Spin Scale   =       1.2000000000000000 [-]
	 SCS Same-Spin Energy      =      -0.0460183012784030 [Eh]
	 SCS Opposite-Spin Energy  =      -0.6076749206738611 [Eh]
	 SCS Correlation Energy    =      -0.6536932219522641 [Eh]
	 SCS Total Energy          =    -134.9508391865831811 [Eh]
	-----------------------------------------------------------

  Dipole Moment: [D]
     X:    -1.3490      Y:    -0.8157      Z:     0.0000     Total:     1.5765

*** Psi4 exiting successfully. Buy a developer a beer!
