                               Psi4 1.3.2 release

  ==> Input File <==

--------------------------------------------------------------------------
#psi4
#
memory 32 gb

molecule  {
0 1
  N        1.3071640    -0.0864090     0.0000000
  C        0.0000000     0.5768050     0.0000000
  C       -1.2113480    -0.3553890     0.0000000
  H       -0.0360080     1.2309690     0.8773040
  H       -0.0360080     1.2309690    -0.8773040
  H       -1.2034720    -0.9989080    -0.8858340
  H       -1.2034720    -0.9989080     0.8858340
  H       -2.1510380     0.2067580     0.0000000
  H        1.3608633    -0.5774063    -0.6537438
  H        1.3739710    -0.6972560     0.8133190
units angstrom
no_reorient  #important for SAPT in psi4, default
symmetry c1  #important for SAPT in psi4, default
}

set PROPERTIES_ORIGIN ["COM"]
properties('MP2/aug-cc-pvtz', properties = ['dipole'])
--------------------------------------------------------------------------

    Molecular point group: c1
  Charge       = 0
  Multiplicity = 1
  Basis Set: AUG-CC-PVTZ
    Blend: AUG-CC-PVTZ
  Basis Set: (AUG-CC-PVTZ AUX)
    Blend: AUG-CC-PVTZ-JKFIT

    Orbital Energies [Eh]
    ---------------------

    Doubly Occupied:

       1A    -15.514368     2A    -11.246908     3A    -11.215923
       4A     -1.211473     5A     -0.997311     6A     -0.839241
       7A     -0.697827     8A     -0.602444     9A     -0.579649
      10A     -0.566343    11A     -0.506365    12A     -0.485533
      13A     -0.393737

  @DF-RHF Final Energy:  -134.26215029336973

   => Energetics <=

    Nuclear Repulsion Energy =             83.8291839160657162
    One-Electron Energy =                -346.4684238366348836
    Two-Electron Energy =                 128.3770896271994104
    Total Energy =                       -134.2621502933697286
  Basis Set: (AUG-CC-PVTZ AUX)
    Blend: AUG-CC-PVTZ-RI
    Molecular point group: c1

    Geometry (in Angstrom), charge = 0, multiplicity = 1:

       Center              X                  Y                   Z               Mass
    ------------   -----------------  -----------------  -----------------  -----------------
         N            1.265924907530    -0.105018265127    -0.003569275583    14.003074004430
         C           -0.041239092470     0.558195734873    -0.003569275583    12.000000000000
         C           -1.252587092470    -0.373998265127    -0.003569275583    12.000000000000
         H           -0.077247092470     1.212359734873     0.873734724417     1.007825032230
         H           -0.077247092470     1.212359734873    -0.880873275583     1.007825032230
         H           -1.244711092470    -1.017517265127    -0.889403275583     1.007825032230
         H           -1.244711092470    -1.017517265127     0.882264724417     1.007825032230
         H           -2.192277092470     0.188148734873    -0.003569275583     1.007825032230
         H            1.319624207530    -0.596015565127    -0.657313075583     1.007825032230
         H            1.332731907530    -0.715865265127     0.809749724417     1.007825032230

  Basis Set: AUG-CC-PVTZ
    Blend: AUG-CC-PVTZ
  Basis Set: (AUG-CC-PVTZ AUX)
    Blend: AUG-CC-PVTZ-JKFIT
	 Reference Energy          =    -134.2621502933697286 [Eh]
	 Singles Energy            =      -0.0000000000000000 [Eh]
	 Same-Spin Energy          =      -0.1371381195977513 [Eh]
	 Opposite-Spin Energy      =      -0.5028775332898048 [Eh]
	 Correlation Energy        =      -0.6400156528875560 [Eh]
	 Total Energy              =    -134.9021659462572984 [Eh]

	 ================> DF-SCS-MP2 Energies <==================
	-----------------------------------------------------------
	 SCS Same-Spin Scale       =       0.3333333333333333 [-]
	 SCS Opposite-Spin Scale   =       1.2000000000000000 [-]
	 SCS Same-Spin Energy      =      -0.0457127065325838 [Eh]
	 SCS Opposite-Spin Energy  =      -0.6034530399477657 [Eh]
	 SCS Correlation Energy    =      -0.6491657464803494 [Eh]
	 SCS Total Energy          =    -134.9113160398500781 [Eh]
	-----------------------------------------------------------

  Dipole Moment: [D]
     X:    -1.1061      Y:    -0.8881      Z:     0.0477     Total:     1.4193

*** Psi4 exiting successfully. Buy a developer a beer!
