                               Psi4 1.3.2 release

  ==> Input File <==

--------------------------------------------------------------------------
#psi4
#
memory 32 gb

molecule  {
0 1
  N        1.3071640    -0.0864090     0.0000000
  C        0.1783567     0.4863124     0.0000000
  C       -1.2113480    -0.3553890     0.0000000
  H       -0.0360080     1.2309690     0.8773040
  H       -0.0360080     1.2309690    -0.8773040
  H       -1.2034720    -0.9989080    -0.8858340
  H       -1.2034720    -0.9989080     0.8858340
  H       -2.1510380     0.2067580     0.0000000
  H        1.3739710    -0.6972560    -0.8133190
  H        1.3739710    -0.6972560     0.8133190
units angstrom
no_reorient  #important for SAPT in psi4, default
symmetry c1  #important for SAPT in psi4, default
}

set PROPERTIES_ORIGIN ["COM"]
properties('MP2/aug-cc-pvtz', properties = ['dipole'])
--------------------------------------------------------------------------

    Molecular point group: c1
  Charge       = 0
  Multiplicity = 1
  Basis Set: AUG-CC-PVTZ
    Blend: AUG-CC-PVTZ
  Basis Set: (AUG-CC-PVTZ AUX)
    Blend: AUG-CC-PVTZ-JKFIT

    Orbital Energies [Eh]
    ---------------------

    Doubly Occupied:

       1A    -15.546160     2A    -11.256281     3A    -11.211005
       4A     -1.253706     5A     -0.961774     6A     -0.824416
       7A     -0.699098     8A     -0.637899     9A     -0.585138
      10A     -0.553669    11A     -0.511189    12A     -0.443666
      13A     -0.368216

  @DF-RHF Final Energy:  -134.25698706447577

   => Energetics <=

    Nuclear Repulsion Energy =             84.1507315865474936
    One-Electron Energy =                -347.1110062990362053
    Two-Electron Energy =                 128.7032876480129744
    Total Energy =                       -134.2569870644757657
  Basis Set: (AUG-CC-PVTZ AUX)
    Blend: AUG-CC-PVTZ-RI
    Molecular point group: c1

    Geometry (in Angstrom), charge = 0, multiplicity = 1:

       Center              X                  Y                   Z               Mass
    ------------   -----------------  -----------------  -----------------  -----------------
         N            1.218131000254    -0.078237165976     0.000000000000    14.003074004430
         C            0.089323700254     0.494484234024     0.000000000000    12.000000000000
         C           -1.300380999746    -0.347217165976     0.000000000000    12.000000000000
         H           -0.125040999746     1.239140834024     0.877304000000     1.007825032230
         H           -0.125040999746     1.239140834024    -0.877304000000     1.007825032230
         H           -1.292504999746    -0.990736165976    -0.885834000000     1.007825032230
         H           -1.292504999746    -0.990736165976     0.885834000000     1.007825032230
         H           -2.240070999746     0.214929834024     0.000000000000     1.007825032230
         H            1.284938000254    -0.689084165976    -0.813319000000     1.007825032230
         H            1.284938000254    -0.689084165976     0.813319000000     1.007825032230

  Basis Set: AUG-CC-PVTZ
    Blend: AUG-CC-PVTZ
  Basis Set: (AUG-CC-PVTZ AUX)
    Blend: AUG-CC-PVTZ-JKFIT
	 Reference Energy          =    -134.2569870644757657 [Eh]
	 Singles Energy            =      -0.0000000000000000 [Eh]
	 Same-Spin Energy          =      -0.1399127942959803 [Eh]
	 Opposite-Spin Energy      =      -0.5069387139062184 [Eh]
	 Correlation Energy        =      -0.6468515082021987 [Eh]
	 Total Energy              =    -134.9038385726779552 [Eh]

	 ================> DF-SCS-MP2 Energies <==================
	-----------------------------------------------------------
	 SCS Same-Spin Scale       =       0.3333333333333333 [-]
	 SCS Opposite-Spin Scale   =       1.2000000000000000 [-]
	 SCS Same-Spin Energy      =      -0.0466375980986601 [Eh]
	 SCS Opposite-Spin Energy  =      -0.6083264566874620 [Eh]
	 SCS Correlation Energy    =      -0.6549640547861221 [Eh]
	 SCS Total Energy          =    -134.9119511192618859 [Eh]
	-----------------------------------------------------------

  Dipole Moment: [D]
     X:    -0.3892      Y:    -1.0825      Z:     0.0000     Total:     1.1504

*** Psi4 exiting successfully. Buy a developer a beer!
