                               Psi4 1.4a3.dev225

  ==> Input File <==

--------------------------------------------------------------------------
#psi4
#
memory 32 gb

molecule  {
0 1
  N        1.2972060    -0.1834440    -0.0000110
  C        0.0596232     0.5646092    -0.0000169
  C       -1.2341620    -0.2639620     0.0000230
  H        0.0562240     1.2306650     0.8768470
  H        0.0562020     1.2306140    -0.8769190
  H       -1.2739250    -0.9067860    -0.8853860
  H       -1.2739030    -0.9067350     0.8854710
  H       -2.1289910     0.3670470     0.0000160
  H        1.3169290    -0.7983510    -0.8130380
  H        1.3169460    -0.7983090     0.8130470
units angstrom
no_reorient  #important for SAPT in psi4, default
symmetry c1  #important for SAPT in psi4, default
}

set PROPERTIES_ORIGIN ["COM"]
properties('MP2/aug-cc-pvtz', properties = ['dipole'])
--------------------------------------------------------------------------

    Molecular point group: c1
  Charge       = 0
  Multiplicity = 1
  Basis Set: AUG-CC-PVTZ
    Blend: AUG-CC-PVTZ
  Basis Set: (AUG-CC-PVTZ AUX)
    Blend: AUG-CC-PVTZ-JKFIT

    Orbital Energies [Eh]
    ---------------------

    Doubly Occupied:

       1A    -15.540017     2A    -11.247472     3A    -11.215028
       4A     -1.181128     5A     -0.984160     6A     -0.828349
       7A     -0.671881     8A     -0.598158     9A     -0.567576
      10A     -0.567211    11A     -0.506033    12A     -0.479388
      13A     -0.390199

  @DF-RHF Final Energy:  -134.30519163966270

   => Energetics <=

    Nuclear Repulsion Energy =             82.8616265607849840
    One-Electron Energy =                -344.7804366542106322
    Two-Electron Energy =                 127.6136184537629390
    Total Energy =                       -134.3051916396626950
  Basis Set: (AUG-CC-PVTZ AUX)
    Blend: AUG-CC-PVTZ-RI
    Molecular point group: c1

    Geometry (in Angstrom), charge = 0, multiplicity = 1:

       Center              X                  Y                   Z               Mass
    ------------   -----------------  -----------------  -----------------  -----------------
         N            1.250049251781    -0.193488386626    -0.000010055959    14.003074004430
         C            0.012466451781     0.554564813374    -0.000015955959    12.000000000000
         C           -1.281318748219    -0.274006386626     0.000023944041    12.000000000000
         H            0.009067251781     1.220620613374     0.876847944041     1.007825032230
         H            0.009045251781     1.220569613374    -0.876918055959     1.007825032230
         H           -1.321081748219    -0.916830386626    -0.885385055959     1.007825032230
         H           -1.321059748219    -0.916779386626     0.885471944041     1.007825032230
         H           -2.176147748219     0.357002613374     0.000016944041     1.007825032230
         H            1.269772251781    -0.808395386626    -0.813037055959     1.007825032230
         H            1.269789251781    -0.808353386626     0.813047944041     1.007825032230

  Basis Set: AUG-CC-PVTZ
    Blend: AUG-CC-PVTZ
  Basis Set: (AUG-CC-PVTZ AUX)
    Blend: AUG-CC-PVTZ-JKFIT
	 Reference Energy          =    -134.3051916396626950 [Eh]
	 Singles Energy            =      -0.0000000000000000 [Eh]
	 Same-Spin Energy          =      -0.1379996463208757 [Eh]
	 Opposite-Spin Energy      =      -0.5053212354754548 [Eh]
	 Correlation Energy        =      -0.6433208817963305 [Eh]
	 Total Energy              =    -134.9485125214590369 [Eh]

	 ================> DF-SCS-MP2 Energies <==================
	-----------------------------------------------------------
	 SCS Same-Spin Scale       =       0.3333333333333333 [-]
	 SCS Opposite-Spin Scale   =       1.2000000000000000 [-]
	 SCS Same-Spin Energy      =      -0.0459998821069586 [Eh]
	 SCS Opposite-Spin Energy  =      -0.6063854825705458 [Eh]
	 SCS Correlation Energy    =      -0.6523853646775044 [Eh]
	 SCS Total Energy          =    -134.9575770043402088 [Eh]
	-----------------------------------------------------------

  Dipole Moment: [D]
     X:    -1.0975      Y:    -0.8196      Z:     0.0000     Total:     1.3698

*** Psi4 exiting successfully. Buy a developer a beer!
