                               Psi4 1.3.2 release

  ==> Input File <==

--------------------------------------------------------------------------
#psi4
#
memory 32 gb

molecule  {
0 1
  N        1.3071640    -0.0864090     0.0000000
  C        0.0000000     0.5768050     0.0000000
  C       -1.2113480    -0.3553890     0.0000000
  H       -0.0360080     1.2309690     0.8773040
  H       -0.0360080     1.2309690    -0.8773040
  H       -1.2034720    -0.9989080    -0.8858340
  H       -1.2034720    -0.9989080     0.8858340
  H       -2.1510380     0.2067580     0.0000000
  H        1.3805248    -0.7571808    -0.8931066
  H        1.3739710    -0.6972560     0.8133190
units angstrom
no_reorient  #important for SAPT in psi4, default
symmetry c1  #important for SAPT in psi4, default
}

set PROPERTIES_ORIGIN ["COM"]
properties('MP2/aug-cc-pvtz', properties = ['dipole'])
--------------------------------------------------------------------------

    Molecular point group: c1
  Charge       = 0
  Multiplicity = 1
  Basis Set: AUG-CC-PVTZ
    Blend: AUG-CC-PVTZ
  Basis Set: (AUG-CC-PVTZ AUX)
    Blend: AUG-CC-PVTZ-JKFIT

    Orbital Energies [Eh]
    ---------------------

    Doubly Occupied:

       1A    -15.550260     2A    -11.247780     3A    -11.215267
       4A     -1.165117     5A     -0.982643     6A     -0.825997
       7A     -0.659910     8A     -0.593539     9A     -0.566333
      10A     -0.558133    11A     -0.504853    12A     -0.480686
      13A     -0.389608

  @DF-RHF Final Energy:  -134.29598525168495

   => Energetics <=

    Nuclear Repulsion Energy =             82.3097440331271741
    One-Electron Energy =                -343.7312078107800630
    Two-Electron Energy =                 127.1254785259679210
    Total Energy =                       -134.2959852516849537
  Basis Set: (AUG-CC-PVTZ AUX)
    Blend: AUG-CC-PVTZ-RI
    Molecular point group: c1

    Geometry (in Angstrom), charge = 0, multiplicity = 1:

       Center              X                  Y                   Z               Mass
    ------------   -----------------  -----------------  -----------------  -----------------
         N            1.265485131726    -0.100997184575     0.001784637792    14.003074004430
         C           -0.041678868274     0.562216815425     0.001784637792    12.000000000000
         C           -1.253026868274    -0.369977184575     0.001784637792    12.000000000000
         H           -0.077686868274     1.216380815425     0.879088637792     1.007825032230
         H           -0.077686868274     1.216380815425    -0.875519362208     1.007825032230
         H           -1.245150868274    -1.013496184575    -0.884049362208     1.007825032230
         H           -1.245150868274    -1.013496184575     0.887618637792     1.007825032230
         H           -2.192716868274     0.192169815425     0.001784637792     1.007825032230
         H            1.338845931726    -0.771768984575    -0.891321962208     1.007825032230
         H            1.332292131726    -0.711844184575     0.815103637792     1.007825032230

  Basis Set: AUG-CC-PVTZ
    Blend: AUG-CC-PVTZ
  Basis Set: (AUG-CC-PVTZ AUX)
    Blend: AUG-CC-PVTZ-JKFIT
	 Reference Energy          =    -134.2959852516849537 [Eh]
	 Singles Energy            =      -0.0000000000000000 [Eh]
	 Same-Spin Energy          =      -0.1383572578466923 [Eh]
	 Opposite-Spin Energy      =      -0.5070824553638404 [Eh]
	 Correlation Energy        =      -0.6454397132105327 [Eh]
	 Total Energy              =    -134.9414249648954751 [Eh]

	 ================> DF-SCS-MP2 Energies <==================
	-----------------------------------------------------------
	 SCS Same-Spin Scale       =       0.3333333333333333 [-]
	 SCS Opposite-Spin Scale   =       1.2000000000000000 [-]
	 SCS Same-Spin Energy      =      -0.0461190859488974 [Eh]
	 SCS Opposite-Spin Energy  =      -0.6084989464366085 [Eh]
	 SCS Correlation Energy    =      -0.6546180323855060 [Eh]
	 SCS Total Energy          =    -134.9506032840704677 [Eh]
	-----------------------------------------------------------

  Dipole Moment: [D]
     X:    -1.0878      Y:    -0.8682      Z:    -0.0075     Total:     1.3918

*** Psi4 exiting successfully. Buy a developer a beer!
