                               Psi4 1.3.2 release

  ==> Input File <==

--------------------------------------------------------------------------
#psi4
#
memory 32 gb

molecule  {
0 1
  N        1.3006815    -0.0986922    -0.0214840
  C        0.0000000     0.5768050     0.0000000
  C       -1.2113480    -0.3553890     0.0000000
  H       -0.0536673     1.2363463     0.8723615
  H       -0.0360080     1.2309690    -0.8773040
  H       -1.2034720    -0.9989080    -0.8858340
  H       -1.2034720    -0.9989080     0.8858340
  H       -2.1510380     0.2067580     0.0000000
  H        1.3739710    -0.6972560    -0.8133190
  H        1.3739710    -0.6972560     0.8133190
units angstrom
no_reorient  #important for SAPT in psi4, default
symmetry c1  #important for SAPT in psi4, default
}

set PROPERTIES_ORIGIN ["COM"]
properties('MP2/aug-cc-pvtz', properties = ['dipole'])
--------------------------------------------------------------------------

    Molecular point group: c1
  Charge       = 0
  Multiplicity = 1
  Basis Set: AUG-CC-PVTZ
    Blend: AUG-CC-PVTZ
  Basis Set: (AUG-CC-PVTZ AUX)
    Blend: AUG-CC-PVTZ-JKFIT

    Orbital Energies [Eh]
    ---------------------

    Doubly Occupied:

       1A    -15.537390     2A    -11.247328     3A    -11.214689
       4A     -1.175993     5A     -0.986720     6A     -0.829535
       7A     -0.672364     8A     -0.597529     9A     -0.570589
      10A     -0.563245    11A     -0.506080    12A     -0.482436
      13A     -0.388776

  @DF-RHF Final Energy:  -134.30535729226381

   => Energetics <=

    Nuclear Repulsion Energy =             82.8117798844804156
    One-Electron Energy =                -344.6889254604153621
    Two-Electron Energy =                 127.5717882836711397
    Total Energy =                       -134.3053572922638068
  Basis Set: (AUG-CC-PVTZ AUX)
    Blend: AUG-CC-PVTZ-RI
    Molecular point group: c1

    Geometry (in Angstrom), charge = 0, multiplicity = 1:

       Center              X                  Y                   Z               Mass
    ------------   -----------------  -----------------  -----------------  -----------------
         N            1.261558845515    -0.110923648304    -0.014696653903    14.003074004430
         C           -0.039122654485     0.564573551696     0.006787346097    12.000000000000
         C           -1.250470654485    -0.367620448304     0.006787346097    12.000000000000
         H           -0.092789954485     1.224114851696     0.879148846097     1.007825032230
         H           -0.075130654485     1.218737551696    -0.870516653903     1.007825032230
         H           -1.242594654485    -1.011139448304    -0.879046653903     1.007825032230
         H           -1.242594654485    -1.011139448304     0.892621346097     1.007825032230
         H           -2.190160654485     0.194526551696     0.006787346097     1.007825032230
         H            1.334848345515    -0.709487448304    -0.806531653903     1.007825032230
         H            1.334848345515    -0.709487448304     0.820106346097     1.007825032230

  Basis Set: AUG-CC-PVTZ
    Blend: AUG-CC-PVTZ
  Basis Set: (AUG-CC-PVTZ AUX)
    Blend: AUG-CC-PVTZ-JKFIT
	 Reference Energy          =    -134.3053572922638068 [Eh]
	 Singles Energy            =      -0.0000000000000000 [Eh]
	 Same-Spin Energy          =      -0.1378661155672075 [Eh]
	 Opposite-Spin Energy      =      -0.5050940636060873 [Eh]
	 Correlation Energy        =      -0.6429601791732948 [Eh]
	 Total Energy              =    -134.9483174714370932 [Eh]

	 ================> DF-SCS-MP2 Energies <==================
	-----------------------------------------------------------
	 SCS Same-Spin Scale       =       0.3333333333333333 [-]
	 SCS Opposite-Spin Scale   =       1.2000000000000000 [-]
	 SCS Same-Spin Energy      =      -0.0459553718557358 [Eh]
	 SCS Opposite-Spin Energy  =      -0.6061128763273048 [Eh]
	 SCS Correlation Energy    =      -0.6520682481830407 [Eh]
	 SCS Total Energy          =    -134.9574255404468488 [Eh]
	-----------------------------------------------------------

  Dipole Moment: [D]
     X:    -1.0614      Y:    -0.8581      Z:     0.0257     Total:     1.3652

*** Psi4 exiting successfully. Buy a developer a beer!
