                               Psi4 1.4a3.dev225

  ==> Input File <==

--------------------------------------------------------------------------
#psi4
#
memory 32 gb

molecule  {
0 1
  N        1.2972060    -0.1834440    -0.0000110
  C        0.0425070     0.5749550    -0.0000170
  C       -1.2341620    -0.2639620     0.0000230
  H        0.0562240     1.2306650     0.8768470
  H        0.0562020     1.2306140    -0.8769190
  H       -1.2739250    -0.9067860    -0.8853860
  H       -1.2739030    -0.9067350     0.8854710
  H       -2.1289910     0.3670470     0.0000160
  H        1.3165421    -0.7862889    -0.7970895
  H        1.3169460    -0.7983090     0.8130470
units angstrom
no_reorient  #important for SAPT in psi4, default
symmetry c1  #important for SAPT in psi4, default
}

set PROPERTIES_ORIGIN ["COM"]
properties('MP2/aug-cc-pvtz', properties = ['dipole'])
--------------------------------------------------------------------------

    Molecular point group: c1
  Charge       = 0
  Multiplicity = 1
  Basis Set: AUG-CC-PVTZ
    Blend: AUG-CC-PVTZ
  Basis Set: (AUG-CC-PVTZ AUX)
    Blend: AUG-CC-PVTZ-JKFIT

    Orbital Energies [Eh]
    ---------------------

    Doubly Occupied:

       1A    -15.537007     2A    -11.247056     3A    -11.215411
       4A     -1.177660     5A     -0.987415     6A     -0.829920
       7A     -0.672538     8A     -0.596095     9A     -0.570071
      10A     -0.565741    11A     -0.505384    12A     -0.482861
      13A     -0.391055

  @DF-RHF Final Energy:  -134.30587997964162

   => Energetics <=

    Nuclear Repulsion Energy =             82.8364212280055199
    One-Electron Energy =                -344.7281759362029447
    Two-Electron Energy =                 127.5858747285558081
    Total Energy =                       -134.3058799796416167
  Basis Set: (AUG-CC-PVTZ AUX)
    Blend: AUG-CC-PVTZ-RI
    Molecular point group: c1

    Geometry (in Angstrom), charge = 0, multiplicity = 1:

       Center              X                  Y                   Z               Mass
    ------------   -----------------  -----------------  -----------------  -----------------
         N            1.254616365636    -0.196513521839    -0.000366755131    14.003074004430
         C           -0.000082634364     0.561885478161    -0.000372755131    12.000000000000
         C           -1.276751634364    -0.277031521839    -0.000332755131    12.000000000000
         H            0.013634365636     1.217595478161     0.876491244869     1.007825032230
         H            0.013612365636     1.217544478161    -0.877274755131     1.007825032230
         H           -1.316514634364    -0.919855521839    -0.885741755131     1.007825032230
         H           -1.316492634364    -0.919804521839     0.885115244869     1.007825032230
         H           -2.171580634364     0.353977478161    -0.000339755131     1.007825032230
         H            1.273952465636    -0.799358421839    -0.797445255131     1.007825032230
         H            1.274356365636    -0.811378521839     0.812691244869     1.007825032230

  Basis Set: AUG-CC-PVTZ
    Blend: AUG-CC-PVTZ
  Basis Set: (AUG-CC-PVTZ AUX)
    Blend: AUG-CC-PVTZ-JKFIT
	 Reference Energy          =    -134.3058799796416167 [Eh]
	 Singles Energy            =      -0.0000000000000000 [Eh]
	 Same-Spin Energy          =      -0.1378548767440767 [Eh]
	 Opposite-Spin Energy      =      -0.5050745478368603 [Eh]
	 Correlation Energy        =      -0.6429294245809370 [Eh]
	 Total Energy              =    -134.9488094042225441 [Eh]

	 ================> DF-SCS-MP2 Energies <==================
	-----------------------------------------------------------
	 SCS Same-Spin Scale       =       0.3333333333333333 [-]
	 SCS Opposite-Spin Scale   =       1.2000000000000000 [-]
	 SCS Same-Spin Energy      =      -0.0459516255813589 [Eh]
	 SCS Opposite-Spin Energy  =      -0.6060894574042324 [Eh]
	 SCS Correlation Energy    =      -0.6520410829855913 [Eh]
	 SCS Total Energy          =    -134.9579210626272072 [Eh]
	-----------------------------------------------------------

  Dipole Moment: [D]
     X:    -1.1539      Y:    -0.8020      Z:     0.0029     Total:     1.4052

*** Psi4 exiting successfully. Buy a developer a beer!
