                               Psi4 1.4a3.dev225

  ==> Input File <==

--------------------------------------------------------------------------
#psi4
#
memory 32 gb

molecule  {
0 1
  N        1.2972060    -0.1834440    -0.0000110
  C        0.0425070     0.5749550    -0.0000170
  C       -1.2341620    -0.2639620     0.0000230
  H        0.0562240     1.2306650     0.8768470
  H        0.0562020     1.2306140    -0.8769190
  H       -1.2739250    -0.9067860    -0.8853860
  H       -1.2739030    -0.9067350     0.8854710
  H       -2.1289910     0.3670470     0.0000160
  H        1.3159618    -0.7681956    -0.7731667
  H        1.3169460    -0.7983090     0.8130470
units angstrom
no_reorient  #important for SAPT in psi4, default
symmetry c1  #important for SAPT in psi4, default
}

set PROPERTIES_ORIGIN ["COM"]
properties('MP2/aug-cc-pvtz', properties = ['dipole'])
--------------------------------------------------------------------------

    Molecular point group: c1
  Charge       = 0
  Multiplicity = 1
  Basis Set: AUG-CC-PVTZ
    Blend: AUG-CC-PVTZ
  Basis Set: (AUG-CC-PVTZ AUX)
    Blend: AUG-CC-PVTZ-JKFIT

    Orbital Energies [Eh]
    ---------------------

    Doubly Occupied:

       1A    -15.533428     2A    -11.246959     3A    -11.215474
       4A     -1.181881     5A     -0.988841     6A     -0.831190
       7A     -0.676357     8A     -0.596989     9A     -0.572198
      10A     -0.565881    11A     -0.505530    12A     -0.483336
      13A     -0.391440

  @DF-RHF Final Energy:  -134.30498623329308

   => Energetics <=

    Nuclear Repulsion Energy =             82.9817869721435528
    One-Electron Energy =                -344.9945394831626118
    Two-Electron Energy =                 127.7077662777259945
    Total Energy =                       -134.3049862332930786
  Basis Set: (AUG-CC-PVTZ AUX)
    Blend: AUG-CC-PVTZ-RI
    Molecular point group: c1

    Geometry (in Angstrom), charge = 0, multiplicity = 1:

       Center              X                  Y                   Z               Mass
    ------------   -----------------  -----------------  -----------------  -----------------
         N            1.254629345414    -0.196918221152    -0.000901844957    14.003074004430
         C           -0.000069654586     0.561480778848    -0.000907844957    12.000000000000
         C           -1.276738654586    -0.277436221152    -0.000867844957    12.000000000000
         H            0.013647345414     1.217190778848     0.875956155043     1.007825032230
         H            0.013625345414     1.217139778848    -0.877809844957     1.007825032230
         H           -1.316501654586    -0.920260221152    -0.886276844957     1.007825032230
         H           -1.316479654586    -0.920209221152     0.884580155043     1.007825032230
         H           -2.171567654586     0.353572778848    -0.000874844957     1.007825032230
         H            1.273385145414    -0.781669821152    -0.774057544957     1.007825032230
         H            1.274369345414    -0.811783221152     0.812156155043     1.007825032230

  Basis Set: AUG-CC-PVTZ
    Blend: AUG-CC-PVTZ
  Basis Set: (AUG-CC-PVTZ AUX)
    Blend: AUG-CC-PVTZ-JKFIT
	 Reference Energy          =    -134.3049862332930786 [Eh]
	 Singles Energy            =      -0.0000000000000000 [Eh]
	 Same-Spin Energy          =      -0.1377236518665622 [Eh]
	 Opposite-Spin Energy      =      -0.5046268752151229 [Eh]
	 Correlation Energy        =      -0.6423505270816852 [Eh]
	 Total Energy              =    -134.9473367603747533 [Eh]

	 ================> DF-SCS-MP2 Energies <==================
	-----------------------------------------------------------
	 SCS Same-Spin Scale       =       0.3333333333333333 [-]
	 SCS Opposite-Spin Scale   =       1.2000000000000000 [-]
	 SCS Same-Spin Energy      =      -0.0459078839555207 [Eh]
	 SCS Opposite-Spin Energy  =      -0.6055522502581475 [Eh]
	 SCS Correlation Energy    =      -0.6514601342136682 [Eh]
	 SCS Total Energy          =    -134.9564463675067429 [Eh]
	-----------------------------------------------------------

  Dipole Moment: [D]
     X:    -1.1555      Y:    -0.8041      Z:     0.0080     Total:     1.4078

*** Psi4 exiting successfully. Buy a developer a beer!
