                               Psi4 1.3.2 release

  ==> Input File <==

--------------------------------------------------------------------------
#psi4
#
memory 32 gb

molecule  {
0 1
  N        1.3071640    -0.0864090     0.0000000
  C       -0.1783567     0.6672976     0.0000000
  C       -1.2113480    -0.3553890     0.0000000
  H       -0.0360080     1.2309690     0.8773040
  H       -0.0360080     1.2309690    -0.8773040
  H       -1.2034720    -0.9989080    -0.8858340
  H       -1.2034720    -0.9989080     0.8858340
  H       -2.1510380     0.2067580     0.0000000
  H        1.3739710    -0.6972560    -0.8133190
  H        1.3739710    -0.6972560     0.8133190
units angstrom
no_reorient  #important for SAPT in psi4, default
symmetry c1  #important for SAPT in psi4, default
}

set PROPERTIES_ORIGIN ["COM"]
properties('MP2/aug-cc-pvtz', properties = ['dipole'])
--------------------------------------------------------------------------

    Molecular point group: c1
  Charge       = 0
  Multiplicity = 1
  Basis Set: AUG-CC-PVTZ
    Blend: AUG-CC-PVTZ
  Basis Set: (AUG-CC-PVTZ AUX)
    Blend: AUG-CC-PVTZ-JKFIT

    Orbital Energies [Eh]
    ---------------------

    Doubly Occupied:

       1A    -15.529887     2A    -11.251821     3A    -11.219905
       4A     -1.131388     5A     -1.008209     6A     -0.837747
       7A     -0.662914     8A     -0.585290     9A     -0.578033
      10A     -0.571013    11A     -0.505548    12A     -0.473694
      13A     -0.380042

  @DF-RHF Final Energy:  -134.27568474607219

   => Energetics <=

    Nuclear Repulsion Energy =             81.6865204552722162
    One-Electron Energy =                -342.4534315440316163
    Two-Electron Energy =                 126.4912263426872272
    Total Energy =                       -134.2756847460721588
  Basis Set: (AUG-CC-PVTZ AUX)
    Blend: AUG-CC-PVTZ-RI
    Molecular point group: c1

    Geometry (in Angstrom), charge = 0, multiplicity = 1:

       Center              X                  Y                   Z               Mass
    ------------   -----------------  -----------------  -----------------  -----------------
         N            1.313132445577    -0.126437922051     0.000000000000    14.003074004430
         C           -0.172388254423     0.627268677949     0.000000000000    12.000000000000
         C           -1.205379554423    -0.395417922051     0.000000000000    12.000000000000
         H           -0.030039554423     1.190940077949     0.877304000000     1.007825032230
         H           -0.030039554423     1.190940077949    -0.877304000000     1.007825032230
         H           -1.197503554423    -1.038936922051    -0.885834000000     1.007825032230
         H           -1.197503554423    -1.038936922051     0.885834000000     1.007825032230
         H           -2.145069554423     0.166729077949     0.000000000000     1.007825032230
         H            1.379939445577    -0.737284922051    -0.813319000000     1.007825032230
         H            1.379939445577    -0.737284922051     0.813319000000     1.007825032230

  Basis Set: AUG-CC-PVTZ
    Blend: AUG-CC-PVTZ
  Basis Set: (AUG-CC-PVTZ AUX)
    Blend: AUG-CC-PVTZ-JKFIT
	 Reference Energy          =    -134.2756847460721872 [Eh]
	 Singles Energy            =      -0.0000000000000000 [Eh]
	 Same-Spin Energy          =      -0.1387750006300175 [Eh]
	 Opposite-Spin Energy      =      -0.5084844668808490 [Eh]
	 Correlation Energy        =      -0.6472594675108666 [Eh]
	 Total Energy              =    -134.9229442135830652 [Eh]

	 ================> DF-SCS-MP2 Energies <==================
	-----------------------------------------------------------
	 SCS Same-Spin Scale       =       0.3333333333333333 [-]
	 SCS Opposite-Spin Scale   =       1.2000000000000000 [-]
	 SCS Same-Spin Energy      =      -0.0462583335433392 [Eh]
	 SCS Opposite-Spin Energy  =      -0.6101813602570189 [Eh]
	 SCS Correlation Energy    =      -0.6564396938003580 [Eh]
	 SCS Total Energy          =    -134.9321244398725526 [Eh]
	-----------------------------------------------------------

  Dipole Moment: [D]
     X:    -1.5866      Y:    -0.7621      Z:    -0.0000     Total:     1.7602

*** Psi4 exiting successfully. Buy a developer a beer!
