                               Psi4 1.3.2 release

  ==> Input File <==

--------------------------------------------------------------------------
#psi4
#
memory 32 gb

molecule  {
0 1
  N        1.3071640    -0.0864090     0.0000000
  C        0.0203479     0.6124701     0.0648300
  C       -1.2113480    -0.3553890     0.0000000
  H       -0.0360080     1.2309690     0.8773040
  H       -0.0360080     1.2309690    -0.8773040
  H       -1.2034720    -0.9989080    -0.8858340
  H       -1.2034720    -0.9989080     0.8858340
  H       -2.1510380     0.2067580     0.0000000
  H        1.4230501    -0.7108257    -0.7973451
  H        1.3739710    -0.6972560     0.8133190
units angstrom
no_reorient  #important for SAPT in psi4, default
symmetry c1  #important for SAPT in psi4, default
}

set PROPERTIES_ORIGIN ["COM"]
properties('MP2/aug-cc-pvtz', properties = ['dipole'])
--------------------------------------------------------------------------

    Molecular point group: c1
  Charge       = 0
  Multiplicity = 1
  Basis Set: AUG-CC-PVTZ
    Blend: AUG-CC-PVTZ
  Basis Set: (AUG-CC-PVTZ AUX)
    Blend: AUG-CC-PVTZ-JKFIT

    Orbital Energies [Eh]
    ---------------------

    Doubly Occupied:

       1A    -15.538130     2A    -11.247798     3A    -11.215561
       4A     -1.172333     5A     -0.979774     6A     -0.836971
       7A     -0.668503     8A     -0.600586     9A     -0.566032
      10A     -0.556008    11A     -0.516818    12A     -0.481557
      13A     -0.382707

  @DF-RHF Final Energy:  -134.29826067916247

   => Energetics <=

    Nuclear Repulsion Energy =             82.4068982803887167
    One-Electron Energy =                -343.8847603955938439
    Two-Electron Energy =                 127.1796014360426739
    Total Energy =                       -134.2982606791624676
  Basis Set: (AUG-CC-PVTZ AUX)
    Blend: AUG-CC-PVTZ-RI
    Molecular point group: c1

    Geometry (in Angstrom), charge = 0, multiplicity = 1:

       Center              X                  Y                   Z               Mass
    ------------   -----------------  -----------------  -----------------  -----------------
         N            1.259114812975    -0.111532508348    -0.017623098081    14.003074004430
         C           -0.027701287025     0.587346591652     0.047206901919    12.000000000000
         C           -1.259397187025    -0.380512508348    -0.017623098081    12.000000000000
         H           -0.084057187025     1.205845491652     0.859680901919     1.007825032230
         H           -0.084057187025     1.205845491652    -0.894927098081     1.007825032230
         H           -1.251521187025    -1.024031508348    -0.903457098081     1.007825032230
         H           -1.251521187025    -1.024031508348     0.868210901919     1.007825032230
         H           -2.199087187025     0.181634491652    -0.017623098081     1.007825032230
         H            1.375000912975    -0.735949208348    -0.814968198081     1.007825032230
         H            1.325921812975    -0.722379508348     0.795695901919     1.007825032230

  Basis Set: AUG-CC-PVTZ
    Blend: AUG-CC-PVTZ
  Basis Set: (AUG-CC-PVTZ AUX)
    Blend: AUG-CC-PVTZ-JKFIT
	 Reference Energy          =    -134.2982606791624676 [Eh]
	 Singles Energy            =      -0.0000000000000000 [Eh]
	 Same-Spin Energy          =      -0.1377904605404828 [Eh]
	 Opposite-Spin Energy      =      -0.5053548109187231 [Eh]
	 Correlation Energy        =      -0.6431452714592060 [Eh]
	 Total Energy              =    -134.9414059506216859 [Eh]

	 ================> DF-SCS-MP2 Energies <==================
	-----------------------------------------------------------
	 SCS Same-Spin Scale       =       0.3333333333333333 [-]
	 SCS Opposite-Spin Scale   =       1.2000000000000000 [-]
	 SCS Same-Spin Energy      =      -0.0459301535134943 [Eh]
	 SCS Opposite-Spin Energy  =      -0.6064257731024677 [Eh]
	 SCS Correlation Energy    =      -0.6523559266159620 [Eh]
	 SCS Total Energy          =    -134.9506166057784355 [Eh]
	-----------------------------------------------------------

  Dipole Moment: [D]
     X:    -1.0074      Y:    -0.8483      Z:     0.0374     Total:     1.3175

*** Psi4 exiting successfully. Buy a developer a beer!
