                               Psi4 1.3.2 release

  ==> Input File <==

--------------------------------------------------------------------------
#psi4
#
memory 32 gb

molecule  {
0 1
  N        1.3071640    -0.0864090     0.0000000
  C        0.0000000     0.5768050     0.0000000
  C       -1.2113480    -0.3553890     0.0000000
  H       -0.0360080     1.2309690     0.8773040
  H       -0.0360080     1.2309690    -0.8773040
  H       -1.2034720    -0.9989080    -0.8858340
  H       -1.2034720    -0.9989080     0.8858340
  H       -2.1510380     0.2067580     0.0000000
  H        1.3747401    -0.7042881    -0.8079257
  H        1.3747401    -0.7042881     0.8079257
units angstrom
no_reorient  #important for SAPT in psi4, default
symmetry c1  #important for SAPT in psi4, default
}

set PROPERTIES_ORIGIN ["COM"]
properties('MP2/aug-cc-pvtz', properties = ['dipole'])
--------------------------------------------------------------------------

    Molecular point group: c1
  Charge       = 0
  Multiplicity = 1
  Basis Set: AUG-CC-PVTZ
    Blend: AUG-CC-PVTZ
  Basis Set: (AUG-CC-PVTZ AUX)
    Blend: AUG-CC-PVTZ-JKFIT

    Orbital Energies [Eh]
    ---------------------

    Doubly Occupied:

       1A    -15.539345     2A    -11.247359     3A    -11.215450
       4A     -1.175252     5A     -0.986544     6A     -0.829588
       7A     -0.669005     8A     -0.595969     9A     -0.568106
      10A     -0.565928    11A     -0.505424    12A     -0.482621
      13A     -0.391032

  @DF-RHF Final Energy:  -134.30556204437821

   => Energetics <=

    Nuclear Repulsion Energy =             82.7315723115674473
    One-Electron Energy =                -344.5310195879397384
    Two-Electron Energy =                 127.4938852319940850
    Total Energy =                       -134.3055620443782061
  Basis Set: (AUG-CC-PVTZ AUX)
    Blend: AUG-CC-PVTZ-RI
    Molecular point group: c1

    Geometry (in Angstrom), charge = 0, multiplicity = 1:

       Center              X                  Y                   Z               Mass
    ------------   -----------------  -----------------  -----------------  -----------------
         N            1.265597317446    -0.102022965021     0.000000000000    14.003074004430
         C           -0.041566682554     0.561191034979     0.000000000000    12.000000000000
         C           -1.252914682554    -0.371002965021     0.000000000000    12.000000000000
         H           -0.077574682554     1.215355034979     0.877304000000     1.007825032230
         H           -0.077574682554     1.215355034979    -0.877304000000     1.007825032230
         H           -1.245038682554    -1.014521965021    -0.885834000000     1.007825032230
         H           -1.245038682554    -1.014521965021     0.885834000000     1.007825032230
         H           -2.192604682554     0.191144034979     0.000000000000     1.007825032230
         H            1.333173417446    -0.719902065021    -0.807925700000     1.007825032230
         H            1.333173417446    -0.719902065021     0.807925700000     1.007825032230

  Basis Set: AUG-CC-PVTZ
    Blend: AUG-CC-PVTZ
  Basis Set: (AUG-CC-PVTZ AUX)
    Blend: AUG-CC-PVTZ-JKFIT
	 Reference Energy          =    -134.3055620443782061 [Eh]
	 Singles Energy            =      -0.0000000000000000 [Eh]
	 Same-Spin Energy          =      -0.1379345485695498 [Eh]
	 Opposite-Spin Energy      =      -0.5053782920700813 [Eh]
	 Correlation Energy        =      -0.6433128406396311 [Eh]
	 Total Energy              =    -134.9488748850178297 [Eh]

	 ================> DF-SCS-MP2 Energies <==================
	-----------------------------------------------------------
	 SCS Same-Spin Scale       =       0.3333333333333333 [-]
	 SCS Opposite-Spin Scale   =       1.2000000000000000 [-]
	 SCS Same-Spin Energy      =      -0.0459781828565166 [Eh]
	 SCS Opposite-Spin Energy  =      -0.6064539504840976 [Eh]
	 SCS Correlation Energy    =      -0.6524321333406141 [Eh]
	 SCS Total Energy          =    -134.9579941777188310 [Eh]
	-----------------------------------------------------------

  Dipole Moment: [D]
     X:    -1.0918      Y:    -0.8915      Z:    -0.0000     Total:     1.4095

*** Psi4 exiting successfully. Buy a developer a beer!
