                               Psi4 1.3.2 release

  ==> Input File <==

--------------------------------------------------------------------------
#psi4
#
memory 32 gb

molecule  {
0 1
  N        1.3400825    -0.0170884     0.0000000
  C        0.0000000     0.5768050     0.0000000
  C       -1.2584752    -0.2907144     0.0000000
  H       -0.0360080     1.2309690     0.8773040
  H       -0.0360080     1.2309690    -0.8773040
  H       -1.2034720    -0.9989080    -0.8858340
  H       -1.2034720    -0.9989080     0.8858340
  H       -2.1510380     0.2067580     0.0000000
  H        1.3739710    -0.6972560    -0.8133190
  H        1.3739710    -0.6972560     0.8133190
units angstrom
no_reorient  #important for SAPT in psi4, default
symmetry c1  #important for SAPT in psi4, default
}

set PROPERTIES_ORIGIN ["COM"]
properties('MP2/aug-cc-pvtz', properties = ['dipole'])
--------------------------------------------------------------------------

    Molecular point group: c1
  Charge       = 0
  Multiplicity = 1
  Basis Set: AUG-CC-PVTZ
    Blend: AUG-CC-PVTZ
  Basis Set: (AUG-CC-PVTZ AUX)
    Blend: AUG-CC-PVTZ-JKFIT

    Orbital Energies [Eh]
    ---------------------

    Doubly Occupied:

       1A    -15.555233     2A    -11.247413     3A    -11.219667
       4A     -1.171393     5A     -0.988549     6A     -0.826722
       7A     -0.656920     8A     -0.606127     9A     -0.577275
      10A     -0.549279    11A     -0.501258    12A     -0.468444
      13A     -0.404560

  @DF-RHF Final Energy:  -134.29024977421781

   => Energetics <=

    Nuclear Repulsion Energy =             82.1467987997521902
    One-Electron Energy =                -343.3284199532192247
    Two-Electron Energy =                 126.8913713792492501
    Total Energy =                       -134.2902497742178127
  Basis Set: (AUG-CC-PVTZ AUX)
    Blend: AUG-CC-PVTZ-RI
    Molecular point group: c1

    Geometry (in Angstrom), charge = 0, multiplicity = 1:

       Center              X                  Y                   Z               Mass
    ------------   -----------------  -----------------  -----------------  -----------------
         N            1.300870933073    -0.071784810694     0.000000000000    14.003074004430
         C           -0.039211566927     0.522108589306     0.000000000000    12.000000000000
         C           -1.297686766927    -0.345410810694     0.000000000000    12.000000000000
         H           -0.075219566927     1.176272589306     0.877304000000     1.007825032230
         H           -0.075219566927     1.176272589306    -0.877304000000     1.007825032230
         H           -1.242683566927    -1.053604410694    -0.885834000000     1.007825032230
         H           -1.242683566927    -1.053604410694     0.885834000000     1.007825032230
         H           -2.190249566927     0.152061589306     0.000000000000     1.007825032230
         H            1.334759433073    -0.751952410694    -0.813319000000     1.007825032230
         H            1.334759433073    -0.751952410694     0.813319000000     1.007825032230

  Basis Set: AUG-CC-PVTZ
    Blend: AUG-CC-PVTZ
  Basis Set: (AUG-CC-PVTZ AUX)
    Blend: AUG-CC-PVTZ-JKFIT
	 Reference Energy          =    -134.2902497742178127 [Eh]
	 Singles Energy            =      -0.0000000000000000 [Eh]
	 Same-Spin Energy          =      -0.1386805332162657 [Eh]
	 Opposite-Spin Energy      =      -0.5078475357167374 [Eh]
	 Correlation Energy        =      -0.6465280689330031 [Eh]
	 Total Energy              =    -134.9367778431508214 [Eh]

	 ================> DF-SCS-MP2 Energies <==================
	-----------------------------------------------------------
	 SCS Same-Spin Scale       =       0.3333333333333333 [-]
	 SCS Opposite-Spin Scale   =       1.2000000000000000 [-]
	 SCS Same-Spin Energy      =      -0.0462268444054219 [Eh]
	 SCS Opposite-Spin Energy  =      -0.6094170428600848 [Eh]
	 SCS Correlation Energy    =      -0.6556438872655067 [Eh]
	 SCS Total Energy          =    -134.9458936614833249 [Eh]
	-----------------------------------------------------------

  Dipole Moment: [D]
     X:    -1.1747      Y:    -0.9656      Z:     0.0000     Total:     1.5206

*** Psi4 exiting successfully. Buy a developer a beer!
