                               Psi4 1.3.2 release

  ==> Input File <==

--------------------------------------------------------------------------
#psi4
#
memory 32 gb

molecule  {
0 1
  N        1.3189325    -0.0612403     0.0429615
  C        0.0000000     0.5768050     0.0000000
  C       -1.2113480    -0.3553890     0.0000000
  H       -0.0006619     1.2196183     0.8863859
  H       -0.0360080     1.2309690    -0.8773040
  H       -1.2034720    -0.9989080    -0.8858340
  H       -1.2034720    -0.9989080     0.8858340
  H       -2.1510380     0.2067580     0.0000000
  H        1.3739710    -0.6972560    -0.8133190
  H        1.3739710    -0.6972560     0.8133190
units angstrom
no_reorient  #important for SAPT in psi4, default
symmetry c1  #important for SAPT in psi4, default
}

set PROPERTIES_ORIGIN ["COM"]
properties('MP2/aug-cc-pvtz', properties = ['dipole'])
--------------------------------------------------------------------------

    Molecular point group: c1
  Charge       = 0
  Multiplicity = 1
  Basis Set: AUG-CC-PVTZ
    Blend: AUG-CC-PVTZ
  Basis Set: (AUG-CC-PVTZ AUX)
    Blend: AUG-CC-PVTZ-JKFIT

    Orbital Energies [Eh]
    ---------------------

    Doubly Occupied:

       1A    -15.543320     2A    -11.247216     3A    -11.216764
       4A     -1.174136     5A     -0.986000     6A     -0.829088
       7A     -0.665849     8A     -0.594461     9A     -0.571497
      10A     -0.561274    11A     -0.503908    12A     -0.480785
      13A     -0.394439

  @DF-RHF Final Energy:  -134.30138742734502

   => Energetics <=

    Nuclear Repulsion Energy =             82.5921283737916667
    One-Electron Energy =                -344.2495578100572402
    Two-Electron Energy =                 127.3560420089205820
    Total Energy =                       -134.3013874273450199
  Basis Set: (AUG-CC-PVTZ AUX)
    Blend: AUG-CC-PVTZ-RI
    Molecular point group: c1

    Geometry (in Angstrom), charge = 0, multiplicity = 1:

       Center              X                  Y                   Z               Mass
    ------------   -----------------  -----------------  -----------------  -----------------
         N            1.272952210766    -0.084736884986     0.029406791099    14.003074004430
         C           -0.045980289234     0.553308415014    -0.013554708901    12.000000000000
         C           -1.257328289234    -0.378885584986    -0.013554708901    12.000000000000
         H           -0.046642189234     1.196121715014     0.872831191099     1.007825032230
         H           -0.081988289234     1.207472415014    -0.890858708901     1.007825032230
         H           -1.249452289234    -1.022404584986    -0.899388708901     1.007825032230
         H           -1.249452289234    -1.022404584986     0.872279291099     1.007825032230
         H           -2.197018289234     0.183261415014    -0.013554708901     1.007825032230
         H            1.327990710766    -0.720752584986    -0.826873708901     1.007825032230
         H            1.327990710766    -0.720752584986     0.799764291099     1.007825032230

  Basis Set: AUG-CC-PVTZ
    Blend: AUG-CC-PVTZ
  Basis Set: (AUG-CC-PVTZ AUX)
    Blend: AUG-CC-PVTZ-JKFIT
	 Reference Energy          =    -134.3013874273450199 [Eh]
	 Singles Energy            =      -0.0000000000000000 [Eh]
	 Same-Spin Energy          =      -0.1381464308116237 [Eh]
	 Opposite-Spin Energy      =      -0.5061612974775072 [Eh]
	 Correlation Energy        =      -0.6443077282891309 [Eh]
	 Total Energy              =    -134.9456951556341551 [Eh]

	 ================> DF-SCS-MP2 Energies <==================
	-----------------------------------------------------------
	 SCS Same-Spin Scale       =       0.3333333333333333 [-]
	 SCS Opposite-Spin Scale   =       1.2000000000000000 [-]
	 SCS Same-Spin Energy      =      -0.0460488102705412 [Eh]
	 SCS Opposite-Spin Energy  =      -0.6073935569730086 [Eh]
	 SCS Correlation Energy    =      -0.6534423672435498 [Eh]
	 SCS Total Energy          =    -134.9548297945885622 [Eh]
	-----------------------------------------------------------

  Dipole Moment: [D]
     X:    -1.1350      Y:    -0.9257      Z:    -0.0460     Total:     1.4654

*** Psi4 exiting successfully. Buy a developer a beer!
