                               Psi4 1.3.2 release

  ==> Input File <==

--------------------------------------------------------------------------
#psi4
#
memory 32 gb

molecule  {
0 1
  N        1.3071640    -0.0864090     0.0000000
  C       -0.0030444     0.5706814    -0.0108098
  C       -1.2113480    -0.3553890     0.0000000
  H       -0.0360080     1.2309690     0.8773040
  H       -0.0360080     1.2309690    -0.8773040
  H       -1.2034720    -0.9989080    -0.8858340
  H       -1.2034720    -0.9989080     0.8858340
  H       -2.1510380     0.2067580     0.0000000
  H        1.3657697    -0.6948305    -0.8157657
  H        1.3739710    -0.6972560     0.8133190
units angstrom
no_reorient  #important for SAPT in psi4, default
symmetry c1  #important for SAPT in psi4, default
}

set PROPERTIES_ORIGIN ["COM"]
properties('MP2/aug-cc-pvtz', properties = ['dipole'])
--------------------------------------------------------------------------

    Molecular point group: c1
  Charge       = 0
  Multiplicity = 1
  Basis Set: AUG-CC-PVTZ
    Blend: AUG-CC-PVTZ
  Basis Set: (AUG-CC-PVTZ AUX)
    Blend: AUG-CC-PVTZ-JKFIT

    Orbital Energies [Eh]
    ---------------------

    Doubly Occupied:

       1A    -15.539530     2A    -11.247320     3A    -11.215398
       4A     -1.175695     5A     -0.987524     6A     -0.828165
       7A     -0.670511     8A     -0.595606     9A     -0.569254
      10A     -0.566575    11A     -0.504854    12A     -0.480595
      13A     -0.391760

  @DF-RHF Final Energy:  -134.30524450565258

   => Energetics <=

    Nuclear Repulsion Energy =             82.7891814887556592
    One-Electron Energy =                -344.6432782545836062
    Two-Electron Energy =                 127.5488522601753516
    Total Energy =                       -134.3052445056525812
  Basis Set: (AUG-CC-PVTZ AUX)
    Blend: AUG-CC-PVTZ-RI
    Molecular point group: c1

    Geometry (in Angstrom), charge = 0, multiplicity = 1:

       Center              X                  Y                   Z               Mass
    ------------   -----------------  -----------------  -----------------  -----------------
         N            1.266625962015    -0.100760932578     0.002933638595    14.003074004430
         C           -0.043582437985     0.556329467422    -0.007876161405    12.000000000000
         C           -1.251886037985    -0.369740932578     0.002933638595    12.000000000000
         H           -0.076546037985     1.216617067422     0.880237638595     1.007825032230
         H           -0.076546037985     1.216617067422    -0.874370361405     1.007825032230
         H           -1.244010037985    -1.013259932578    -0.882900361405     1.007825032230
         H           -1.244010037985    -1.013259932578     0.888767638595     1.007825032230
         H           -2.191576037985     0.192406067422     0.002933638595     1.007825032230
         H            1.325231662015    -0.709182432578    -0.812832061405     1.007825032230
         H            1.333432962015    -0.711607932578     0.816252638595     1.007825032230

  Basis Set: AUG-CC-PVTZ
    Blend: AUG-CC-PVTZ
  Basis Set: (AUG-CC-PVTZ AUX)
    Blend: AUG-CC-PVTZ-JKFIT
	 Reference Energy          =    -134.3052445056525812 [Eh]
	 Singles Energy            =      -0.0000000000000000 [Eh]
	 Same-Spin Energy          =      -0.1379898616988157 [Eh]
	 Opposite-Spin Energy      =      -0.5054569314729022 [Eh]
	 Correlation Energy        =      -0.6434467931717178 [Eh]
	 Total Energy              =    -134.9486912988242864 [Eh]

	 ================> DF-SCS-MP2 Energies <==================
	-----------------------------------------------------------
	 SCS Same-Spin Scale       =       0.3333333333333333 [-]
	 SCS Opposite-Spin Scale   =       1.2000000000000000 [-]
	 SCS Same-Spin Energy      =      -0.0459966205662719 [Eh]
	 SCS Opposite-Spin Energy  =      -0.6065483177674825 [Eh]
	 SCS Correlation Energy    =      -0.6525449383337544 [Eh]
	 SCS Total Energy          =    -134.9577894439863428 [Eh]
	-----------------------------------------------------------

  Dipole Moment: [D]
     X:    -1.0971      Y:    -0.8901      Z:    -0.0071     Total:     1.4127

*** Psi4 exiting successfully. Buy a developer a beer!
