                               Psi4 1.3.2 release

  ==> Input File <==

--------------------------------------------------------------------------
#psi4
#
memory 32 gb

molecule  {
0 1
  N        1.3071640    -0.0864090     0.0000000
  C        0.0000000     0.5768050     0.0000000
  C       -1.2113480    -0.3553890     0.0000000
  H       -0.0360080     1.2309690     0.8773040
  H       -0.0360080     1.2309690    -0.8773040
  H       -1.2034720    -0.9989080    -0.8858340
  H       -1.2034720    -0.9989080     0.8858340
  H       -2.1510380     0.2067580     0.0000000
  H        1.3692517    -0.6541053    -0.8443643
  H        1.3692517    -0.6541053     0.8443643
units angstrom
no_reorient  #important for SAPT in psi4, default
symmetry c1  #important for SAPT in psi4, default
}

set PROPERTIES_ORIGIN ["COM"]
properties('MP2/aug-cc-pvtz', properties = ['dipole'])
--------------------------------------------------------------------------

    Molecular point group: c1
  Charge       = 0
  Multiplicity = 1
  Basis Set: AUG-CC-PVTZ
    Blend: AUG-CC-PVTZ
  Basis Set: (AUG-CC-PVTZ AUX)
    Blend: AUG-CC-PVTZ-JKFIT

    Orbital Energies [Eh]
    ---------------------

    Doubly Occupied:

       1A    -15.538693     2A    -11.246240     3A    -11.214799
       4A     -1.174474     5A     -0.985107     6A     -0.826575
       7A     -0.678105     8A     -0.592982     9A     -0.571883
      10A     -0.561931    11A     -0.503790    12A     -0.483131
      13A     -0.387676

  @DF-RHF Final Energy:  -134.30456425795762

   => Energetics <=

    Nuclear Repulsion Energy =             82.7565521959201504
    One-Electron Energy =                -344.5914611654378064
    Two-Electron Energy =                 127.5303447115600193
    Total Energy =                       -134.3045642579576224
  Basis Set: (AUG-CC-PVTZ AUX)
    Blend: AUG-CC-PVTZ-RI
    Molecular point group: c1

    Geometry (in Angstrom), charge = 0, multiplicity = 1:

       Center              X                  Y                   Z               Mass
    ------------   -----------------  -----------------  -----------------  -----------------
         N            1.265842839458    -0.104267878300     0.000000000000    14.003074004430
         C           -0.041321160542     0.558946121700     0.000000000000    12.000000000000
         C           -1.252669160542    -0.373247878300     0.000000000000    12.000000000000
         H           -0.077329160542     1.213110121700     0.877304000000     1.007825032230
         H           -0.077329160542     1.213110121700    -0.877304000000     1.007825032230
         H           -1.244793160542    -1.016766878300    -0.885834000000     1.007825032230
         H           -1.244793160542    -1.016766878300     0.885834000000     1.007825032230
         H           -2.192359160542     0.188899121700     0.000000000000     1.007825032230
         H            1.327930539458    -0.671964178300    -0.844364300000     1.007825032230
         H            1.327930539458    -0.671964178300     0.844364300000     1.007825032230

  Basis Set: AUG-CC-PVTZ
    Blend: AUG-CC-PVTZ
  Basis Set: (AUG-CC-PVTZ AUX)
    Blend: AUG-CC-PVTZ-JKFIT
	 Reference Energy          =    -134.3045642579576224 [Eh]
	 Singles Energy            =      -0.0000000000000000 [Eh]
	 Same-Spin Energy          =      -0.1379848042140617 [Eh]
	 Opposite-Spin Energy      =      -0.5054052707120477 [Eh]
	 Correlation Energy        =      -0.6433900749261093 [Eh]
	 Total Energy              =    -134.9479543328837394 [Eh]

	 ================> DF-SCS-MP2 Energies <==================
	-----------------------------------------------------------
	 SCS Same-Spin Scale       =       0.3333333333333333 [-]
	 SCS Opposite-Spin Scale   =       1.2000000000000000 [-]
	 SCS Same-Spin Energy      =      -0.0459949347380206 [Eh]
	 SCS Opposite-Spin Energy  =      -0.6064863248544572 [Eh]
	 SCS Correlation Energy    =      -0.6524812595924777 [Eh]
	 SCS Total Energy          =    -134.9570455175501138 [Eh]
	-----------------------------------------------------------

  Dipole Moment: [D]
     X:    -1.0471      Y:    -0.8261      Z:    -0.0000     Total:     1.3337

*** Psi4 exiting successfully. Buy a developer a beer!
