                               Psi4 1.3.2 release

  ==> Input File <==

--------------------------------------------------------------------------
#psi4
#
memory 32 gb

molecule  {
0 1
  N        1.3071640    -0.0864090     0.0000000
  C        0.0000000     0.5768050     0.0000000
  C       -1.2113480    -0.3553890     0.0000000
  H       -0.0360080     1.2309690     0.8773040
  H       -0.0360080     1.2309690    -0.8773040
  H       -1.2034720    -0.9989080    -0.8858340
  H       -1.2034720    -0.9989080     0.8858340
  H       -2.1510380     0.2067580     0.0000000
  H        1.3674172    -0.6373312    -0.7335314
  H        1.3739710    -0.6972560     0.8133190
units angstrom
no_reorient  #important for SAPT in psi4, default
symmetry c1  #important for SAPT in psi4, default
}

set PROPERTIES_ORIGIN ["COM"]
properties('MP2/aug-cc-pvtz', properties = ['dipole'])
--------------------------------------------------------------------------

    Molecular point group: c1
  Charge       = 0
  Multiplicity = 1
  Basis Set: AUG-CC-PVTZ
    Blend: AUG-CC-PVTZ
  Basis Set: (AUG-CC-PVTZ AUX)
    Blend: AUG-CC-PVTZ-JKFIT

    Orbital Energies [Eh]
    ---------------------

    Doubly Occupied:

       1A    -15.527188     2A    -11.246917     3A    -11.215585
       4A     -1.190084     5A     -0.991263     6A     -0.833580
       7A     -0.683346     8A     -0.598635     9A     -0.575323
      10A     -0.565908    11A     -0.505702    12A     -0.484260
      13A     -0.391919

  @DF-RHF Final Energy:  -134.29898287414665

   => Energetics <=

    Nuclear Repulsion Energy =             83.2327849674415745
    One-Electron Energy =                -345.4441158463558281
    Two-Electron Energy =                 127.9123480047676509
    Total Energy =                       -134.2989828741466454
  Basis Set: (AUG-CC-PVTZ AUX)
    Blend: AUG-CC-PVTZ-RI
    Molecular point group: c1

    Geometry (in Angstrom), charge = 0, multiplicity = 1:

       Center              X                  Y                   Z               Mass
    ------------   -----------------  -----------------  -----------------  -----------------
         N            1.265778314104    -0.103677903452    -0.001784637792    14.003074004430
         C           -0.041385685896     0.559536096548    -0.001784637792    12.000000000000
         C           -1.252733685896    -0.372657903452    -0.001784637792    12.000000000000
         H           -0.077393685896     1.213700096548     0.875519362208     1.007825032230
         H           -0.077393685896     1.213700096548    -0.879088637792     1.007825032230
         H           -1.244857685896    -1.016176903452    -0.887618637792     1.007825032230
         H           -1.244857685896    -1.016176903452     0.884049362208     1.007825032230
         H           -2.192423685896     0.189489096548    -0.001784637792     1.007825032230
         H            1.326031514104    -0.654600103452    -0.735316037792     1.007825032230
         H            1.332585314104    -0.714524903452     0.811534362208     1.007825032230

  Basis Set: AUG-CC-PVTZ
    Blend: AUG-CC-PVTZ
  Basis Set: (AUG-CC-PVTZ AUX)
    Blend: AUG-CC-PVTZ-JKFIT
	 Reference Energy          =    -134.2989828741466454 [Eh]
	 Singles Energy            =      -0.0000000000000000 [Eh]
	 Same-Spin Energy          =      -0.1375029321315710 [Eh]
	 Opposite-Spin Energy      =      -0.5039305788362145 [Eh]
	 Correlation Energy        =      -0.6414335109677854 [Eh]
	 Total Energy              =    -134.9404163851144176 [Eh]

	 ================> DF-SCS-MP2 Energies <==================
	-----------------------------------------------------------
	 SCS Same-Spin Scale       =       0.3333333333333333 [-]
	 SCS Opposite-Spin Scale   =       1.2000000000000000 [-]
	 SCS Same-Spin Energy      =      -0.0458343107105237 [Eh]
	 SCS Opposite-Spin Energy  =      -0.6047166946034573 [Eh]
	 SCS Correlation Energy    =      -0.6505510053139810 [Eh]
	 SCS Total Energy          =    -134.9495338794606312 [Eh]
	-----------------------------------------------------------

  Dipole Moment: [D]
     X:    -1.0916      Y:    -0.8886      Z:     0.0189     Total:     1.4077

*** Psi4 exiting successfully. Buy a developer a beer!
