                               Psi4 1.3.2 release

  ==> Input File <==

--------------------------------------------------------------------------
#psi4
#
memory 32 gb

molecule  {
0 1
  N        1.3242150    -0.0483625     0.0644259
  C        0.0000000     0.5768050     0.0000000
  C       -1.2113480    -0.3553890     0.0000000
  H        0.0170141     1.2136484     0.8905225
  H       -0.0360080     1.2309690    -0.8773040
  H       -1.2034720    -0.9989080    -0.8858340
  H       -1.2034720    -0.9989080     0.8858340
  H       -2.1510380     0.2067580     0.0000000
  H        1.3739710    -0.6972560    -0.8133190
  H        1.3739710    -0.6972560     0.8133190
units angstrom
no_reorient  #important for SAPT in psi4, default
symmetry c1  #important for SAPT in psi4, default
}

set PROPERTIES_ORIGIN ["COM"]
properties('MP2/aug-cc-pvtz', properties = ['dipole'])
--------------------------------------------------------------------------

    Molecular point group: c1
  Charge       = 0
  Multiplicity = 1
  Basis Set: AUG-CC-PVTZ
    Blend: AUG-CC-PVTZ
  Basis Set: (AUG-CC-PVTZ AUX)
    Blend: AUG-CC-PVTZ-JKFIT

    Orbital Energies [Eh]
    ---------------------

    Doubly Occupied:

       1A    -15.545528     2A    -11.247357     3A    -11.217499
       4A     -1.174012     5A     -0.986026     6A     -0.829375
       7A     -0.663519     8A     -0.595133     9A     -0.573773
      10A     -0.557895    11A     -0.503700    12A     -0.478285
      13A     -0.396521

  @DF-RHF Final Energy:  -134.29722705526794

   => Energetics <=

    Nuclear Repulsion Energy =             82.5258730130234142
    One-Electron Energy =                -344.1089537032641488
    Two-Electron Energy =                 127.2858536349728240
    Total Energy =                       -134.2972270552679390
  Basis Set: (AUG-CC-PVTZ AUX)
    Blend: AUG-CC-PVTZ-RI
    Molecular point group: c1

    Geometry (in Angstrom), charge = 0, multiplicity = 1:

       Center              X                  Y                   Z               Mass
    ------------   -----------------  -----------------  -----------------  -----------------
         N            1.276197650514    -0.075727715530     0.044107962142    14.003074004430
         C           -0.048017349486     0.549439784470    -0.020317937858    12.000000000000
         C           -1.259365349486    -0.382754215530    -0.020317937858    12.000000000000
         H           -0.031003249486     1.186283184470     0.870204562142     1.007825032230
         H           -0.084025349486     1.203603784470    -0.897621937858     1.007825032230
         H           -1.251489349486    -1.026273215530    -0.906151937858     1.007825032230
         H           -1.251489349486    -1.026273215530     0.865516062142     1.007825032230
         H           -2.199055349486     0.179392784470    -0.020317937858     1.007825032230
         H            1.325953650514    -0.724621215530    -0.833636937858     1.007825032230
         H            1.325953650514    -0.724621215530     0.793001062142     1.007825032230

  Basis Set: AUG-CC-PVTZ
    Blend: AUG-CC-PVTZ
  Basis Set: (AUG-CC-PVTZ AUX)
    Blend: AUG-CC-PVTZ-JKFIT
	 Reference Energy          =    -134.2972270552679390 [Eh]
	 Singles Energy            =      -0.0000000000000000 [Eh]
	 Same-Spin Energy          =      -0.1382906496260782 [Eh]
	 Opposite-Spin Energy      =      -0.5066724770123845 [Eh]
	 Correlation Energy        =      -0.6449631266384628 [Eh]
	 Total Energy              =    -134.9421901819063976 [Eh]

	 ================> DF-SCS-MP2 Energies <==================
	-----------------------------------------------------------
	 SCS Same-Spin Scale       =       0.3333333333333333 [-]
	 SCS Opposite-Spin Scale   =       1.2000000000000000 [-]
	 SCS Same-Spin Energy      =      -0.0460968832086927 [Eh]
	 SCS Opposite-Spin Energy  =      -0.6080069724148613 [Eh]
	 SCS Correlation Energy    =      -0.6541038556235541 [Eh]
	 SCS Total Energy          =    -134.9513309108914996 [Eh]
	-----------------------------------------------------------

  Dipole Moment: [D]
     X:    -1.1602      Y:    -0.9447      Z:    -0.0662     Total:     1.4977

*** Psi4 exiting successfully. Buy a developer a beer!
