                               Psi4 1.3.2 release

  ==> Input File <==

--------------------------------------------------------------------------
#psi4
#
memory 32 gb

molecule  {
0 1
  N        1.3013267    -0.0977908     0.0000000
  C        0.0000000     0.5768050     0.0000000
  C       -1.2031671    -0.3659244     0.0000000
  H       -0.0360080     1.2309690     0.8773040
  H       -0.0360080     1.2309690    -0.8773040
  H       -1.2034720    -0.9989080    -0.8858340
  H       -1.2034720    -0.9989080     0.8858340
  H       -2.1510380     0.2067580     0.0000000
  H        1.3739710    -0.6972560    -0.8133190
  H        1.3739710    -0.6972560     0.8133190
units angstrom
no_reorient  #important for SAPT in psi4, default
symmetry c1  #important for SAPT in psi4, default
}

set PROPERTIES_ORIGIN ["COM"]
properties('MP2/aug-cc-pvtz', properties = ['dipole'])
--------------------------------------------------------------------------

    Molecular point group: c1
  Charge       = 0
  Multiplicity = 1
  Basis Set: AUG-CC-PVTZ
    Blend: AUG-CC-PVTZ
  Basis Set: (AUG-CC-PVTZ AUX)
    Blend: AUG-CC-PVTZ-JKFIT

    Orbital Energies [Eh]
    ---------------------

    Doubly Occupied:

       1A    -15.536801     2A    -11.247300     3A    -11.214881
       4A     -1.175826     5A     -0.986097     6A     -0.829702
       7A     -0.672769     8A     -0.594793     9A     -0.571910
      10A     -0.563098    11A     -0.504971    12A     -0.484949
      13A     -0.388127

  @DF-RHF Final Energy:  -134.30583335251794

   => Energetics <=

    Nuclear Repulsion Energy =             82.8368790208708106
    One-Electron Energy =                -344.7429752345510110
    Two-Electron Energy =                 127.6002628611622640
    Total Energy =                       -134.3058333525179364
  Basis Set: (AUG-CC-PVTZ AUX)
    Blend: AUG-CC-PVTZ-RI
    Molecular point group: c1

    Geometry (in Angstrom), charge = 0, multiplicity = 1:

       Center              X                  Y                   Z               Mass
    ------------   -----------------  -----------------  -----------------  -----------------
         N            1.259429766004    -0.107376276322     0.000000000000    14.003074004430
         C           -0.041896933996     0.567219523678     0.000000000000    12.000000000000
         C           -1.245064033996    -0.375509876322     0.000000000000    12.000000000000
         H           -0.077904933996     1.221383523678     0.877304000000     1.007825032230
         H           -0.077904933996     1.221383523678    -0.877304000000     1.007825032230
         H           -1.245368933996    -1.008493476322    -0.885834000000     1.007825032230
         H           -1.245368933996    -1.008493476322     0.885834000000     1.007825032230
         H           -2.192934933996     0.197172523678     0.000000000000     1.007825032230
         H            1.332074066004    -0.706841476322    -0.813319000000     1.007825032230
         H            1.332074066004    -0.706841476322     0.813319000000     1.007825032230

  Basis Set: AUG-CC-PVTZ
    Blend: AUG-CC-PVTZ
  Basis Set: (AUG-CC-PVTZ AUX)
    Blend: AUG-CC-PVTZ-JKFIT
	 Reference Energy          =    -134.3058333525179364 [Eh]
	 Singles Energy            =      -0.0000000000000000 [Eh]
	 Same-Spin Energy          =      -0.1378630974350535 [Eh]
	 Opposite-Spin Energy      =      -0.5051016317897232 [Eh]
	 Correlation Energy        =      -0.6429647292247767 [Eh]
	 Total Energy              =    -134.9487980817427228 [Eh]

	 ================> DF-SCS-MP2 Energies <==================
	-----------------------------------------------------------
	 SCS Same-Spin Scale       =       0.3333333333333333 [-]
	 SCS Opposite-Spin Scale   =       1.2000000000000000 [-]
	 SCS Same-Spin Energy      =      -0.0459543658116845 [Eh]
	 SCS Opposite-Spin Energy  =      -0.6061219581476679 [Eh]
	 SCS Correlation Energy    =      -0.6520763239593523 [Eh]
	 SCS Total Energy          =    -134.9579096764772999 [Eh]
	-----------------------------------------------------------

  Dipole Moment: [D]
     X:    -1.0636      Y:    -0.8655      Z:    -0.0000     Total:     1.3713

*** Psi4 exiting successfully. Buy a developer a beer!
