                               Psi4 1.3.2 release

  ==> Input File <==

--------------------------------------------------------------------------
#psi4
#
memory 32 gb

molecule  {
0 1
  N        1.3071640    -0.0864090     0.0000000
  C        0.0000000     0.5768050     0.0000000
  C       -1.2113480    -0.3553890     0.0000000
  H       -0.0360080     1.2309690     0.8773040
  H       -0.0360080     1.2309690    -0.8773040
  H       -1.2034720    -0.9989080    -0.8858340
  H       -1.2034720    -0.9989080     0.8858340
  H       -2.1510380     0.2067580     0.0000000
  H        1.3731968    -0.6901774    -0.8186504
  H        1.3731968    -0.6901774     0.8186504
units angstrom
no_reorient  #important for SAPT in psi4, default
symmetry c1  #important for SAPT in psi4, default
}

set PROPERTIES_ORIGIN ["COM"]
properties('MP2/aug-cc-pvtz', properties = ['dipole'])
--------------------------------------------------------------------------

    Molecular point group: c1
  Charge       = 0
  Multiplicity = 1
  Basis Set: AUG-CC-PVTZ
    Blend: AUG-CC-PVTZ
  Basis Set: (AUG-CC-PVTZ AUX)
    Blend: AUG-CC-PVTZ-JKFIT

    Orbital Energies [Eh]
    ---------------------

    Doubly Occupied:

       1A    -15.539170     2A    -11.247035     3A    -11.215264
       4A     -1.174990     5A     -0.986119     6A     -0.828712
       7A     -0.671575     8A     -0.595037     9A     -0.569306
      10A     -0.564829    11A     -0.504968    12A     -0.482811
      13A     -0.390090

  @DF-RHF Final Energy:  -134.30555895693522

   => Energetics <=

    Nuclear Repulsion Energy =             82.7381610512453420
    One-Electron Energy =                -344.5476290811434978
    Two-Electron Energy =                 127.5039090729629407
    Total Energy =                       -134.3055589569352151
  Basis Set: (AUG-CC-PVTZ AUX)
    Blend: AUG-CC-PVTZ-RI
    Molecular point group: c1

    Geometry (in Angstrom), charge = 0, multiplicity = 1:

       Center              X                  Y                   Z               Mass
    ------------   -----------------  -----------------  -----------------  -----------------
         N            1.265666356532    -0.102654203171     0.000000000000    14.003074004430
         C           -0.041497643468     0.560559796829     0.000000000000    12.000000000000
         C           -1.252845643468    -0.371634203171     0.000000000000    12.000000000000
         H           -0.077505643468     1.214723796829     0.877304000000     1.007825032230
         H           -0.077505643468     1.214723796829    -0.877304000000     1.007825032230
         H           -1.244969643468    -1.015153203171    -0.885834000000     1.007825032230
         H           -1.244969643468    -1.015153203171     0.885834000000     1.007825032230
         H           -2.192535643468     0.190512796829     0.000000000000     1.007825032230
         H            1.331699156532    -0.706422603171    -0.818650400000     1.007825032230
         H            1.331699156532    -0.706422603171     0.818650400000     1.007825032230

  Basis Set: AUG-CC-PVTZ
    Blend: AUG-CC-PVTZ
  Basis Set: (AUG-CC-PVTZ AUX)
    Blend: AUG-CC-PVTZ-JKFIT
	 Reference Energy          =    -134.3055589569352151 [Eh]
	 Singles Energy            =      -0.0000000000000000 [Eh]
	 Same-Spin Energy          =      -0.1379357648111081 [Eh]
	 Opposite-Spin Energy      =      -0.5053661069107411 [Eh]
	 Correlation Energy        =      -0.6433018717218493 [Eh]
	 Total Energy              =    -134.9488608286570752 [Eh]

	 ================> DF-SCS-MP2 Energies <==================
	-----------------------------------------------------------
	 SCS Same-Spin Scale       =       0.3333333333333333 [-]
	 SCS Opposite-Spin Scale   =       1.2000000000000000 [-]
	 SCS Same-Spin Energy      =      -0.0459785882703694 [Eh]
	 SCS Opposite-Spin Energy  =      -0.6064393282928894 [Eh]
	 SCS Correlation Energy    =      -0.6524179165632588 [Eh]
	 SCS Total Energy          =    -134.9579768734984668 [Eh]
	-----------------------------------------------------------

  Dipole Moment: [D]
     X:    -1.0792      Y:    -0.8733      Z:    -0.0000     Total:     1.3883

*** Psi4 exiting successfully. Buy a developer a beer!
