                               Psi4 1.3.2 release

  ==> Input File <==

--------------------------------------------------------------------------
#psi4
#
memory 32 gb

molecule  {
0 1
  N        1.3071640    -0.0864090     0.0000000
  C        0.0063871     0.5889003     0.0216188
  C       -1.2113480    -0.3553890     0.0000000
  H       -0.0360080     1.2309690     0.8773040
  H       -0.0360080     1.2309690    -0.8773040
  H       -1.2034720    -0.9989080    -0.8858340
  H       -1.2034720    -0.9989080     0.8858340
  H       -2.1510380     0.2067580     0.0000000
  H        1.3903577    -0.7019672    -0.8082400
  H        1.3739710    -0.6972560     0.8133190
units angstrom
no_reorient  #important for SAPT in psi4, default
symmetry c1  #important for SAPT in psi4, default
}

set PROPERTIES_ORIGIN ["COM"]
properties('MP2/aug-cc-pvtz', properties = ['dipole'])
--------------------------------------------------------------------------

    Molecular point group: c1
  Charge       = 0
  Multiplicity = 1
  Basis Set: AUG-CC-PVTZ
    Blend: AUG-CC-PVTZ
  Basis Set: (AUG-CC-PVTZ AUX)
    Blend: AUG-CC-PVTZ-JKFIT

    Orbital Energies [Eh]
    ---------------------

    Doubly Occupied:

       1A    -15.538788     2A    -11.247145     3A    -11.215343
       4A     -1.174060     5A     -0.984020     6A     -0.831388
       7A     -0.669776     8A     -0.596061     9A     -0.568077
      10A     -0.562324    11A     -0.507665    12A     -0.484628
      13A     -0.388062

  @DF-RHF Final Energy:  -134.30498725796198

   => Energetics <=

    Nuclear Repulsion Energy =             82.6255865158481271
    One-Electron Energy =                -344.3264724319683410
    Two-Electron Energy =                 127.3958986581582451
    Total Energy =                       -134.3049872579619830
  Basis Set: (AUG-CC-PVTZ AUX)
    Blend: AUG-CC-PVTZ-RI
    Molecular point group: c1

    Geometry (in Angstrom), charge = 0, multiplicity = 1:

       Center              X                  Y                   Z               Mass
    ------------   -----------------  -----------------  -----------------  -----------------
         N            1.263564155820    -0.105453439182    -0.005871215512    14.003074004430
         C           -0.037212744180     0.569855860818     0.015747584488    12.000000000000
         C           -1.254947844180    -0.374433439182    -0.005871215512    12.000000000000
         H           -0.079607844180     1.211924560818     0.871432784488     1.007825032230
         H           -0.079607844180     1.211924560818    -0.883175215512     1.007825032230
         H           -1.247071844180    -1.017952439182    -0.891705215512     1.007825032230
         H           -1.247071844180    -1.017952439182     0.879962784488     1.007825032230
         H           -2.194637844180     0.187713560818    -0.005871215512     1.007825032230
         H            1.346757855820    -0.721011639182    -0.814111215512     1.007825032230
         H            1.330371155820    -0.716300439182     0.807447784488     1.007825032230

  Basis Set: AUG-CC-PVTZ
    Blend: AUG-CC-PVTZ
  Basis Set: (AUG-CC-PVTZ AUX)
    Blend: AUG-CC-PVTZ-JKFIT
	 Reference Energy          =    -134.3049872579619830 [Eh]
	 Singles Energy            =      -0.0000000000000000 [Eh]
	 Same-Spin Energy          =      -0.1378489402016453 [Eh]
	 Opposite-Spin Energy      =      -0.5052670351578086 [Eh]
	 Correlation Energy        =      -0.6431159753594539 [Eh]
	 Total Energy              =    -134.9481032333214330 [Eh]

	 ================> DF-SCS-MP2 Energies <==================
	-----------------------------------------------------------
	 SCS Same-Spin Scale       =       0.3333333333333333 [-]
	 SCS Opposite-Spin Scale   =       1.2000000000000000 [-]
	 SCS Same-Spin Energy      =      -0.0459496467338818 [Eh]
	 SCS Opposite-Spin Energy  =      -0.6063204421893703 [Eh]
	 SCS Correlation Energy    =      -0.6522700889232521 [Eh]
	 SCS Total Energy          =    -134.9572573468852283 [Eh]
	-----------------------------------------------------------

  Dipole Moment: [D]
     X:    -1.0612      Y:    -0.8689      Z:     0.0134     Total:     1.3716

*** Psi4 exiting successfully. Buy a developer a beer!
