                               Psi4 1.3.2 release

  ==> Input File <==

--------------------------------------------------------------------------
#psi4
#
memory 32 gb

molecule  {
0 1
  N        1.3295135    -0.0403856     0.0000000
  C        0.0000000     0.5768050     0.0000000
  C       -1.2431432    -0.3125457     0.0000000
  H       -0.0360080     1.2309690     0.8773040
  H       -0.0360080     1.2309690    -0.8773040
  H       -1.2034720    -0.9989080    -0.8858340
  H       -1.2034720    -0.9989080     0.8858340
  H       -2.1510380     0.2067580     0.0000000
  H        1.3739710    -0.6972560    -0.8133190
  H        1.3739710    -0.6972560     0.8133190
units angstrom
no_reorient  #important for SAPT in psi4, default
symmetry c1  #important for SAPT in psi4, default
}

set PROPERTIES_ORIGIN ["COM"]
properties('MP2/aug-cc-pvtz', properties = ['dipole'])
--------------------------------------------------------------------------

    Molecular point group: c1
  Charge       = 0
  Multiplicity = 1
  Basis Set: AUG-CC-PVTZ
    Blend: AUG-CC-PVTZ
  Basis Set: (AUG-CC-PVTZ AUX)
    Blend: AUG-CC-PVTZ-JKFIT

    Orbital Energies [Eh]
    ---------------------

    Doubly Occupied:

       1A    -15.549697     2A    -11.247176     3A    -11.217962
       4A     -1.172529     5A     -0.987638     6A     -0.827329
       7A     -0.661057     8A     -0.601062     9A     -0.574316
      10A     -0.555793    11A     -0.503260    12A     -0.473362
      13A     -0.400047

  @DF-RHF Final Energy:  -134.29810816438234

   => Energetics <=

    Nuclear Repulsion Energy =             82.3376957651279326
    One-Electron Energy =                -343.7291536981551872
    Two-Electron Energy =                 127.0933497686449130
    Total Energy =                       -134.2981081643823416
  Basis Set: (AUG-CC-PVTZ AUX)
    Blend: AUG-CC-PVTZ-RI
    Molecular point group: c1

    Geometry (in Angstrom), charge = 0, multiplicity = 1:

       Center              X                  Y                   Z               Mass
    ------------   -----------------  -----------------  -----------------  -----------------
         N            1.289503281751    -0.082027503527     0.000000000000    14.003074004430
         C           -0.040010218249     0.535163096473     0.000000000000    12.000000000000
         C           -1.283153418249    -0.354187603527     0.000000000000    12.000000000000
         H           -0.076018218249     1.189327096473     0.877304000000     1.007825032230
         H           -0.076018218249     1.189327096473    -0.877304000000     1.007825032230
         H           -1.243482218249    -1.040549903527    -0.885834000000     1.007825032230
         H           -1.243482218249    -1.040549903527     0.885834000000     1.007825032230
         H           -2.191048218249     0.165116096473     0.000000000000     1.007825032230
         H            1.333960781751    -0.738897903527    -0.813319000000     1.007825032230
         H            1.333960781751    -0.738897903527     0.813319000000     1.007825032230

  Basis Set: AUG-CC-PVTZ
    Blend: AUG-CC-PVTZ
  Basis Set: (AUG-CC-PVTZ AUX)
    Blend: AUG-CC-PVTZ-JKFIT
	 Reference Energy          =    -134.2981081643823416 [Eh]
	 Singles Energy            =      -0.0000000000000000 [Eh]
	 Same-Spin Energy          =      -0.1383693378335013 [Eh]
	 Opposite-Spin Energy      =      -0.5068536513473046 [Eh]
	 Correlation Energy        =      -0.6452229891808060 [Eh]
	 Total Energy              =    -134.9433311535631503 [Eh]

	 ================> DF-SCS-MP2 Energies <==================
	-----------------------------------------------------------
	 SCS Same-Spin Scale       =       0.3333333333333333 [-]
	 SCS Opposite-Spin Scale   =       1.2000000000000000 [-]
	 SCS Same-Spin Energy      =      -0.0461231126111671 [Eh]
	 SCS Opposite-Spin Energy  =      -0.6082243816167655 [Eh]
	 SCS Correlation Energy    =      -0.6543474942279326 [Eh]
	 SCS Total Energy          =    -134.9524556586102619 [Eh]
	-----------------------------------------------------------

  Dipole Moment: [D]
     X:    -1.1526      Y:    -0.9416      Z:     0.0000     Total:     1.4883

*** Psi4 exiting successfully. Buy a developer a beer!
