                               Psi4 1.3.2 release

  ==> Input File <==

--------------------------------------------------------------------------
#psi4
#
memory 32 gb

molecule  {
0 1
  N        1.3071640    -0.0864090     0.0000000
  C       -0.0115779     0.5520121    -0.0432310
  C       -1.2113480    -0.3553890     0.0000000
  H       -0.0360080     1.2309690     0.8773040
  H       -0.0360080     1.2309690    -0.8773040
  H       -1.2034720    -0.9989080    -0.8858340
  H       -1.2034720    -0.9989080     0.8858340
  H       -2.1510380     0.2067580     0.0000000
  H        1.3411415    -0.6872769    -0.8227322
  H        1.3739710    -0.6972560     0.8133190
units angstrom
no_reorient  #important for SAPT in psi4, default
symmetry c1  #important for SAPT in psi4, default
}

set PROPERTIES_ORIGIN ["COM"]
properties('MP2/aug-cc-pvtz', properties = ['dipole'])
--------------------------------------------------------------------------

    Molecular point group: c1
  Charge       = 0
  Multiplicity = 1
  Basis Set: AUG-CC-PVTZ
    Blend: AUG-CC-PVTZ
  Basis Set: (AUG-CC-PVTZ AUX)
    Blend: AUG-CC-PVTZ-JKFIT

    Orbital Energies [Eh]
    ---------------------

    Doubly Occupied:

       1A    -15.540483     2A    -11.248090     3A    -11.215663
       4A     -1.177642     5A     -0.991239     6A     -0.825738
       7A     -0.671092     8A     -0.597241     9A     -0.573510
      10A     -0.567140    11A     -0.506185    12A     -0.470956
      13A     -0.395081

  @DF-RHF Final Energy:  -134.30177715686938

   => Energetics <=

    Nuclear Repulsion Energy =             82.9505834614140127
    One-Electron Energy =                -344.9446046636653591
    Two-Electron Energy =                 127.6922440453819831
    Total Energy =                       -134.3017771568693774
  Basis Set: (AUG-CC-PVTZ AUX)
    Blend: AUG-CC-PVTZ-RI
    Molecular point group: c1

    Geometry (in Angstrom), charge = 0, multiplicity = 1:

       Center              X                  Y                   Z               Mass
    ------------   -----------------  -----------------  -----------------  -----------------
         N            1.269449508159    -0.095957798462     0.011724014076    14.003074004430
         C           -0.049292391841     0.542463301538    -0.031506985924    12.000000000000
         C           -1.249062491841    -0.364937798462     0.011724014076    12.000000000000
         H           -0.073722491841     1.221420201538     0.889028014076     1.007825032230
         H           -0.073722491841     1.221420201538    -0.865579985924     1.007825032230
         H           -1.241186491841    -1.008456798462    -0.874109985924     1.007825032230
         H           -1.241186491841    -1.008456798462     0.897558014076     1.007825032230
         H           -2.188752491841     0.197209201538     0.011724014076     1.007825032230
         H            1.303427008159    -0.696825698462    -0.811008185924     1.007825032230
         H            1.336256508159    -0.706804798462     0.825043014076     1.007825032230

  Basis Set: AUG-CC-PVTZ
    Blend: AUG-CC-PVTZ
  Basis Set: (AUG-CC-PVTZ AUX)
    Blend: AUG-CC-PVTZ-JKFIT
	 Reference Energy          =    -134.3017771568693774 [Eh]
	 Singles Energy            =      -0.0000000000000000 [Eh]
	 Same-Spin Energy          =      -0.1382113274949995 [Eh]
	 Opposite-Spin Energy      =      -0.5058535722519628 [Eh]
	 Correlation Energy        =      -0.6440648997469623 [Eh]
	 Total Energy              =    -134.9458420566163284 [Eh]

	 ================> DF-SCS-MP2 Energies <==================
	-----------------------------------------------------------
	 SCS Same-Spin Scale       =       0.3333333333333333 [-]
	 SCS Opposite-Spin Scale   =       1.2000000000000000 [-]
	 SCS Same-Spin Energy      =      -0.0460704424983332 [Eh]
	 SCS Opposite-Spin Energy  =      -0.6070242867023553 [Eh]
	 SCS Correlation Energy    =      -0.6530947292006885 [Eh]
	 SCS Total Energy          =    -134.9548718860700660 [Eh]
	-----------------------------------------------------------

  Dipole Moment: [D]
     X:    -1.1292      Y:    -0.9162      Z:    -0.0297     Total:     1.4545

*** Psi4 exiting successfully. Buy a developer a beer!
