                               Psi4 1.3.2 release

  ==> Input File <==

--------------------------------------------------------------------------
#psi4
#
memory 32 gb

molecule  {
0 1
  N        1.2953902    -0.1091211     0.0000000
  C        0.0000000     0.5768050     0.0000000
  C       -1.1948945    -0.3763880     0.0000000
  H       -0.0360080     1.2309690     0.8773040
  H       -0.0360080     1.2309690    -0.8773040
  H       -1.2034720    -0.9989080    -0.8858340
  H       -1.2034720    -0.9989080     0.8858340
  H       -2.1510380     0.2067580     0.0000000
  H        1.3739710    -0.6972560    -0.8133190
  H        1.3739710    -0.6972560     0.8133190
units angstrom
no_reorient  #important for SAPT in psi4, default
symmetry c1  #important for SAPT in psi4, default
}

set PROPERTIES_ORIGIN ["COM"]
properties('MP2/aug-cc-pvtz', properties = ['dipole'])
--------------------------------------------------------------------------

    Molecular point group: c1
  Charge       = 0
  Multiplicity = 1
  Basis Set: AUG-CC-PVTZ
    Blend: AUG-CC-PVTZ
  Basis Set: (AUG-CC-PVTZ AUX)
    Blend: AUG-CC-PVTZ-JKFIT

    Orbital Energies [Eh]
    ---------------------

    Doubly Occupied:

       1A    -15.534410     2A    -11.247440     3A    -11.214476
       4A     -1.176561     5A     -0.985899     6A     -0.830287
       7A     -0.675312     8A     -0.594266     9A     -0.575079
      10A     -0.561007    11A     -0.504362    12A     -0.487130
      13A     -0.385674

  @DF-RHF Final Energy:  -134.30546157291514

   => Energetics <=

    Nuclear Repulsion Energy =             82.9399181257740850
    One-Electron Energy =                -344.9469546322920905
    Two-Electron Energy =                 127.7015749336028989
    Total Energy =                       -134.3054615729151351
  Basis Set: (AUG-CC-PVTZ AUX)
    Blend: AUG-CC-PVTZ-RI
    Molecular point group: c1

    Geometry (in Angstrom), charge = 0, multiplicity = 1:

       Center              X                  Y                   Z               Mass
    ------------   -----------------  -----------------  -----------------  -----------------
         N            1.253135016522    -0.112398635880     0.000000000000    14.003074004430
         C           -0.042255183478     0.573527464120     0.000000000000    12.000000000000
         C           -1.237149683478    -0.379665535880     0.000000000000    12.000000000000
         H           -0.078263183478     1.227691464120     0.877304000000     1.007825032230
         H           -0.078263183478     1.227691464120    -0.877304000000     1.007825032230
         H           -1.245727183478    -1.002185535880    -0.885834000000     1.007825032230
         H           -1.245727183478    -1.002185535880     0.885834000000     1.007825032230
         H           -2.193293183478     0.203480464120     0.000000000000     1.007825032230
         H            1.331715816522    -0.700533535880    -0.813319000000     1.007825032230
         H            1.331715816522    -0.700533535880     0.813319000000     1.007825032230

  Basis Set: AUG-CC-PVTZ
    Blend: AUG-CC-PVTZ
  Basis Set: (AUG-CC-PVTZ AUX)
    Blend: AUG-CC-PVTZ-JKFIT
	 Reference Energy          =    -134.3054615729151351 [Eh]
	 Singles Energy            =      -0.0000000000000000 [Eh]
	 Same-Spin Energy          =      -0.1378073609374302 [Eh]
	 Opposite-Spin Energy      =      -0.5048731657694940 [Eh]
	 Correlation Energy        =      -0.6426805267069242 [Eh]
	 Total Energy              =    -134.9481420996220606 [Eh]

	 ================> DF-SCS-MP2 Energies <==================
	-----------------------------------------------------------
	 SCS Same-Spin Scale       =       0.3333333333333333 [-]
	 SCS Opposite-Spin Scale   =       1.2000000000000000 [-]
	 SCS Same-Spin Energy      =      -0.0459357869791434 [Eh]
	 SCS Opposite-Spin Energy  =      -0.6058477989233928 [Eh]
	 SCS Correlation Energy    =      -0.6517835859025362 [Eh]
	 SCS Total Energy          =    -134.9572451588176705 [Eh]
	-----------------------------------------------------------

  Dipole Moment: [D]
     X:    -1.0394      Y:    -0.8479      Z:    -0.0000     Total:     1.3414

*** Psi4 exiting successfully. Buy a developer a beer!
