                               Psi4 1.3.2 release

  ==> Input File <==

--------------------------------------------------------------------------
#psi4
#
memory 32 gb

molecule  {
0 1
  N        1.3071640    -0.0864090     0.0000000
  C       -0.0059889     0.5645077    -0.0216188
  C       -1.2113480    -0.3553890     0.0000000
  H       -0.0360080     1.2309690     0.8773040
  H       -0.0360080     1.2309690    -0.8773040
  H       -1.2034720    -0.9989080    -0.8858340
  H       -1.2034720    -0.9989080     0.8858340
  H       -2.1510380     0.2067580     0.0000000
  H        1.3575639    -0.6923587    -0.8181502
  H        1.3739710    -0.6972560     0.8133190
units angstrom
no_reorient  #important for SAPT in psi4, default
symmetry c1  #important for SAPT in psi4, default
}

set PROPERTIES_ORIGIN ["COM"]
properties('MP2/aug-cc-pvtz', properties = ['dipole'])
--------------------------------------------------------------------------

    Molecular point group: c1
  Charge       = 0
  Multiplicity = 1
  Basis Set: AUG-CC-PVTZ
    Blend: AUG-CC-PVTZ
  Basis Set: (AUG-CC-PVTZ AUX)
    Blend: AUG-CC-PVTZ-JKFIT

    Orbital Energies [Eh]
    ---------------------

    Doubly Occupied:

       1A    -15.539824     2A    -11.247509     3A    -11.215462
       4A     -1.176309     5A     -0.988741     6A     -0.827269
       7A     -0.670719     8A     -0.595952     9A     -0.570314
      10A     -0.567174    11A     -0.504997    12A     -0.477819
      13A     -0.392916

  @DF-RHF Final Energy:  -134.30448585893745

   => Energetics <=

    Nuclear Repulsion Energy =             82.8433095916294775
    One-Electron Energy =                -344.7455803308931195
    Two-Electron Energy =                 127.5977848803262020
    Total Energy =                       -134.3044858589374542
  Basis Set: (AUG-CC-PVTZ AUX)
    Blend: AUG-CC-PVTZ-RI
    Molecular point group: c1

    Geometry (in Angstrom), charge = 0, multiplicity = 1:

       Center              X                  Y                   Z               Mass
    ------------   -----------------  -----------------  -----------------  -----------------
         N            1.267593695970    -0.099172013903     0.005865672881    14.003074004430
         C           -0.045559204030     0.551744686097    -0.015753127119    12.000000000000
         C           -1.250918304030    -0.368152013903     0.005865672881    12.000000000000
         H           -0.075578304030     1.218205986097     0.883169672881     1.007825032230
         H           -0.075578304030     1.218205986097    -0.871438327119     1.007825032230
         H           -1.243042304030    -1.011671013903    -0.879968327119     1.007825032230
         H           -1.243042304030    -1.011671013903     0.891699672881     1.007825032230
         H           -2.190608304030     0.193994986097     0.005865672881     1.007825032230
         H            1.317993595970    -0.705121713903    -0.812284527119     1.007825032230
         H            1.334400695970    -0.710019013903     0.819184672881     1.007825032230

  Basis Set: AUG-CC-PVTZ
    Blend: AUG-CC-PVTZ
  Basis Set: (AUG-CC-PVTZ AUX)
    Blend: AUG-CC-PVTZ-JKFIT
	 Reference Energy          =    -134.3044858589374542 [Eh]
	 Singles Energy            =      -0.0000000000000000 [Eh]
	 Same-Spin Energy          =      -0.1380548515259934 [Eh]
	 Opposite-Spin Energy      =      -0.5055666957304297 [Eh]
	 Correlation Energy        =      -0.6436215472564231 [Eh]
	 Total Energy              =    -134.9481074061938841 [Eh]

	 ================> DF-SCS-MP2 Energies <==================
	-----------------------------------------------------------
	 SCS Same-Spin Scale       =       0.3333333333333333 [-]
	 SCS Opposite-Spin Scale   =       1.2000000000000000 [-]
	 SCS Same-Spin Energy      =      -0.0460182838419978 [Eh]
	 SCS Opposite-Spin Energy  =      -0.6066800348765156 [Eh]
	 SCS Correlation Energy    =      -0.6526983187185134 [Eh]
	 SCS Total Energy          =    -134.9571841776559609 [Eh]
	-----------------------------------------------------------

  Dipole Moment: [D]
     X:    -1.1082      Y:    -0.8982      Z:    -0.0144     Total:     1.4266

*** Psi4 exiting successfully. Buy a developer a beer!
