                               Psi4 1.3.2 release

  ==> Input File <==

--------------------------------------------------------------------------
#psi4
#
memory 32 gb

molecule  {
0 1
  N        1.3071640    -0.0864090     0.0000000
  C       -0.0167651     0.5393220    -0.0648300
  C       -1.2113480    -0.3553890     0.0000000
  H       -0.0360080     1.2309690     0.8773040
  H       -0.0360080     1.2309690    -0.8773040
  H       -1.2034720    -0.9989080    -0.8858340
  H       -1.2034720    -0.9989080     0.8858340
  H       -2.1510380     0.2067580     0.0000000
  H        1.3247088    -0.6820120    -0.8270636
  H        1.3739710    -0.6972560     0.8133190
units angstrom
no_reorient  #important for SAPT in psi4, default
symmetry c1  #important for SAPT in psi4, default
}

set PROPERTIES_ORIGIN ["COM"]
properties('MP2/aug-cc-pvtz', properties = ['dipole'])
--------------------------------------------------------------------------

    Molecular point group: c1
  Charge       = 0
  Multiplicity = 1
  Basis Set: AUG-CC-PVTZ
    Blend: AUG-CC-PVTZ
  Basis Set: (AUG-CC-PVTZ AUX)
    Blend: AUG-CC-PVTZ-JKFIT

    Orbital Energies [Eh]
    ---------------------

    Doubly Occupied:

       1A    -15.541235     2A    -11.248947     3A    -11.215964
       4A     -1.179121     5A     -0.993811     6A     -0.824536
       7A     -0.671423     8A     -0.599153     9A     -0.577149
      10A     -0.566543    11A     -0.507922    12A     -0.463152
      13A     -0.396988

  @DF-RHF Final Energy:  -134.29756255109467

   => Energetics <=

    Nuclear Repulsion Energy =             83.0561301128395684
    One-Electron Energy =                -345.1354974193184830
    Two-Electron Energy =                 127.7818047553842291
    Total Energy =                       -134.2975625510946713
  Basis Set: (AUG-CC-PVTZ AUX)
    Blend: AUG-CC-PVTZ-RI
    Molecular point group: c1

    Geometry (in Angstrom), charge = 0, multiplicity = 1:

       Center              X                  Y                   Z               Mass
    ------------   -----------------  -----------------  -----------------  -----------------
         N            1.271198541629    -0.092695878408     0.017573234530    14.003074004430
         C           -0.052730558371     0.533035121592    -0.047256765470    12.000000000000
         C           -1.247313458371    -0.361675878408     0.017573234530    12.000000000000
         H           -0.071973458371     1.224682121592     0.894877234530     1.007825032230
         H           -0.071973458371     1.224682121592    -0.859730765470     1.007825032230
         H           -1.239437458371    -1.005194878408    -0.868260765470     1.007825032230
         H           -1.239437458371    -1.005194878408     0.903407234530     1.007825032230
         H           -2.187003458371     0.200471121592     0.017573234530     1.007825032230
         H            1.288743341629    -0.688298878408    -0.809490365470     1.007825032230
         H            1.338005541629    -0.703542878408     0.830892234530     1.007825032230

  Basis Set: AUG-CC-PVTZ
    Blend: AUG-CC-PVTZ
  Basis Set: (AUG-CC-PVTZ AUX)
    Blend: AUG-CC-PVTZ-JKFIT
	 Reference Energy          =    -134.2975625510946713 [Eh]
	 Singles Energy            =      -0.0000000000000000 [Eh]
	 Same-Spin Energy          =      -0.1384025737566006 [Eh]
	 Opposite-Spin Energy      =      -0.5062278277789224 [Eh]
	 Correlation Energy        =      -0.6446304015355230 [Eh]
	 Total Energy              =    -134.9421929526301938 [Eh]

	 ================> DF-SCS-MP2 Energies <==================
	-----------------------------------------------------------
	 SCS Same-Spin Scale       =       0.3333333333333333 [-]
	 SCS Opposite-Spin Scale   =       1.2000000000000000 [-]
	 SCS Same-Spin Energy      =      -0.0461341912522002 [Eh]
	 SCS Opposite-Spin Energy  =      -0.6074733933347068 [Eh]
	 SCS Correlation Energy    =      -0.6536075845869070 [Eh]
	 SCS Total Energy          =    -134.9511701356815649 [Eh]
	-----------------------------------------------------------

  Dipole Moment: [D]
     X:    -1.1487      Y:    -0.9363      Z:    -0.0461     Total:     1.4826

*** Psi4 exiting successfully. Buy a developer a beer!
