                               Psi4 1.3.2 release

  ==> Input File <==

--------------------------------------------------------------------------
#psi4
#
memory 32 gb

molecule  {
0 1
  N        1.3129018    -0.0749767     0.0000000
  C        0.0000000     0.5768050     0.0000000
  C       -1.2194367    -0.3447826     0.0000000
  H       -0.0360080     1.2309690     0.8773040
  H       -0.0360080     1.2309690    -0.8773040
  H       -1.2034720    -0.9989080    -0.8858340
  H       -1.2034720    -0.9989080     0.8858340
  H       -2.1510380     0.2067580     0.0000000
  H        1.3739710    -0.6972560    -0.8133190
  H        1.3739710    -0.6972560     0.8133190
units angstrom
no_reorient  #important for SAPT in psi4, default
symmetry c1  #important for SAPT in psi4, default
}

set PROPERTIES_ORIGIN ["COM"]
properties('MP2/aug-cc-pvtz', properties = ['dipole'])
--------------------------------------------------------------------------

    Molecular point group: c1
  Charge       = 0
  Multiplicity = 1
  Basis Set: AUG-CC-PVTZ
    Blend: AUG-CC-PVTZ
  Basis Set: (AUG-CC-PVTZ AUX)
    Blend: AUG-CC-PVTZ-JKFIT

    Orbital Energies [Eh]
    ---------------------

    Doubly Occupied:

       1A    -15.541781     2A    -11.247132     3A    -11.215905
       4A     -1.174432     5A     -0.986598     6A     -0.828630
       7A     -0.667869     8A     -0.596415     9A     -0.567763
      10A     -0.565508    11A     -0.505087    12A     -0.480446
      13A     -0.392977

  @DF-RHF Final Energy:  -134.30471143075133

   => Energetics <=

    Nuclear Repulsion Energy =             82.6337857692376758
    One-Electron Energy =                -344.3359084259199108
    Two-Electron Energy =                 127.3974112259309379
    Total Energy =                       -134.3047114307513255
  Basis Set: (AUG-CC-PVTZ AUX)
    Blend: AUG-CC-PVTZ-RI
    Molecular point group: c1

    Geometry (in Angstrom), charge = 0, multiplicity = 1:

       Center              X                  Y                   Z               Mass
    ------------   -----------------  -----------------  -----------------  -----------------
         N            1.271740547326    -0.097282915116     0.000000000000    14.003074004430
         C           -0.041161252674     0.554498784884     0.000000000000    12.000000000000
         C           -1.260597952674    -0.367088815116     0.000000000000    12.000000000000
         H           -0.077169252674     1.208662784884     0.877304000000     1.007825032230
         H           -0.077169252674     1.208662784884    -0.877304000000     1.007825032230
         H           -1.244633252674    -1.021214215116    -0.885834000000     1.007825032230
         H           -1.244633252674    -1.021214215116     0.885834000000     1.007825032230
         H           -2.192199252674     0.184451784884     0.000000000000     1.007825032230
         H            1.332809747326    -0.719562215116    -0.813319000000     1.007825032230
         H            1.332809747326    -0.719562215116     0.813319000000     1.007825032230

  Basis Set: AUG-CC-PVTZ
    Blend: AUG-CC-PVTZ
  Basis Set: (AUG-CC-PVTZ AUX)
    Blend: AUG-CC-PVTZ-JKFIT
	 Reference Energy          =    -134.3047114307513255 [Eh]
	 Singles Energy            =      -0.0000000000000000 [Eh]
	 Same-Spin Energy          =      -0.1380196696892780 [Eh]
	 Opposite-Spin Energy      =      -0.5056791170423439 [Eh]
	 Correlation Energy        =      -0.6436987867316218 [Eh]
	 Total Energy              =    -134.9484102174829445 [Eh]

	 ================> DF-SCS-MP2 Energies <==================
	-----------------------------------------------------------
	 SCS Same-Spin Scale       =       0.3333333333333333 [-]
	 SCS Opposite-Spin Scale   =       1.2000000000000000 [-]
	 SCS Same-Spin Energy      =      -0.0460065565630926 [Eh]
	 SCS Opposite-Spin Energy  =      -0.6068149404508126 [Eh]
	 SCS Correlation Energy    =      -0.6528214970139052 [Eh]
	 SCS Total Energy          =    -134.9575329277652429 [Eh]
	-----------------------------------------------------------

  Dipole Moment: [D]
     X:    -1.1053      Y:    -0.8985      Z:     0.0000     Total:     1.4245

*** Psi4 exiting successfully. Buy a developer a beer!
