                               Psi4 1.3.2 release

  ==> Input File <==

--------------------------------------------------------------------------
#psi4
#
memory 32 gb

molecule  {
0 1
  N        1.2938029    -0.1107697    -0.0429615
  C        0.0000000     0.5768050     0.0000000
  C       -1.2113480    -0.3553890     0.0000000
  H       -0.0713102     1.2415227     0.8671532
  H       -0.0360080     1.2309690    -0.8773040
  H       -1.2034720    -0.9989080    -0.8858340
  H       -1.2034720    -0.9989080     0.8858340
  H       -2.1510380     0.2067580     0.0000000
  H        1.3739710    -0.6972560    -0.8133190
  H        1.3739710    -0.6972560     0.8133190
units angstrom
no_reorient  #important for SAPT in psi4, default
symmetry c1  #important for SAPT in psi4, default
}

set PROPERTIES_ORIGIN ["COM"]
properties('MP2/aug-cc-pvtz', properties = ['dipole'])
--------------------------------------------------------------------------

    Molecular point group: c1
  Charge       = 0
  Multiplicity = 1
  Basis Set: AUG-CC-PVTZ
    Blend: AUG-CC-PVTZ
  Basis Set: (AUG-CC-PVTZ AUX)
    Blend: AUG-CC-PVTZ-JKFIT

    Orbital Energies [Eh]
    ---------------------

    Doubly Occupied:

       1A    -15.535620     2A    -11.247560     3A    -11.214045
       4A     -1.177139     5A     -0.987284     6A     -0.830178
       7A     -0.674345     8A     -0.600597     9A     -0.572110
      10A     -0.560665    11A     -0.506968    12A     -0.481551
      13A     -0.387091

  @DF-RHF Final Energy:  -134.30337665293263

   => Energetics <=

    Nuclear Repulsion Energy =             82.8928513628555379
    One-Electron Energy =                -344.8421503821219858
    Two-Electron Energy =                 127.6459223663338207
    Total Energy =                       -134.3033766529326272
  Basis Set: (AUG-CC-PVTZ AUX)
    Blend: AUG-CC-PVTZ-RI
    Molecular point group: c1

    Geometry (in Angstrom), charge = 0, multiplicity = 1:

       Center              X                  Y                   Z               Mass
    ------------   -----------------  -----------------  -----------------  -----------------
         N            1.257212601211    -0.119363486419    -0.029382882631    14.003074004430
         C           -0.036590298789     0.568211213581     0.013578617369    12.000000000000
         C           -1.247938298789    -0.363982786419     0.013578617369    12.000000000000
         H           -0.107900498789     1.232928913581     0.880731817369     1.007825032230
         H           -0.072598298789     1.222375213581    -0.863725382631     1.007825032230
         H           -1.240062298789    -1.007501786419    -0.872255382631     1.007825032230
         H           -1.240062298789    -1.007501786419     0.899412617369     1.007825032230
         H           -2.187628298789     0.198164213581     0.013578617369     1.007825032230
         H            1.337380701211    -0.705849786419    -0.799740382631     1.007825032230
         H            1.337380701211    -0.705849786419     0.826897617369     1.007825032230

  Basis Set: AUG-CC-PVTZ
    Blend: AUG-CC-PVTZ
  Basis Set: (AUG-CC-PVTZ AUX)
    Blend: AUG-CC-PVTZ-JKFIT
	 Reference Energy          =    -134.3033766529326272 [Eh]
	 Singles Energy            =      -0.0000000000000000 [Eh]
	 Same-Spin Energy          =      -0.1378248333009983 [Eh]
	 Opposite-Spin Energy      =      -0.5049006741487539 [Eh]
	 Correlation Energy        =      -0.6427255074497522 [Eh]
	 Total Energy              =    -134.9461021603823667 [Eh]

	 ================> DF-SCS-MP2 Energies <==================
	-----------------------------------------------------------
	 SCS Same-Spin Scale       =       0.3333333333333333 [-]
	 SCS Opposite-Spin Scale   =       1.2000000000000000 [-]
	 SCS Same-Spin Energy      =      -0.0459416111003328 [Eh]
	 SCS Opposite-Spin Energy  =      -0.6058808089785047 [Eh]
	 SCS Correlation Energy    =      -0.6518224200788375 [Eh]
	 SCS Total Energy          =    -134.9551990730114710 [Eh]
	-----------------------------------------------------------

  Dipole Moment: [D]
     X:    -1.0379      Y:    -0.8319      Z:     0.0530     Total:     1.3312

*** Psi4 exiting successfully. Buy a developer a beer!
