                               Psi4 1.4a3.dev225

  ==> Input File <==

--------------------------------------------------------------------------
#psi4
#
memory 32 gb

molecule  {
0 1
  N        1.2972060    -0.1834440    -0.0000110
  C       -0.0002835     0.6008196    -0.0000172
  C       -1.2341620    -0.2639620     0.0000230
  H        0.0562240     1.2306650     0.8768470
  H        0.0562020     1.2306140    -0.8769190
  H       -1.2739250    -0.9067860    -0.8853860
  H       -1.2739030    -0.9067350     0.8854710
  H       -2.1289910     0.3670470     0.0000160
  H        1.3169290    -0.7983510    -0.8130380
  H        1.3169460    -0.7983090     0.8130470
units angstrom
no_reorient  #important for SAPT in psi4, default
symmetry c1  #important for SAPT in psi4, default
}

set PROPERTIES_ORIGIN ["COM"]
properties('MP2/aug-cc-pvtz', properties = ['dipole'])
--------------------------------------------------------------------------

    Molecular point group: c1
  Charge       = 0
  Multiplicity = 1
  Basis Set: AUG-CC-PVTZ
    Blend: AUG-CC-PVTZ
  Basis Set: (AUG-CC-PVTZ AUX)
    Blend: AUG-CC-PVTZ-JKFIT

    Orbital Energies [Eh]
    ---------------------

    Doubly Occupied:

       1A    -15.537486     2A    -11.246915     3A    -11.216282
       4A     -1.161542     5A     -0.992335     6A     -0.831223
       7A     -0.666624     8A     -0.590849     9A     -0.571870
      10A     -0.562040    11A     -0.501586    12A     -0.489625
      13A     -0.390879

  @DF-RHF Final Energy:  -134.30328711849504

   => Energetics <=

    Nuclear Repulsion Energy =             82.4624798874555580
    One-Electron Energy =                -344.0130225107612887
    Two-Electron Energy =                 127.2472555048106813
    Total Energy =                       -134.3032871184950352
  Basis Set: (AUG-CC-PVTZ AUX)
    Blend: AUG-CC-PVTZ-RI
    Molecular point group: c1

    Geometry (in Angstrom), charge = 0, multiplicity = 1:

       Center              X                  Y                   Z               Mass
    ------------   -----------------  -----------------  -----------------  -----------------
         N            1.266003861517    -0.203132095934    -0.000009976062    14.003074004430
         C           -0.031485638483     0.581131504066    -0.000016176062    12.000000000000
         C           -1.265364138483    -0.283650095934     0.000024023938    12.000000000000
         H            0.025021861517     1.210976904066     0.876848023938     1.007825032230
         H            0.024999861517     1.210925904066    -0.876917976062     1.007825032230
         H           -1.305127138483    -0.926474095934    -0.885384976062     1.007825032230
         H           -1.305105138483    -0.926423095934     0.885472023938     1.007825032230
         H           -2.160193138483     0.347358904066     0.000017023938     1.007825032230
         H            1.285726861517    -0.818039095934    -0.813036976062     1.007825032230
         H            1.285743861517    -0.817997095934     0.813048023938     1.007825032230

  Basis Set: AUG-CC-PVTZ
    Blend: AUG-CC-PVTZ
  Basis Set: (AUG-CC-PVTZ AUX)
    Blend: AUG-CC-PVTZ-JKFIT
	 Reference Energy          =    -134.3032871184950352 [Eh]
	 Singles Energy            =      -0.0000000000000000 [Eh]
	 Same-Spin Energy          =      -0.1379233183796400 [Eh]
	 Opposite-Spin Energy      =      -0.5057604949704354 [Eh]
	 Correlation Energy        =      -0.6436838133500754 [Eh]
	 Total Energy              =    -134.9469709318451009 [Eh]

	 ================> DF-SCS-MP2 Energies <==================
	-----------------------------------------------------------
	 SCS Same-Spin Scale       =       0.3333333333333333 [-]
	 SCS Opposite-Spin Scale   =       1.2000000000000000 [-]
	 SCS Same-Spin Energy      =      -0.0459744394598800 [Eh]
	 SCS Opposite-Spin Energy  =      -0.6069125939645225 [Eh]
	 SCS Correlation Energy    =      -0.6528870334244025 [Eh]
	 SCS Total Energy          =    -134.9561741519194413 [Eh]
	-----------------------------------------------------------

  Dipole Moment: [D]
     X:    -1.2857      Y:    -0.7550      Z:     0.0000     Total:     1.4909

*** Psi4 exiting successfully. Buy a developer a beer!
