                               Psi4 1.3.2 release

  ==> Input File <==

--------------------------------------------------------------------------
#psi4
#
memory 32 gb

molecule  {
0 1
  N        1.3071640    -0.0864090     0.0000000
  C        0.0031439     0.5828781     0.0108098
  C       -1.2113480    -0.3553890     0.0000000
  H       -0.0360080     1.2309690     0.8773040
  H       -0.0360080     1.2309690    -0.8773040
  H       -1.2034720    -0.9989080    -0.8858340
  H       -1.2034720    -0.9989080     0.8858340
  H       -2.1510380     0.2067580     0.0000000
  H        1.3821672    -0.6996349    -0.8108104
  H        1.3739710    -0.6972560     0.8133190
units angstrom
no_reorient  #important for SAPT in psi4, default
symmetry c1  #important for SAPT in psi4, default
}

set PROPERTIES_ORIGIN ["COM"]
properties('MP2/aug-cc-pvtz', properties = ['dipole'])
--------------------------------------------------------------------------

    Molecular point group: c1
  Charge       = 0
  Multiplicity = 1
  Basis Set: AUG-CC-PVTZ
    Blend: AUG-CC-PVTZ
  Basis Set: (AUG-CC-PVTZ AUX)
    Blend: AUG-CC-PVTZ-JKFIT

    Orbital Energies [Eh]
    ---------------------

    Doubly Occupied:

       1A    -15.539012     2A    -11.247139     3A    -11.215339
       4A     -1.174572     5A     -0.985161     6A     -0.830223
       7A     -0.670041     8A     -0.595640     9A     -0.568397
      10A     -0.563898    11A     -0.506135    12A     -0.484070
      13A     -0.389329

  @DF-RHF Final Energy:  -134.30550781348217

   => Energetics <=

    Nuclear Repulsion Energy =             82.6802590094965524
    One-Electron Energy =                -344.4336224432070139
    Two-Electron Energy =                 127.4478556202282817
    Total Energy =                       -134.3055078134821656
  Basis Set: (AUG-CC-PVTZ AUX)
    Blend: AUG-CC-PVTZ-RI
    Molecular point group: c1

    Geometry (in Angstrom), charge = 0, multiplicity = 1:

       Center              X                  Y                   Z               Mass
    ------------   -----------------  -----------------  -----------------  -----------------
         N            1.264611098622    -0.103901748392    -0.002935023134    14.003074004430
         C           -0.039409001378     0.565385351608     0.007874776866    12.000000000000
         C           -1.253900901378    -0.372881748392    -0.002935023134    12.000000000000
         H           -0.078560901378     1.213476251608     0.874368976866     1.007825032230
         H           -0.078560901378     1.213476251608    -0.880239023134     1.007825032230
         H           -1.246024901378    -1.016400748392    -0.888769023134     1.007825032230
         H           -1.246024901378    -1.016400748392     0.882898976866     1.007825032230
         H           -2.193590901378     0.189265251608    -0.002935023134     1.007825032230
         H            1.339614298622    -0.717127648392    -0.813745423134     1.007825032230
         H            1.331418098622    -0.714748748392     0.810383976866     1.007825032230

  Basis Set: AUG-CC-PVTZ
    Blend: AUG-CC-PVTZ
  Basis Set: (AUG-CC-PVTZ AUX)
    Blend: AUG-CC-PVTZ-JKFIT
	 Reference Energy          =    -134.3055078134821656 [Eh]
	 Singles Energy            =      -0.0000000000000000 [Eh]
	 Same-Spin Energy          =      -0.1378868170286424 [Eh]
	 Opposite-Spin Energy      =      -0.5053066906622379 [Eh]
	 Correlation Energy        =      -0.6431935076908802 [Eh]
	 Total Energy              =    -134.9487013211730471 [Eh]

	 ================> DF-SCS-MP2 Energies <==================
	-----------------------------------------------------------
	 SCS Same-Spin Scale       =       0.3333333333333333 [-]
	 SCS Opposite-Spin Scale   =       1.2000000000000000 [-]
	 SCS Same-Spin Energy      =      -0.0459622723428808 [Eh]
	 SCS Opposite-Spin Energy  =      -0.6063680287946854 [Eh]
	 SCS Correlation Energy    =      -0.6523303011375662 [Eh]
	 SCS Total Energy          =    -134.9578381146197330 [Eh]
	-----------------------------------------------------------

  Dipole Moment: [D]
     X:    -1.0736      Y:    -0.8754      Z:     0.0068     Total:     1.3852

*** Psi4 exiting successfully. Buy a developer a beer!
