                               Psi4 1.3.2 release

  ==> Input File <==

--------------------------------------------------------------------------
#psi4
#
memory 32 gb

molecule  {
0 1
  N        1.3132483    -0.0739238     0.0214840
  C        0.0000000     0.5768050     0.0000000
  C       -1.2113480    -0.3553890     0.0000000
  H       -0.0183378     1.2253925     0.8819793
  H       -0.0360080     1.2309690    -0.8773040
  H       -1.2034720    -0.9989080    -0.8858340
  H       -1.2034720    -0.9989080     0.8858340
  H       -2.1510380     0.2067580     0.0000000
  H        1.3739710    -0.6972560    -0.8133190
  H        1.3739710    -0.6972560     0.8133190
units angstrom
no_reorient  #important for SAPT in psi4, default
symmetry c1  #important for SAPT in psi4, default
}

set PROPERTIES_ORIGIN ["COM"]
properties('MP2/aug-cc-pvtz', properties = ['dipole'])
--------------------------------------------------------------------------

    Molecular point group: c1
  Charge       = 0
  Multiplicity = 1
  Basis Set: AUG-CC-PVTZ
    Blend: AUG-CC-PVTZ
  Basis Set: (AUG-CC-PVTZ AUX)
    Blend: AUG-CC-PVTZ-JKFIT

    Orbital Energies [Eh]
    ---------------------

    Doubly Occupied:

       1A    -15.541233     2A    -11.247161     3A    -11.216049
       4A     -1.174501     5A     -0.986096     6A     -0.829005
       7A     -0.668111     8A     -0.594519     9A     -0.569266
      10A     -0.564402    11A     -0.504432    12A     -0.482228
      13A     -0.392451

  @DF-RHF Final Energy:  -134.30421931270376

   => Energetics <=

    Nuclear Repulsion Energy =             82.6616831465364328
    One-Electron Energy =                -344.3928942348110240
    Two-Electron Energy =                 127.4269917755707979
    Total Energy =                       -134.3042193127037649
  Basis Set: (AUG-CC-PVTZ AUX)
    Blend: AUG-CC-PVTZ-RI
    Molecular point group: c1

    Geometry (in Angstrom), charge = 0, multiplicity = 1:

       Center              X                  Y                   Z               Mass
    ------------   -----------------  -----------------  -----------------  -----------------
         N            1.269429909068    -0.093607761686     0.014702630460    14.003074004430
         C           -0.043818390932     0.557121038314    -0.006781369540    12.000000000000
         C           -1.255166390932    -0.375072961686    -0.006781369540    12.000000000000
         H           -0.062156190932     1.205708538314     0.875197930460     1.007825032230
         H           -0.079826390932     1.211285038314    -0.884085369540     1.007825032230
         H           -1.247290390932    -1.018591961686    -0.892615369540     1.007825032230
         H           -1.247290390932    -1.018591961686     0.879052630460     1.007825032230
         H           -2.194856390932     0.187074038314    -0.006781369540     1.007825032230
         H            1.330152609068    -0.716939961686    -0.820100369540     1.007825032230
         H            1.330152609068    -0.716939961686     0.806537630460     1.007825032230

  Basis Set: AUG-CC-PVTZ
    Blend: AUG-CC-PVTZ
  Basis Set: (AUG-CC-PVTZ AUX)
    Blend: AUG-CC-PVTZ-JKFIT
	 Reference Energy          =    -134.3042193127037649 [Eh]
	 Singles Energy            =      -0.0000000000000000 [Eh]
	 Same-Spin Energy          =      -0.1380274040251134 [Eh]
	 Opposite-Spin Energy      =      -0.5057265825432732 [Eh]
	 Correlation Energy        =      -0.6437539865683866 [Eh]
	 Total Energy              =    -134.9479732992721495 [Eh]

	 ================> DF-SCS-MP2 Energies <==================
	-----------------------------------------------------------
	 SCS Same-Spin Scale       =       0.3333333333333333 [-]
	 SCS Opposite-Spin Scale   =       1.2000000000000000 [-]
	 SCS Same-Spin Energy      =      -0.0460091346750378 [Eh]
	 SCS Opposite-Spin Energy  =      -0.6068718990519278 [Eh]
	 SCS Correlation Energy    =      -0.6528810337269656 [Eh]
	 SCS Total Energy          =    -134.9571003464307353 [Eh]
	-----------------------------------------------------------

  Dipole Moment: [D]
     X:    -1.1101      Y:    -0.9050      Z:    -0.0239     Total:     1.4324

*** Psi4 exiting successfully. Buy a developer a beer!
