                               Psi4 1.3.2 release

  ==> Input File <==

--------------------------------------------------------------------------
#psi4
#
memory 32 gb

molecule  {
0 1
  N        1.3071640    -0.0864090     0.0000000
  C        0.0000000     0.5768050     0.0000000
  C       -1.2113480    -0.3553890     0.0000000
  H       -0.0360080     1.2309690     0.8773040
  H       -0.0360080     1.2309690    -0.8773040
  H       -1.2034720    -0.9989080    -0.8858340
  H       -1.2034720    -0.9989080     0.8858340
  H       -2.1510380     0.2067580     0.0000000
  H        1.3785072    -0.7387324    -0.7800445
  H        1.3785072    -0.7387324     0.7800445
units angstrom
no_reorient  #important for SAPT in psi4, default
symmetry c1  #important for SAPT in psi4, default
}

set PROPERTIES_ORIGIN ["COM"]
properties('MP2/aug-cc-pvtz', properties = ['dipole'])
--------------------------------------------------------------------------

    Molecular point group: c1
  Charge       = 0
  Multiplicity = 1
  Basis Set: AUG-CC-PVTZ
    Blend: AUG-CC-PVTZ
  Basis Set: (AUG-CC-PVTZ AUX)
    Blend: AUG-CC-PVTZ-JKFIT

    Orbital Energies [Eh]
    ---------------------

    Doubly Occupied:

       1A    -15.539747     2A    -11.248181     3A    -11.215914
       4A     -1.176066     5A     -0.987667     6A     -0.831835
       7A     -0.662768     8A     -0.598598     9A     -0.568486
      10A     -0.564650    11A     -0.506528    12A     -0.481948
      13A     -0.393333

  @DF-RHF Final Energy:  -134.30453858687096

   => Energetics <=

    Nuclear Repulsion Energy =             82.7171004912676011
    One-Electron Energy =                -344.4918382815615132
    Two-Electron Energy =                 127.4701992034229363
    Total Energy =                       -134.3045385868709616
  Basis Set: (AUG-CC-PVTZ AUX)
    Blend: AUG-CC-PVTZ-RI
    Molecular point group: c1

    Geometry (in Angstrom), charge = 0, multiplicity = 1:

       Center              X                  Y                   Z               Mass
    ------------   -----------------  -----------------  -----------------  -----------------
         N            1.265428797299    -0.100482109062     0.000000000000    14.003074004430
         C           -0.041735202701     0.562731890938     0.000000000000    12.000000000000
         C           -1.253083202701    -0.369462109062     0.000000000000    12.000000000000
         H           -0.077743202701     1.216895890938     0.877304000000     1.007825032230
         H           -0.077743202701     1.216895890938    -0.877304000000     1.007825032230
         H           -1.245207202701    -1.012981109062    -0.885834000000     1.007825032230
         H           -1.245207202701    -1.012981109062     0.885834000000     1.007825032230
         H           -2.192773202701     0.192684890938     0.000000000000     1.007825032230
         H            1.336771997299    -0.752805509062    -0.780044500000     1.007825032230
         H            1.336771997299    -0.752805509062     0.780044500000     1.007825032230

  Basis Set: AUG-CC-PVTZ
    Blend: AUG-CC-PVTZ
  Basis Set: (AUG-CC-PVTZ AUX)
    Blend: AUG-CC-PVTZ-JKFIT
	 Reference Energy          =    -134.3045385868709616 [Eh]
	 Singles Energy            =      -0.0000000000000000 [Eh]
	 Same-Spin Energy          =      -0.1379789687149452 [Eh]
	 Opposite-Spin Energy      =      -0.5054835522158723 [Eh]
	 Correlation Energy        =      -0.6434625209308176 [Eh]
	 Total Energy              =    -134.9480011078017867 [Eh]

	 ================> DF-SCS-MP2 Energies <==================
	-----------------------------------------------------------
	 SCS Same-Spin Scale       =       0.3333333333333333 [-]
	 SCS Opposite-Spin Scale   =       1.2000000000000000 [-]
	 SCS Same-Spin Energy      =      -0.0459929895716484 [Eh]
	 SCS Opposite-Spin Energy  =      -0.6065802626590467 [Eh]
	 SCS Correlation Energy    =      -0.6525732522306952 [Eh]
	 SCS Total Energy          =    -134.9571118391016569 [Eh]
	-----------------------------------------------------------

  Dipole Moment: [D]
     X:    -1.1229      Y:    -0.9351      Z:    -0.0000     Total:     1.4613

*** Psi4 exiting successfully. Buy a developer a beer!
