                               Psi4 1.3.2 release

  ==> Input File <==

--------------------------------------------------------------------------
#psi4
#
memory 32 gb

molecule  {
0 1
  N        1.3185396    -0.0634948     0.0000000
  C        0.0000000     0.5768050     0.0000000
  C       -1.2274325    -0.3341061     0.0000000
  H       -0.0360080     1.2309690     0.8773040
  H       -0.0360080     1.2309690    -0.8773040
  H       -1.2034720    -0.9989080    -0.8858340
  H       -1.2034720    -0.9989080     0.8858340
  H       -2.1510380     0.2067580     0.0000000
  H        1.3739710    -0.6972560    -0.8133190
  H        1.3739710    -0.6972560     0.8133190
units angstrom
no_reorient  #important for SAPT in psi4, default
symmetry c1  #important for SAPT in psi4, default
}

set PROPERTIES_ORIGIN ["COM"]
properties('MP2/aug-cc-pvtz', properties = ['dipole'])
--------------------------------------------------------------------------

    Molecular point group: c1
  Charge       = 0
  Multiplicity = 1
  Basis Set: AUG-CC-PVTZ
    Blend: AUG-CC-PVTZ
  Basis Set: (AUG-CC-PVTZ AUX)
    Blend: AUG-CC-PVTZ-JKFIT

    Orbital Energies [Eh]
    ---------------------

    Doubly Occupied:

       1A    -15.544363     2A    -11.247106     3A    -11.216522
       4A     -1.173772     5A     -0.986904     6A     -0.828151
       7A     -0.665522     8A     -0.597611     9A     -0.570123
      10A     -0.562281    11A     -0.504694    12A     -0.478127
      13A     -0.395366

  @DF-RHF Final Energy:  -134.30318249084297

   => Energetics <=

    Nuclear Repulsion Energy =             82.5338780363275930
    One-Electron Energy =                -344.1330373196680057
    Two-Electron Energy =                 127.2959767924974699
    Total Energy =                       -134.3031824908429712
  Basis Set: (AUG-CC-PVTZ AUX)
    Blend: AUG-CC-PVTZ-RI
    Molecular point group: c1

    Geometry (in Angstrom), charge = 0, multiplicity = 1:

       Center              X                  Y                   Z               Mass
    ------------   -----------------  -----------------  -----------------  -----------------
         N            1.277755708201    -0.092212770234     0.000000000000    14.003074004430
         C           -0.040783891799     0.548087029766     0.000000000000    12.000000000000
         C           -1.268216391799    -0.362824070234     0.000000000000    12.000000000000
         H           -0.076791891799     1.202251029766     0.877304000000     1.007825032230
         H           -0.076791891799     1.202251029766    -0.877304000000     1.007825032230
         H           -1.244255891799    -1.027625970234    -0.885834000000     1.007825032230
         H           -1.244255891799    -1.027625970234     0.885834000000     1.007825032230
         H           -2.191821891799     0.178040029766     0.000000000000     1.007825032230
         H            1.333187108201    -0.725973970234    -0.813319000000     1.007825032230
         H            1.333187108201    -0.725973970234     0.813319000000     1.007825032230

  Basis Set: AUG-CC-PVTZ
    Blend: AUG-CC-PVTZ
  Basis Set: (AUG-CC-PVTZ AUX)
    Blend: AUG-CC-PVTZ-JKFIT
	 Reference Energy          =    -134.3031824908429712 [Eh]
	 Singles Energy            =      -0.0000000000000000 [Eh]
	 Same-Spin Energy          =      -0.1381207826564662 [Eh]
	 Opposite-Spin Energy      =      -0.5060290590989771 [Eh]
	 Correlation Energy        =      -0.6441498417554432 [Eh]
	 Total Energy              =    -134.9473323325984211 [Eh]

	 ================> DF-SCS-MP2 Energies <==================
	-----------------------------------------------------------
	 SCS Same-Spin Scale       =       0.3333333333333333 [-]
	 SCS Opposite-Spin Scale   =       1.2000000000000000 [-]
	 SCS Same-Spin Energy      =      -0.0460402608854887 [Eh]
	 SCS Opposite-Spin Energy  =      -0.6072348709187725 [Eh]
	 SCS Correlation Energy    =      -0.6532751318042612 [Eh]
	 SCS Total Energy          =    -134.9564576226472354 [Eh]
	-----------------------------------------------------------

  Dipole Moment: [D]
     X:    -1.1230      Y:    -0.9138      Z:    -0.0000     Total:     1.4478

*** Psi4 exiting successfully. Buy a developer a beer!
