                               Psi4 1.3.2 release

  ==> Input File <==

--------------------------------------------------------------------------
#psi4
#
memory 32 gb

molecule  {
0 1
  N        1.3071640    -0.0864090     0.0000000
  C        0.0000000     0.5768050     0.0000000
  C       -1.2113480    -0.3553890     0.0000000
  H       -0.0360080     1.2309690     0.8773040
  H       -0.0360080     1.2309690    -0.8773040
  H       -1.2034720    -0.9989080    -0.8858340
  H       -1.2034720    -0.9989080     0.8858340
  H       -2.1510380     0.2067580     0.0000000
  H        1.3755040    -0.7112732    -0.8024708
  H        1.3755040    -0.7112732     0.8024708
units angstrom
no_reorient  #important for SAPT in psi4, default
symmetry c1  #important for SAPT in psi4, default
}

set PROPERTIES_ORIGIN ["COM"]
properties('MP2/aug-cc-pvtz', properties = ['dipole'])
--------------------------------------------------------------------------

    Molecular point group: c1
  Charge       = 0
  Multiplicity = 1
  Basis Set: AUG-CC-PVTZ
    Blend: AUG-CC-PVTZ
  Basis Set: (AUG-CC-PVTZ AUX)
    Blend: AUG-CC-PVTZ-JKFIT

    Orbital Energies [Eh]
    ---------------------

    Doubly Occupied:

       1A    -15.539430     2A    -11.247522     3A    -11.215543
       4A     -1.175396     5A     -0.986762     6A     -0.830031
       7A     -0.667734     8A     -0.596460     9A     -0.567468
      10A     -0.566461    11A     -0.505649    12A     -0.482510
      13A     -0.391499

  @DF-RHF Final Energy:  -134.30547641850023

   => Energetics <=

    Nuclear Repulsion Energy =             82.7284470533760583
    One-Electron Energy =                -344.5229147472612112
    Two-Electron Energy =                 127.4889912753849188
    Total Energy =                       -134.3054764185002341
  Basis Set: (AUG-CC-PVTZ AUX)
    Blend: AUG-CC-PVTZ-RI
    Molecular point group: c1

    Geometry (in Angstrom), charge = 0, multiplicity = 1:

       Center              X                  Y                   Z               Mass
    ------------   -----------------  -----------------  -----------------  -----------------
         N            1.265563144596    -0.101710488560     0.000000000000    14.003074004430
         C           -0.041600855404     0.561503511440     0.000000000000    12.000000000000
         C           -1.252948855404    -0.370690488560     0.000000000000    12.000000000000
         H           -0.077608855404     1.215667511440     0.877304000000     1.007825032230
         H           -0.077608855404     1.215667511440    -0.877304000000     1.007825032230
         H           -1.245072855404    -1.014209488560    -0.885834000000     1.007825032230
         H           -1.245072855404    -1.014209488560     0.885834000000     1.007825032230
         H           -2.192638855404     0.191456511440     0.000000000000     1.007825032230
         H            1.333903144596    -0.726574688560    -0.802470800000     1.007825032230
         H            1.333903144596    -0.726574688560     0.802470800000     1.007825032230

  Basis Set: AUG-CC-PVTZ
    Blend: AUG-CC-PVTZ
  Basis Set: (AUG-CC-PVTZ AUX)
    Blend: AUG-CC-PVTZ-JKFIT
	 Reference Energy          =    -134.3054764185002341 [Eh]
	 Singles Energy            =      -0.0000000000000000 [Eh]
	 Same-Spin Energy          =      -0.1379379691465706 [Eh]
	 Opposite-Spin Energy      =      -0.5053906709116022 [Eh]
	 Correlation Energy        =      -0.6433286400581728 [Eh]
	 Total Energy              =    -134.9488050585584062 [Eh]

	 ================> DF-SCS-MP2 Energies <==================
	-----------------------------------------------------------
	 SCS Same-Spin Scale       =       0.3333333333333333 [-]
	 SCS Opposite-Spin Scale   =       1.2000000000000000 [-]
	 SCS Same-Spin Energy      =      -0.0459793230488569 [Eh]
	 SCS Opposite-Spin Energy  =      -0.6064688050939225 [Eh]
	 SCS Correlation Energy    =      -0.6524481281427794 [Eh]
	 SCS Total Energy          =    -134.9579245466429995 [Eh]
	-----------------------------------------------------------

  Dipole Moment: [D]
     X:    -1.0981      Y:    -0.9004      Z:     0.0000     Total:     1.4200

*** Psi4 exiting successfully. Buy a developer a beer!
