                               Psi4 1.4a3.dev225

  ==> Input File <==

--------------------------------------------------------------------------
#psi4
#
memory 32 gb

molecule  {
0 1
  N        1.2972060    -0.1834440    -0.0000110
  C        0.0253908     0.5853008    -0.0000171
  C       -1.2341620    -0.2639620     0.0000230
  H        0.0562240     1.2306650     0.8768470
  H        0.0562020     1.2306140    -0.8769190
  H       -1.2739250    -0.9067860    -0.8853860
  H       -1.2739030    -0.9067350     0.8854710
  H       -2.1289910     0.3670470     0.0000160
  H        1.3169290    -0.7983510    -0.8130380
  H        1.3169460    -0.7983090     0.8130470
units angstrom
no_reorient  #important for SAPT in psi4, default
symmetry c1  #important for SAPT in psi4, default
}

set PROPERTIES_ORIGIN ["COM"]
properties('MP2/aug-cc-pvtz', properties = ['dipole'])
--------------------------------------------------------------------------

    Molecular point group: c1
  Charge       = 0
  Multiplicity = 1
  Basis Set: AUG-CC-PVTZ
    Blend: AUG-CC-PVTZ
  Basis Set: (AUG-CC-PVTZ AUX)
    Blend: AUG-CC-PVTZ-JKFIT

    Orbital Energies [Eh]
    ---------------------

    Doubly Occupied:

       1A    -15.538628     2A    -11.246940     3A    -11.215729
       4A     -1.169438     5A     -0.988870     6A     -0.829957
       7A     -0.668568     8A     -0.593397     9A     -0.569967
      10A     -0.563798    11A     -0.504184    12A     -0.485487
      13A     -0.391092

  @DF-RHF Final Energy:  -134.30517623349533

   => Energetics <=

    Nuclear Repulsion Energy =             82.6286801509624809
    One-Electron Energy =                -344.3356023956695253
    Two-Electron Energy =                 127.4017460112116709
    Total Energy =                       -134.3051762334953310
  Basis Set: (AUG-CC-PVTZ AUX)
    Blend: AUG-CC-PVTZ-RI
    Molecular point group: c1

    Geometry (in Angstrom), charge = 0, multiplicity = 1:

       Center              X                  Y                   Z               Mass
    ------------   -----------------  -----------------  -----------------  -----------------
         N            1.259166171630    -0.198999062440    -0.000010002694    14.003074004430
         C           -0.012649028370     0.569745737560    -0.000016102694    12.000000000000
         C           -1.272201828370    -0.279517062440     0.000023997306    12.000000000000
         H            0.018184171630     1.215109937560     0.876847997306     1.007825032230
         H            0.018162171630     1.215058937560    -0.876918002694     1.007825032230
         H           -1.311964828370    -0.922341062440    -0.885385002694     1.007825032230
         H           -1.311942828370    -0.922290062440     0.885471997306     1.007825032230
         H           -2.167030828370     0.351491937560     0.000016997306     1.007825032230
         H            1.278889171630    -0.813906062440    -0.813037002694     1.007825032230
         H            1.278906171630    -0.813864062440     0.813047997306     1.007825032230

  Basis Set: AUG-CC-PVTZ
    Blend: AUG-CC-PVTZ
  Basis Set: (AUG-CC-PVTZ AUX)
    Blend: AUG-CC-PVTZ-JKFIT
	 Reference Energy          =    -134.3051762334953310 [Eh]
	 Singles Energy            =      -0.0000000000000000 [Eh]
	 Same-Spin Energy          =      -0.1379143084486705 [Eh]
	 Opposite-Spin Energy      =      -0.5055014918944419 [Eh]
	 Correlation Energy        =      -0.6434158003431124 [Eh]
	 Total Energy              =    -134.9485920338384517 [Eh]

	 ================> DF-SCS-MP2 Energies <==================
	-----------------------------------------------------------
	 SCS Same-Spin Scale       =       0.3333333333333333 [-]
	 SCS Opposite-Spin Scale   =       1.2000000000000000 [-]
	 SCS Same-Spin Energy      =      -0.0459714361495568 [Eh]
	 SCS Opposite-Spin Energy  =      -0.6066017902733303 [Eh]
	 SCS Correlation Energy    =      -0.6525732264228871 [Eh]
	 SCS Total Energy          =    -134.9577494599182046 [Eh]
	-----------------------------------------------------------

  Dipole Moment: [D]
     X:    -1.2073      Y:    -0.7815      Z:     0.0000     Total:     1.4382

*** Psi4 exiting successfully. Buy a developer a beer!
