                               Psi4 1.3.2 release

  ==> Input File <==

--------------------------------------------------------------------------
#psi4
#
memory 32 gb

molecule  {
0 1
  N        1.3071640    -0.0864090     0.0000000
  C        0.0000000     0.5768050     0.0000000
  C       -1.2113480    -0.3553890     0.0000000
  H       -0.0360080     1.2309690     0.8773040
  H       -0.0360080     1.2309690    -0.8773040
  H       -1.2034720    -0.9989080    -0.8858340
  H       -1.2034720    -0.9989080     0.8858340
  H       -2.1510380     0.2067580     0.0000000
  H        1.3870787    -0.8171057    -0.9728942
  H        1.3739710    -0.6972560     0.8133190
units angstrom
no_reorient  #important for SAPT in psi4, default
symmetry c1  #important for SAPT in psi4, default
}

set PROPERTIES_ORIGIN ["COM"]
properties('MP2/aug-cc-pvtz', properties = ['dipole'])
--------------------------------------------------------------------------

    Molecular point group: c1
  Charge       = 0
  Multiplicity = 1
  Basis Set: AUG-CC-PVTZ
    Blend: AUG-CC-PVTZ
  Basis Set: (AUG-CC-PVTZ AUX)
    Blend: AUG-CC-PVTZ-JKFIT

    Orbital Energies [Eh]
    ---------------------

    Doubly Occupied:

       1A    -15.560233     2A    -11.248695     3A    -11.215340
       4A     -1.158833     5A     -0.980146     6A     -0.824029
       7A     -0.652565     8A     -0.592708     9A     -0.566738
      10A     -0.546964    11A     -0.504664    12A     -0.477773
      13A     -0.388929

  @DF-RHF Final Energy:  -134.27804833245392

   => Energetics <=

    Nuclear Repulsion Energy =             81.9404372558418714
    One-Electron Energy =                -343.0017380465060342
    Two-Electron Energy =                 126.7832524582102707
    Total Energy =                       -134.2780483324539205
  Basis Set: (AUG-CC-PVTZ AUX)
    Blend: AUG-CC-PVTZ-RI
    Molecular point group: c1

    Geometry (in Angstrom), charge = 0, multiplicity = 1:

       Center              X                  Y                   Z               Mass
    ------------   -----------------  -----------------  -----------------  -----------------
         N            1.265338538300    -0.099656822900     0.003569275583    14.003074004430
         C           -0.041825461700     0.563557177100     0.003569275583    12.000000000000
         C           -1.253173461700    -0.368636822900     0.003569275583    12.000000000000
         H           -0.077833461700     1.217721177100     0.880873275583     1.007825032230
         H           -0.077833461700     1.217721177100    -0.873734724417     1.007825032230
         H           -1.245297461700    -1.012155822900    -0.882264724417     1.007825032230
         H           -1.245297461700    -1.012155822900     0.889403275583     1.007825032230
         H           -2.192863461700     0.193510177100     0.003569275583     1.007825032230
         H            1.345253238300    -0.830353522900    -0.969324924417     1.007825032230
         H            1.332145538300    -0.710503822900     0.816888275583     1.007825032230

  Basis Set: AUG-CC-PVTZ
    Blend: AUG-CC-PVTZ
  Basis Set: (AUG-CC-PVTZ AUX)
    Blend: AUG-CC-PVTZ-JKFIT
	 Reference Energy          =    -134.2780483324539205 [Eh]
	 Singles Energy            =      -0.0000000000000000 [Eh]
	 Same-Spin Energy          =      -0.1387248984503821 [Eh]
	 Opposite-Spin Energy      =      -0.5090039050313919 [Eh]
	 Correlation Energy        =      -0.6477288034817740 [Eh]
	 Total Energy              =    -134.9257771359357037 [Eh]

	 ================> DF-SCS-MP2 Energies <==================
	-----------------------------------------------------------
	 SCS Same-Spin Scale       =       0.3333333333333333 [-]
	 SCS Opposite-Spin Scale   =       1.2000000000000000 [-]
	 SCS Same-Spin Energy      =      -0.0462416328167940 [Eh]
	 SCS Opposite-Spin Energy  =      -0.6108046860376702 [Eh]
	 SCS Correlation Energy    =      -0.6570463188544643 [Eh]
	 SCS Total Energy          =    -134.9350946513083898 [Eh]
	-----------------------------------------------------------

  Dipole Moment: [D]
     X:    -1.0981      Y:    -0.8453      Z:    -0.0030     Total:     1.3857

*** Psi4 exiting successfully. Buy a developer a beer!
