                               Psi4 1.3.2 release

  ==> Input File <==

--------------------------------------------------------------------------
#psi4
#
memory 32 gb

molecule  {
0 1
  N        1.3102560    -0.0801914     0.0107424
  C        0.0000000     0.5768050     0.0000000
  C       -1.2113480    -0.3553890     0.0000000
  H       -0.0271739     1.2282055     0.8796751
  H       -0.0360080     1.2309690    -0.8773040
  H       -1.2034720    -0.9989080    -0.8858340
  H       -1.2034720    -0.9989080     0.8858340
  H       -2.1510380     0.2067580     0.0000000
  H        1.3739710    -0.6972560    -0.8133190
  H        1.3739710    -0.6972560     0.8133190
units angstrom
no_reorient  #important for SAPT in psi4, default
symmetry c1  #important for SAPT in psi4, default
}

set PROPERTIES_ORIGIN ["COM"]
properties('MP2/aug-cc-pvtz', properties = ['dipole'])
--------------------------------------------------------------------------

    Molecular point group: c1
  Charge       = 0
  Multiplicity = 1
  Basis Set: AUG-CC-PVTZ
    Blend: AUG-CC-PVTZ
  Basis Set: (AUG-CC-PVTZ AUX)
    Blend: AUG-CC-PVTZ-JKFIT

    Orbital Energies [Eh]
    ---------------------

    Doubly Occupied:

       1A    -15.540232     2A    -11.247167     3A    -11.215700
       4A     -1.174777     5A     -0.986194     6A     -0.829048
       7A     -0.669210     8A     -0.594881     9A     -0.568508
      10A     -0.565451    11A     -0.504792    12A     -0.482583
      13A     -0.391494

  @DF-RHF Final Energy:  -134.30509567293871

   => Energetics <=

    Nuclear Repulsion Energy =             82.6977845678302401
    One-Electron Energy =                -344.4656822162070853
    Two-Electron Energy =                 127.4628019754381398
    Total Energy =                       -134.3050956729387053
  Basis Set: (AUG-CC-PVTZ AUX)
    Blend: AUG-CC-PVTZ-RI
    Molecular point group: c1

    Geometry (in Angstrom), charge = 0, multiplicity = 1:

       Center              X                  Y                   Z               Mass
    ------------   -----------------  -----------------  -----------------  -----------------
         N            1.267565195981    -0.097990436944     0.007350842730    14.003074004430
         C           -0.042690804019     0.559005963056    -0.003391557270    12.000000000000
         C           -1.254038804019    -0.373188036944    -0.003391557270    12.000000000000
         H           -0.069864704019     1.210406463056     0.876283542730     1.007825032230
         H           -0.078698804019     1.213169963056    -0.880695557270     1.007825032230
         H           -1.246162804019    -1.016707036944    -0.889225557270     1.007825032230
         H           -1.246162804019    -1.016707036944     0.882442442730     1.007825032230
         H           -2.193728804019     0.188958963056    -0.003391557270     1.007825032230
         H            1.331280195981    -0.715055036944    -0.816710557270     1.007825032230
         H            1.331280195981    -0.715055036944     0.809927442730     1.007825032230

  Basis Set: AUG-CC-PVTZ
    Blend: AUG-CC-PVTZ
  Basis Set: (AUG-CC-PVTZ AUX)
    Blend: AUG-CC-PVTZ-JKFIT
	 Reference Energy          =    -134.3050956729387053 [Eh]
	 Singles Energy            =      -0.0000000000000000 [Eh]
	 Same-Spin Energy          =      -0.1379774085496565 [Eh]
	 Opposite-Spin Energy      =      -0.5055384451493369 [Eh]
	 Correlation Energy        =      -0.6435158536989933 [Eh]
	 Total Energy              =    -134.9486115266377055 [Eh]

	 ================> DF-SCS-MP2 Energies <==================
	-----------------------------------------------------------
	 SCS Same-Spin Scale       =       0.3333333333333333 [-]
	 SCS Opposite-Spin Scale   =       1.2000000000000000 [-]
	 SCS Same-Spin Energy      =      -0.0459924695165522 [Eh]
	 SCS Opposite-Spin Energy  =      -0.6066461341792042 [Eh]
	 SCS Correlation Energy    =      -0.6526386036957563 [Eh]
	 SCS Total Energy          =    -134.9577342766344543 [Eh]
	-----------------------------------------------------------

  Dipole Moment: [D]
     X:    -1.0978      Y:    -0.8939      Z:    -0.0122     Total:     1.4158

*** Psi4 exiting successfully. Buy a developer a beer!
