                               Psi4 1.3.2 release

  ==> Input File <==

--------------------------------------------------------------------------
#psi4
#
memory 32 gb

molecule  {
0 1
  N        1.3071640    -0.0864090     0.0000000
  C        0.0000000     0.5768050     0.0000000
  C       -1.2113480    -0.3553890     0.0000000
  H       -0.0360080     1.2309690     0.8773040
  H       -0.0360080     1.2309690    -0.8773040
  H       -1.2034720    -0.9989080    -0.8858340
  H       -1.2034720    -0.9989080     0.8858340
  H       -2.1510380     0.2067580     0.0000000
  H        1.3770162    -0.7251001    -0.7913782
  H        1.3770162    -0.7251001     0.7913782
units angstrom
no_reorient  #important for SAPT in psi4, default
symmetry c1  #important for SAPT in psi4, default
}

set PROPERTIES_ORIGIN ["COM"]
properties('MP2/aug-cc-pvtz', properties = ['dipole'])
--------------------------------------------------------------------------

    Molecular point group: c1
  Charge       = 0
  Multiplicity = 1
  Basis Set: AUG-CC-PVTZ
    Blend: AUG-CC-PVTZ
  Basis Set: (AUG-CC-PVTZ AUX)
    Blend: AUG-CC-PVTZ-JKFIT

    Orbital Energies [Eh]
    ---------------------

    Doubly Occupied:

       1A    -15.539593     2A    -11.247851     3A    -11.215729
       4A     -1.175712     5A     -0.987207     6A     -0.830927
       7A     -0.665226     8A     -0.597493     9A     -0.567496
      10A     -0.566113    11A     -0.506092    12A     -0.482254
      13A     -0.392422

  @DF-RHF Final Energy:  -134.30512775395027

   => Energetics <=

    Nuclear Repulsion Energy =             82.7225396906441830
    One-Electron Energy =                -344.5071055827431792
    Two-Electron Energy =                 127.4794381381487369
    Total Energy =                       -134.3051277539502735
  Basis Set: (AUG-CC-PVTZ AUX)
    Blend: AUG-CC-PVTZ-RI
    Molecular point group: c1

    Geometry (in Angstrom), charge = 0, multiplicity = 1:

       Center              X                  Y                   Z               Mass
    ------------   -----------------  -----------------  -----------------  -----------------
         N            1.265495496760    -0.101091946123     0.000000000000    14.003074004430
         C           -0.041668503240     0.562122053877     0.000000000000    12.000000000000
         C           -1.253016503240    -0.370071946123     0.000000000000    12.000000000000
         H           -0.077676503240     1.216286053877     0.877304000000     1.007825032230
         H           -0.077676503240     1.216286053877    -0.877304000000     1.007825032230
         H           -1.245140503240    -1.013590946123    -0.885834000000     1.007825032230
         H           -1.245140503240    -1.013590946123     0.885834000000     1.007825032230
         H           -2.192706503240     0.192075053877     0.000000000000     1.007825032230
         H            1.335347696760    -0.739783046123    -0.791378200000     1.007825032230
         H            1.335347696760    -0.739783046123     0.791378200000     1.007825032230

  Basis Set: AUG-CC-PVTZ
    Blend: AUG-CC-PVTZ
  Basis Set: (AUG-CC-PVTZ AUX)
    Blend: AUG-CC-PVTZ-JKFIT
	 Reference Energy          =    -134.3051277539502735 [Eh]
	 Singles Energy            =      -0.0000000000000000 [Eh]
	 Same-Spin Energy          =      -0.1379529688307422 [Eh]
	 Opposite-Spin Energy      =      -0.5054283389823159 [Eh]
	 Correlation Energy        =      -0.6433813078130581 [Eh]
	 Total Energy              =    -134.9485090617633318 [Eh]

	 ================> DF-SCS-MP2 Energies <==================
	-----------------------------------------------------------
	 SCS Same-Spin Scale       =       0.3333333333333333 [-]
	 SCS Opposite-Spin Scale   =       1.2000000000000000 [-]
	 SCS Same-Spin Energy      =      -0.0459843229435807 [Eh]
	 SCS Opposite-Spin Energy  =      -0.6065140067787790 [Eh]
	 SCS Correlation Energy    =      -0.6524983297223597 [Eh]
	 SCS Total Energy          =    -134.9576260836726362 [Eh]
	-----------------------------------------------------------

  Dipole Moment: [D]
     X:    -1.1106      Y:    -0.9179      Z:     0.0000     Total:     1.4408

*** Psi4 exiting successfully. Buy a developer a beer!
