                               Psi4 1.3.2 release

  ==> Input File <==

--------------------------------------------------------------------------
#psi4
#
memory 32 gb

molecule  {
0 1
  N        1.3071640    -0.0864090     0.0000000
  C        0.0000000     0.5768050     0.0000000
  C       -1.2113480    -0.3553890     0.0000000
  H       -0.0360080     1.2309690     0.8773040
  H       -0.0360080     1.2309690    -0.8773040
  H       -1.2034720    -0.9989080    -0.8858340
  H       -1.2034720    -0.9989080     0.8858340
  H       -2.1510380     0.2067580     0.0000000
  H        1.3724176    -0.6830527    -0.8239194
  H        1.3724176    -0.6830527     0.8239194
units angstrom
no_reorient  #important for SAPT in psi4, default
symmetry c1  #important for SAPT in psi4, default
}

set PROPERTIES_ORIGIN ["COM"]
properties('MP2/aug-cc-pvtz', properties = ['dipole'])
--------------------------------------------------------------------------

    Molecular point group: c1
  Charge       = 0
  Multiplicity = 1
  Basis Set: AUG-CC-PVTZ
    Blend: AUG-CC-PVTZ
  Basis Set: (AUG-CC-PVTZ AUX)
    Blend: AUG-CC-PVTZ-JKFIT

    Orbital Energies [Eh]
    ---------------------

    Doubly Occupied:

       1A    -15.539079     2A    -11.246874     3A    -11.215171
       4A     -1.174871     5A     -0.985911     6A     -0.828279
       7A     -0.672871     8A     -0.594596     9A     -0.569868
      10A     -0.564266    11A     -0.504737    12A     -0.482892
      13A     -0.389613

  @DF-RHF Final Energy:  -134.30547151260996

   => Energetics <=

    Nuclear Repulsion Energy =             82.7416228291235427
    One-Electron Energy =                -344.5561339168305039
    Two-Electron Energy =                 127.5090395750969918
    Total Energy =                       -134.3054715126099268
  Basis Set: (AUG-CC-PVTZ AUX)
    Blend: AUG-CC-PVTZ-RI
    Molecular point group: c1

    Geometry (in Angstrom), charge = 0, multiplicity = 1:

       Center              X                  Y                   Z               Mass
    ------------   -----------------  -----------------  -----------------  -----------------
         N            1.265701213822    -0.102972924598     0.000000000000    14.003074004430
         C           -0.041462786178     0.560241075402     0.000000000000    12.000000000000
         C           -1.252810786178    -0.371952924598     0.000000000000    12.000000000000
         H           -0.077470786178     1.214405075402     0.877304000000     1.007825032230
         H           -0.077470786178     1.214405075402    -0.877304000000     1.007825032230
         H           -1.244934786178    -1.015471924598    -0.885834000000     1.007825032230
         H           -1.244934786178    -1.015471924598     0.885834000000     1.007825032230
         H           -2.192500786178     0.190194075402     0.000000000000     1.007825032230
         H            1.330954813822    -0.699616624598    -0.823919400000     1.007825032230
         H            1.330954813822    -0.699616624598     0.823919400000     1.007825032230

  Basis Set: AUG-CC-PVTZ
    Blend: AUG-CC-PVTZ
  Basis Set: (AUG-CC-PVTZ AUX)
    Blend: AUG-CC-PVTZ-JKFIT
	 Reference Energy          =    -134.3054715126099552 [Eh]
	 Singles Energy            =      -0.0000000000000000 [Eh]
	 Same-Spin Energy          =      -0.1379403585747414 [Eh]
	 Opposite-Spin Energy      =      -0.5053661439171500 [Eh]
	 Correlation Energy        =      -0.6433065024918914 [Eh]
	 Total Energy              =    -134.9487780151018512 [Eh]

	 ================> DF-SCS-MP2 Energies <==================
	-----------------------------------------------------------
	 SCS Same-Spin Scale       =       0.3333333333333333 [-]
	 SCS Opposite-Spin Scale   =       1.2000000000000000 [-]
	 SCS Same-Spin Energy      =      -0.0459801195249138 [Eh]
	 SCS Opposite-Spin Energy  =      -0.6064393727005799 [Eh]
	 SCS Correlation Energy    =      -0.6524194922254937 [Eh]
	 SCS Total Energy          =    -134.9578910048354601 [Eh]
	-----------------------------------------------------------

  Dipole Moment: [D]
     X:    -1.0728      Y:    -0.8641      Z:     0.0000     Total:     1.3776

*** Psi4 exiting successfully. Buy a developer a beer!
