                               Psi4 1.3.2 release

  ==> Input File <==

--------------------------------------------------------------------------
#psi4
#
memory 32 gb

molecule  {
0 1
  N        1.3071640    -0.0864090     0.0000000
  C        0.0000000     0.5768050     0.0000000
  C       -1.2113480    -0.3553890     0.0000000
  H       -0.0360080     1.2309690     0.8773040
  H       -0.0360080     1.2309690    -0.8773040
  H       -1.2034720    -0.9989080    -0.8858340
  H       -1.2034720    -0.9989080     0.8858340
  H       -2.1510380     0.2067580     0.0000000
  H        1.3739710    -0.6972560    -0.8133190
  H        1.3739710    -0.6972560     0.8133190
units angstrom
no_reorient  #important for SAPT in psi4, default
symmetry c1  #important for SAPT in psi4, default
}

set PROPERTIES_ORIGIN ["COM"]
properties('MP2/aug-cc-pvtz', properties = ['dipole'])
--------------------------------------------------------------------------

    Molecular point group: c1
  Charge       = 0
  Multiplicity = 1
  Basis Set: AUG-CC-PVTZ
    Blend: AUG-CC-PVTZ
  Basis Set: (AUG-CC-PVTZ AUX)
    Blend: AUG-CC-PVTZ-JKFIT

    Orbital Energies [Eh]
    ---------------------

    Doubly Occupied:

       1A    -15.539259     2A    -11.247197     3A    -11.215357
       4A     -1.175117     5A     -0.986330     6A     -0.829149
       7A     -0.670286     8A     -0.595495     9A     -0.568719
      10A     -0.565383    11A     -0.505197    12A     -0.482721
      13A     -0.390563

  @DF-RHF Final Energy:  -134.30558934980587

   => Energetics <=

    Nuclear Repulsion Energy =             82.7348109385694670
    One-Electron Energy =                -344.5392583012419436
    Two-Electron Energy =                 127.4988580128666200
    Total Energy =                       -134.3055893498058708
  Basis Set: (AUG-CC-PVTZ AUX)
    Blend: AUG-CC-PVTZ-RI
    Molecular point group: c1

    Geometry (in Angstrom), charge = 0, multiplicity = 1:

       Center              X                  Y                   Z               Mass
    ------------   -----------------  -----------------  -----------------  -----------------
         N            1.265631722915    -0.102337544014     0.000000000000    14.003074004430
         C           -0.041532277085     0.560876455986     0.000000000000    12.000000000000
         C           -1.252880277085    -0.371317544014     0.000000000000    12.000000000000
         H           -0.077540277085     1.215040455986     0.877304000000     1.007825032230
         H           -0.077540277085     1.215040455986    -0.877304000000     1.007825032230
         H           -1.245004277085    -1.014836544014    -0.885834000000     1.007825032230
         H           -1.245004277085    -1.014836544014     0.885834000000     1.007825032230
         H           -2.192570277085     0.190829455986     0.000000000000     1.007825032230
         H            1.332438722915    -0.713184544014    -0.813319000000     1.007825032230
         H            1.332438722915    -0.713184544014     0.813319000000     1.007825032230

  Basis Set: AUG-CC-PVTZ
    Blend: AUG-CC-PVTZ
  Basis Set: (AUG-CC-PVTZ AUX)
    Blend: AUG-CC-PVTZ-JKFIT
	 Reference Energy          =    -134.3055893498058708 [Eh]
	 Singles Energy            =      -0.0000000000000000 [Eh]
	 Same-Spin Energy          =      -0.1379338205612621 [Eh]
	 Opposite-Spin Energy      =      -0.5053701282032375 [Eh]
	 Correlation Energy        =      -0.6433039487644996 [Eh]
	 Total Energy              =    -134.9488932985703684 [Eh]

	 ================> DF-SCS-MP2 Energies <==================
	-----------------------------------------------------------
	 SCS Same-Spin Scale       =       0.3333333333333333 [-]
	 SCS Opposite-Spin Scale   =       1.2000000000000000 [-]
	 SCS Same-Spin Energy      =      -0.0459779401870874 [Eh]
	 SCS Opposite-Spin Energy  =      -0.6064441538438849 [Eh]
	 SCS Correlation Energy    =      -0.6524220940309723 [Eh]
	 SCS Total Energy          =    -134.9580114438368525 [Eh]
	-----------------------------------------------------------

  Dipole Moment: [D]
     X:    -1.0855      Y:    -0.8825      Z:    -0.0000     Total:     1.3990

*** Psi4 exiting successfully. Buy a developer a beer!
