                               Psi4 1.3.2 release

  ==> Input File <==

--------------------------------------------------------------------------
#psi4
#
memory 32 gb

molecule  {
0 1
  N        1.3039724    -0.0925761    -0.0107424
  C        0.0000000     0.5768050     0.0000000
  C       -1.2113480    -0.3553890     0.0000000
  H       -0.0448393     1.2336827     0.8748661
  H       -0.0360080     1.2309690    -0.8773040
  H       -1.2034720    -0.9989080    -0.8858340
  H       -1.2034720    -0.9989080     0.8858340
  H       -2.1510380     0.2067580     0.0000000
  H        1.3739710    -0.6972560    -0.8133190
  H        1.3739710    -0.6972560     0.8133190
units angstrom
no_reorient  #important for SAPT in psi4, default
symmetry c1  #important for SAPT in psi4, default
}

set PROPERTIES_ORIGIN ["COM"]
properties('MP2/aug-cc-pvtz', properties = ['dipole'])
--------------------------------------------------------------------------

    Molecular point group: c1
  Charge       = 0
  Multiplicity = 1
  Basis Set: AUG-CC-PVTZ
    Blend: AUG-CC-PVTZ
  Basis Set: (AUG-CC-PVTZ AUX)
    Blend: AUG-CC-PVTZ-JKFIT

    Orbital Energies [Eh]
    ---------------------

    Doubly Occupied:

       1A    -15.538312     2A    -11.247250     3A    -11.215020
       4A     -1.175522     5A     -0.986504     6A     -0.829311
       7A     -0.671337     8A     -0.596376     9A     -0.569625
      10A     -0.564441    11A     -0.505632    12A     -0.482664
      13A     -0.389656

  @DF-RHF Final Energy:  -134.30568260140092

   => Energetics <=

    Nuclear Repulsion Energy =             82.7727984132139625
    One-Electron Energy =                -344.6136619054187804
    Two-Electron Energy =                 127.5351808908038862
    Total Energy =                       -134.3056826014009175
  Basis Set: (AUG-CC-PVTZ AUX)
    Blend: AUG-CC-PVTZ-RI
    Molecular point group: c1

    Geometry (in Angstrom), charge = 0, multiplicity = 1:

       Center              X                  Y                   Z               Mass
    ------------   -----------------  -----------------  -----------------  -----------------
         N            1.263629540899    -0.106648731574    -0.007349348591    14.003074004430
         C           -0.040342859101     0.562732368426     0.003393051409    12.000000000000
         C           -1.251690859101    -0.369461631574     0.003393051409    12.000000000000
         H           -0.085182159101     1.219610068426     0.878259151409     1.007825032230
         H           -0.076350859101     1.216896368426    -0.873910948591     1.007825032230
         H           -1.243814859101    -1.012980631574    -0.882440948591     1.007825032230
         H           -1.243814859101    -1.012980631574     0.889227051409     1.007825032230
         H           -2.191380859101     0.192685368426     0.003393051409     1.007825032230
         H            1.333628140899    -0.711328631574    -0.809925948591     1.007825032230
         H            1.333628140899    -0.711328631574     0.816712051409     1.007825032230

  Basis Set: AUG-CC-PVTZ
    Blend: AUG-CC-PVTZ
  Basis Set: (AUG-CC-PVTZ AUX)
    Blend: AUG-CC-PVTZ-JKFIT
	 Reference Energy          =    -134.3056826014009175 [Eh]
	 Singles Energy            =      -0.0000000000000000 [Eh]
	 Same-Spin Energy          =      -0.1378967006421346 [Eh]
	 Opposite-Spin Energy      =      -0.5052219057873999 [Eh]
	 Correlation Energy        =      -0.6431186064295344 [Eh]
	 Total Energy              =    -134.9488012078304564 [Eh]

	 ================> DF-SCS-MP2 Energies <==================
	-----------------------------------------------------------
	 SCS Same-Spin Scale       =       0.3333333333333333 [-]
	 SCS Opposite-Spin Scale   =       1.2000000000000000 [-]
	 SCS Same-Spin Energy      =      -0.0459655668807115 [Eh]
	 SCS Opposite-Spin Energy  =      -0.6062662869448798 [Eh]
	 SCS Correlation Energy    =      -0.6522318538255913 [Eh]
	 SCS Total Energy          =    -134.9579144552265006 [Eh]
	-----------------------------------------------------------

  Dipole Moment: [D]
     X:    -1.0734      Y:    -0.8705      Z:     0.0126     Total:     1.3821

*** Psi4 exiting successfully. Buy a developer a beer!
