                               Psi4 1.3.2 release

  ==> Input File <==

--------------------------------------------------------------------------
#psi4
#
memory 32 gb

molecule  {
0 1
  N        1.2832219    -0.1316244     0.0000000
  C        0.0000000     0.5768050     0.0000000
  C       -1.1780770    -0.3970966     0.0000000
  H       -0.0360080     1.2309690     0.8773040
  H       -0.0360080     1.2309690    -0.8773040
  H       -1.2034720    -0.9989080    -0.8858340
  H       -1.2034720    -0.9989080     0.8858340
  H       -2.1510380     0.2067580     0.0000000
  H        1.3739710    -0.6972560    -0.8133190
  H        1.3739710    -0.6972560     0.8133190
units angstrom
no_reorient  #important for SAPT in psi4, default
symmetry c1  #important for SAPT in psi4, default
}

set PROPERTIES_ORIGIN ["COM"]
properties('MP2/aug-cc-pvtz', properties = ['dipole'])
--------------------------------------------------------------------------

    Molecular point group: c1
  Charge       = 0
  Multiplicity = 1
  Basis Set: AUG-CC-PVTZ
    Blend: AUG-CC-PVTZ
  Basis Set: (AUG-CC-PVTZ AUX)
    Blend: AUG-CC-PVTZ-JKFIT

    Orbital Energies [Eh]
    ---------------------

    Doubly Occupied:

       1A    -15.529844     2A    -11.247826     3A    -11.213888
       4A     -1.178104     5A     -0.985596     6A     -0.831536
       7A     -0.680557     8A     -0.593617     9A     -0.581335
      10A     -0.557688    11A     -0.501864    12A     -0.491343
      13A     -0.380726

  @DF-RHF Final Energy:  -134.30294831099150

   => Energetics <=

    Nuclear Repulsion Energy =             83.1485905597113515
    One-Electron Energy =                -345.3552278761242178
    Two-Electron Energy =                 127.9036890054213700
    Total Energy =                       -134.3029483109914963
  Basis Set: (AUG-CC-PVTZ AUX)
    Blend: AUG-CC-PVTZ-RI
    Molecular point group: c1

    Geometry (in Angstrom), charge = 0, multiplicity = 1:

       Center              X                  Y                   Z               Mass
    ------------   -----------------  -----------------  -----------------  -----------------
         N            1.240269470756    -0.122393159166     0.000000000000    14.003074004430
         C           -0.042952429244     0.586036240834     0.000000000000    12.000000000000
         C           -1.221029429244    -0.387865359166     0.000000000000    12.000000000000
         H           -0.078960429244     1.240200240834     0.877304000000     1.007825032230
         H           -0.078960429244     1.240200240834    -0.877304000000     1.007825032230
         H           -1.246424429244    -0.989676759166    -0.885834000000     1.007825032230
         H           -1.246424429244    -0.989676759166     0.885834000000     1.007825032230
         H           -2.193990429244     0.215989240834     0.000000000000     1.007825032230
         H            1.331018570756    -0.688024759166    -0.813319000000     1.007825032230
         H            1.331018570756    -0.688024759166     0.813319000000     1.007825032230

  Basis Set: AUG-CC-PVTZ
    Blend: AUG-CC-PVTZ
  Basis Set: (AUG-CC-PVTZ AUX)
    Blend: AUG-CC-PVTZ-JKFIT
	 Reference Energy          =    -134.3029483109914963 [Eh]
	 Singles Energy            =      -0.0000000000000000 [Eh]
	 Same-Spin Energy          =      -0.1377402583174392 [Eh]
	 Opposite-Spin Energy      =      -0.5045344390749740 [Eh]
	 Correlation Energy        =      -0.6422746973924132 [Eh]
	 Total Energy              =    -134.9452230083839197 [Eh]

	 ================> DF-SCS-MP2 Energies <==================
	-----------------------------------------------------------
	 SCS Same-Spin Scale       =       0.3333333333333333 [-]
	 SCS Opposite-Spin Scale   =       1.2000000000000000 [-]
	 SCS Same-Spin Energy      =      -0.0459134194391464 [Eh]
	 SCS Opposite-Spin Energy  =      -0.6054413268899688 [Eh]
	 SCS Correlation Energy    =      -0.6513547463291152 [Eh]
	 SCS Total Energy          =    -134.9543030573206011 [Eh]
	-----------------------------------------------------------

  Dipole Moment: [D]
     X:    -0.9840      Y:    -0.8103      Z:    -0.0000     Total:     1.2747

*** Psi4 exiting successfully. Buy a developer a beer!
