                               Psi4 1.4a3.dev225

  ==> Input File <==

--------------------------------------------------------------------------
#psi4
#
memory 32 gb

molecule  {
0 1
  N        1.2972060    -0.1834440    -0.0000110
  C        0.0425070     0.5749550    -0.0000170
  C       -1.2341620    -0.2639620     0.0000230
  H        0.0562240     1.2306650     0.8768470
  H        0.0562020     1.2306140    -0.8769190
  H       -1.2739250    -0.9067860    -0.8853860
  H       -1.2739030    -0.9067350     0.8854710
  H       -2.1289910     0.3670470     0.0000160
  H        1.3173159    -0.8104131    -0.8289865
  H        1.3169460    -0.7983090     0.8130470
units angstrom
no_reorient  #important for SAPT in psi4, default
symmetry c1  #important for SAPT in psi4, default
}

set PROPERTIES_ORIGIN ["COM"]
properties('MP2/aug-cc-pvtz', properties = ['dipole'])
--------------------------------------------------------------------------

    Molecular point group: c1
  Charge       = 0
  Multiplicity = 1
  Basis Set: AUG-CC-PVTZ
    Blend: AUG-CC-PVTZ
  Basis Set: (AUG-CC-PVTZ AUX)
    Blend: AUG-CC-PVTZ-JKFIT

    Orbital Energies [Eh]
    ---------------------

    Doubly Occupied:

       1A    -15.541628     2A    -11.247227     3A    -11.215346
       4A     -1.172758     5A     -0.985689     6A     -0.828409
       7A     -0.667810     8A     -0.595070     9A     -0.567368
      10A     -0.565043    11A     -0.505213    12A     -0.482165
      13A     -0.390599

  @DF-RHF Final Energy:  -134.30461842143492

   => Energetics <=

    Nuclear Repulsion Energy =             82.6532077834071970
    One-Electron Energy =                -344.3870028461622042
    Two-Electron Energy =                 127.4291766413200833
    Total Energy =                       -134.3046184214349239
  Basis Set: (AUG-CC-PVTZ AUX)
    Blend: AUG-CC-PVTZ-RI
    Molecular point group: c1

    Geometry (in Angstrom), charge = 0, multiplicity = 1:

       Center              X                  Y                   Z               Mass
    ------------   -----------------  -----------------  -----------------  -----------------
         N            1.254599057775    -0.195973927228     0.000346696478    14.003074004430
         C           -0.000099942225     0.562425072772     0.000340696478    12.000000000000
         C           -1.276768942225    -0.276491927228     0.000380696478    12.000000000000
         H            0.013617057775     1.218135072772     0.877204696478     1.007825032230
         H            0.013595057775     1.218084072772    -0.876561303522     1.007825032230
         H           -1.316531942225    -0.919315927228    -0.885028303522     1.007825032230
         H           -1.316509942225    -0.919264927228     0.885828696478     1.007825032230
         H           -2.171597942225     0.354517072772     0.000373696478     1.007825032230
         H            1.274708957775    -0.822943027228    -0.828628803522     1.007825032230
         H            1.274339057775    -0.810838927228     0.813404696478     1.007825032230

  Basis Set: AUG-CC-PVTZ
    Blend: AUG-CC-PVTZ
  Basis Set: (AUG-CC-PVTZ AUX)
    Blend: AUG-CC-PVTZ-JKFIT
	 Reference Energy          =    -134.3046184214349239 [Eh]
	 Singles Energy            =      -0.0000000000000000 [Eh]
	 Same-Spin Energy          =      -0.1380301492056487 [Eh]
	 Opposite-Spin Energy      =      -0.5057112572367010 [Eh]
	 Correlation Energy        =      -0.6437414064423497 [Eh]
	 Total Energy              =    -134.9483598278772831 [Eh]

	 ================> DF-SCS-MP2 Energies <==================
	-----------------------------------------------------------
	 SCS Same-Spin Scale       =       0.3333333333333333 [-]
	 SCS Opposite-Spin Scale   =       1.2000000000000000 [-]
	 SCS Same-Spin Energy      =      -0.0460100497352162 [Eh]
	 SCS Opposite-Spin Energy  =      -0.6068535086840411 [Eh]
	 SCS Correlation Energy    =      -0.6528635584192574 [Eh]
	 SCS Total Energy          =    -134.9574819798541796 [Eh]
	-----------------------------------------------------------

  Dipole Moment: [D]
     X:    -1.1529      Y:    -0.7980      Z:    -0.0024     Total:     1.4021

*** Psi4 exiting successfully. Buy a developer a beer!
