                               Psi4 1.4a3.dev225

  ==> Input File <==

--------------------------------------------------------------------------
#psi4
#
memory 32 gb

molecule  {
0 1
  N        1.2972060    -0.1834440    -0.0000110
  C        0.0852975     0.5490904    -0.0000168
  C       -1.2341620    -0.2639620     0.0000230
  H        0.0562240     1.2306650     0.8768470
  H        0.0562020     1.2306140    -0.8769190
  H       -1.2739250    -0.9067860    -0.8853860
  H       -1.2739030    -0.9067350     0.8854710
  H       -2.1289910     0.3670470     0.0000160
  H        1.3169290    -0.7983510    -0.8130380
  H        1.3169460    -0.7983090     0.8130470
units angstrom
no_reorient  #important for SAPT in psi4, default
symmetry c1  #important for SAPT in psi4, default
}

set PROPERTIES_ORIGIN ["COM"]
properties('MP2/aug-cc-pvtz', properties = ['dipole'])
--------------------------------------------------------------------------

    Molecular point group: c1
  Charge       = 0
  Multiplicity = 1
  Basis Set: AUG-CC-PVTZ
    Blend: AUG-CC-PVTZ
  Basis Set: (AUG-CC-PVTZ AUX)
    Blend: AUG-CC-PVTZ-JKFIT

    Orbital Energies [Eh]
    ---------------------

    Doubly Occupied:

       1A    -15.540989     2A    -11.248233     3A    -11.214503
       4A     -1.190841     5A     -0.980567     6A     -0.827236
       7A     -0.674940     8A     -0.602960     9A     -0.570792
      10A     -0.565030    11A     -0.506709    12A     -0.474363
      13A     -0.388597

  @DF-RHF Final Energy:  -134.30308595969441

   => Energetics <=

    Nuclear Repulsion Energy =             83.0465818692709803
    One-Electron Energy =                -345.1278136995127852
    Two-Electron Energy =                 127.7781458705473909
    Total Energy =                       -134.3030859596943856
  Basis Set: (AUG-CC-PVTZ AUX)
    Blend: AUG-CC-PVTZ-RI
    Molecular point group: c1

    Geometry (in Angstrom), charge = 0, multiplicity = 1:

       Center              X                  Y                   Z               Mass
    ------------   -----------------  -----------------  -----------------  -----------------
         N            1.243211561894    -0.189355353133    -0.000010082591    14.003074004430
         C            0.031303061894     0.543179046867    -0.000015882591    12.000000000000
         C           -1.288156438106    -0.269873353133     0.000023917409    12.000000000000
         H            0.002229561894     1.224753646867     0.876847917409     1.007825032230
         H            0.002207561894     1.224702646867    -0.876918082591     1.007825032230
         H           -1.327919438106    -0.912697353133    -0.885385082591     1.007825032230
         H           -1.327897438106    -0.912646353133     0.885471917409     1.007825032230
         H           -2.182985438106     0.361135646867     0.000016917409     1.007825032230
         H            1.262934561894    -0.804262353133    -0.813037082591     1.007825032230
         H            1.262951561894    -0.804220353133     0.813047917409     1.007825032230

  Basis Set: AUG-CC-PVTZ
    Blend: AUG-CC-PVTZ
  Basis Set: (AUG-CC-PVTZ AUX)
    Blend: AUG-CC-PVTZ-JKFIT
	 Reference Energy          =    -134.3030859596944140 [Eh]
	 Singles Energy            =      -0.0000000000000000 [Eh]
	 Same-Spin Energy          =      -0.1381402740901079 [Eh]
	 Opposite-Spin Energy      =      -0.5053120400549459 [Eh]
	 Correlation Energy        =      -0.6434523141450538 [Eh]
	 Total Energy              =    -134.9465382738394794 [Eh]

	 ================> DF-SCS-MP2 Energies <==================
	-----------------------------------------------------------
	 SCS Same-Spin Scale       =       0.3333333333333333 [-]
	 SCS Opposite-Spin Scale   =       1.2000000000000000 [-]
	 SCS Same-Spin Energy      =      -0.0460467580300360 [Eh]
	 SCS Opposite-Spin Energy  =      -0.6063744480659351 [Eh]
	 SCS Correlation Energy    =      -0.6524212060959711 [Eh]
	 SCS Total Energy          =    -134.9555071657903795 [Eh]
	-----------------------------------------------------------

  Dipole Moment: [D]
     X:    -1.0103      Y:    -0.8506      Z:     0.0000     Total:     1.3207

*** Psi4 exiting successfully. Buy a developer a beer!
