                               Psi4 1.4a3.dev225

  ==> Input File <==

--------------------------------------------------------------------------
#psi4
#
memory 32 gb

molecule  {
0 1
  O       -2.1439760    -1.5096120     0.4578230
  O        1.6019480     1.2946100    -0.5777250
  O       -3.1849820    -0.0999640    -0.9818910
  N        0.1649120    -0.2715720     0.2333030
  C       -1.0051050     0.5087660    -0.1211110
  C       -1.3212480     1.5963590     0.9125160
  C        2.5597860    -0.6480590     0.5035240
  C        1.4213295     0.2336999    -0.0131987
  C       -2.2159370    -0.3767160    -0.3010400
  C        3.7806550    -0.5458820    -0.4040570
  H       -0.8075500     0.9861290    -1.0847450
  H        0.0342290    -1.1271740     0.7572540
  H       -1.5188550     1.1449870     1.8886910
  H       -0.4592110     2.2615650     0.9886780
  H       -2.1947650     2.1753270     0.6002850
  H        2.8115640    -0.2961200     1.5118980
  H        2.2315720    -1.6889350     0.6045970
  H        4.0689510     0.4992230    -0.5227640
  H        4.6219880    -1.1034150     0.0157220
  H        3.5611410    -0.9492480    -1.3958190
  H       -2.9864200    -1.9858630     0.3018850
units angstrom
no_reorient  #important for SAPT in psi4, default
symmetry c1  #important for SAPT in psi4, default
}

set PROPERTIES_ORIGIN ["COM"]
properties('MP2/aug-cc-pvtz', properties = ['dipole'])
--------------------------------------------------------------------------

    Molecular point group: c1
  Charge       = 0
  Multiplicity = 1
  Basis Set: AUG-CC-PVTZ
    Blend: AUG-CC-PVTZ
  Basis Set: (AUG-CC-PVTZ AUX)
    Blend: AUG-CC-PVTZ-JKFIT

    Orbital Energies [Eh]
    ---------------------

    Doubly Occupied:

       1A    -20.633592     2A    -20.564326     3A    -20.526978
       4A    -15.592780     5A    -11.403022     6A    -11.356520
       7A    -11.295113     8A    -11.247073     9A    -11.232811
      10A    -11.221553    11A     -1.475627    12A     -1.392021
      13A     -1.371890    14A     -1.244640    15A     -1.073799
      16A     -1.035713    17A     -0.927210    18A     -0.883898
      19A     -0.820759    20A     -0.792612    21A     -0.726750
      22A     -0.713807    23A     -0.681514    24A     -0.660231
      25A     -0.642474    26A     -0.630004    27A     -0.608796
      28A     -0.603896    29A     -0.595180    30A     -0.552140
      31A     -0.542565    32A     -0.534032    33A     -0.524804
      34A     -0.514492    35A     -0.497743    36A     -0.489613
      37A     -0.468937    38A     -0.427740    39A     -0.400774

  @DF-RHF Final Energy:  -512.88723078965506

   => Energetics <=

    Nuclear Repulsion Energy =            547.8126433676475244
    One-Electron Energy =               -1787.5848946239548241
    Two-Electron Energy =                 726.8850204666522359
    Total Energy =                       -512.8872307896550637
  Basis Set: (AUG-CC-PVTZ AUX)
    Blend: AUG-CC-PVTZ-RI
    Molecular point group: c1

    Geometry (in Angstrom), charge = 0, multiplicity = 1:

       Center              X                  Y                   Z               Mass
    ------------   -----------------  -----------------  -----------------  -----------------
         O           -2.080323894165    -1.511632626344     0.483617855478    15.994914619570
         O            1.665600105835     1.292589373656    -0.551930144522    15.994914619570
         O           -3.121329894165    -0.101984626344    -0.956096144522    15.994914619570
         N            0.228564105835    -0.273592626344     0.259097855478    14.003074004430
         C           -0.941452894165     0.506745373656    -0.095316144522    12.000000000000
         C           -1.257595894165     1.594338373656     0.938310855478    12.000000000000
         C            2.623438105835    -0.650079626344     0.529318855478    12.000000000000
         C            1.484981605835     0.231679273656     0.012596155478    12.000000000000
         C           -2.152284894165    -0.378736626344    -0.275245144522    12.000000000000
         C            3.844307105835    -0.547902626344    -0.378262144522    12.000000000000
         H           -0.743897894165     0.984108373656    -1.058950144522     1.007825032230
         H            0.097881105835    -1.129194626344     0.783048855478     1.007825032230
         H           -1.455202894165     1.142966373656     1.914485855478     1.007825032230
         H           -0.395558894165     2.259544373656     1.014472855478     1.007825032230
         H           -2.131112894165     2.173306373656     0.626079855478     1.007825032230
         H            2.875216105835    -0.298140626344     1.537692855478     1.007825032230
         H            2.295224105835    -1.690955626344     0.630391855478     1.007825032230
         H            4.132603105835     0.497202373656    -0.496969144522     1.007825032230
         H            4.685640105835    -1.105435626344     0.041516855478     1.007825032230
         H            3.624793105835    -0.951268626344    -1.370024144522     1.007825032230
         H           -2.922767894165    -1.987883626344     0.327679855478     1.007825032230

  Basis Set: AUG-CC-PVTZ
    Blend: AUG-CC-PVTZ
  Basis Set: (AUG-CC-PVTZ AUX)
    Blend: AUG-CC-PVTZ-JKFIT
	 Reference Energy          =    -512.8872307896550637 [Eh]
	 Singles Energy            =      -0.0000000000000000 [Eh]
	 Same-Spin Energy          =      -0.5107619219971764 [Eh]
	 Opposite-Spin Energy      =      -1.6143252165362789 [Eh]
	 Correlation Energy        =      -2.1250871385334555 [Eh]
	 Total Energy              =    -515.0123179281885086 [Eh]

	 ================> DF-SCS-MP2 Energies <==================
	-----------------------------------------------------------
	 SCS Same-Spin Scale       =       0.3333333333333333 [-]
	 SCS Opposite-Spin Scale   =       1.2000000000000000 [-]
	 SCS Same-Spin Energy      =      -0.1702539739990588 [Eh]
	 SCS Opposite-Spin Energy  =      -1.9371902598435347 [Eh]
	 SCS Correlation Energy    =      -2.1074442338425934 [Eh]
	 SCS Total Energy          =    -514.9946750234976207 [Eh]
	-----------------------------------------------------------

  Dipole Moment: [D]
     X:    -0.1391      Y:    -2.9414      Z:     2.5943     Total:     3.9245

*** Psi4 exiting successfully. Buy a developer a beer!
