                               Psi4 1.4a3.dev225

  ==> Input File <==

--------------------------------------------------------------------------
#psi4
#
memory 32 gb

molecule  {
0 1
  O       -2.1439760    -1.5096120     0.4578230
  O        1.6019480     1.2946100    -0.5777250
  O       -3.1849820    -0.0999640    -0.9818910
  N        0.1649120    -0.2715720     0.2333030
  C       -1.0051050     0.5087660    -0.1211110
  C       -1.3212480     1.5963590     0.9125160
  C        2.5597860    -0.6480590     0.5035240
  C        1.4642445     0.2340984    -0.0125921
  C       -2.2159370    -0.3767160    -0.3010400
  C        3.7806550    -0.5458820    -0.4040570
  H       -0.8075500     0.9861290    -1.0847450
  H        0.0342290    -1.1271740     0.7572540
  H       -1.5188550     1.1449870     1.8886910
  H       -0.4592110     2.2615650     0.9886780
  H       -2.1947650     2.1753270     0.6002850
  H        2.8115640    -0.2961200     1.5118980
  H        2.2315720    -1.6889350     0.6045970
  H        4.0689510     0.4992230    -0.5227640
  H        4.6219880    -1.1034150     0.0157220
  H        3.5611410    -0.9492480    -1.3958190
  H       -2.9864200    -1.9858630     0.3018850
units angstrom
no_reorient  #important for SAPT in psi4, default
symmetry c1  #important for SAPT in psi4, default
}

set PROPERTIES_ORIGIN ["COM"]
properties('MP2/aug-cc-pvtz', properties = ['dipole'])
--------------------------------------------------------------------------

    Molecular point group: c1
  Charge       = 0
  Multiplicity = 1
  Basis Set: AUG-CC-PVTZ
    Blend: AUG-CC-PVTZ
  Basis Set: (AUG-CC-PVTZ AUX)
    Blend: AUG-CC-PVTZ-JKFIT

    Orbital Energies [Eh]
    ---------------------

    Doubly Occupied:

       1A    -20.631059     2A    -20.562017     3A    -20.532117
       4A    -15.586267     5A    -11.400550     6A    -11.359883
       7A    -11.291917     8A    -11.249126     9A    -11.230260
      10A    -11.224435    11A     -1.473112    12A     -1.397146
      13A     -1.369543    14A     -1.232924    15A     -1.077173
      16A     -1.034325    17A     -0.924507    18A     -0.888383
      19A     -0.817230    20A     -0.783564    21A     -0.724797
      22A     -0.711381    23A     -0.684258    24A     -0.658120
      25A     -0.643510    26A     -0.631788    27A     -0.609405
      28A     -0.602322    29A     -0.592329    30A     -0.550205
      31A     -0.541673    32A     -0.535172    33A     -0.526987
      34A     -0.515772    35A     -0.498518    36A     -0.489099
      37A     -0.467448    38A     -0.432495    39A     -0.395867

  @DF-RHF Final Energy:  -512.88437487936085

   => Energetics <=

    Nuclear Repulsion Energy =            547.4853368277357504
    One-Electron Energy =               -1786.9860578031941714
    Two-Electron Energy =                 726.6163460960976863
    Total Energy =                       -512.8843748793608484
  Basis Set: (AUG-CC-PVTZ AUX)
    Blend: AUG-CC-PVTZ-RI
    Molecular point group: c1

    Geometry (in Angstrom), charge = 0, multiplicity = 1:

       Center              X                  Y                   Z               Mass
    ------------   -----------------  -----------------  -----------------  -----------------
         O           -2.083873671375    -1.511665588856     0.483567679669    15.994914619570
         O            1.662050328625     1.292556411144    -0.551980320331    15.994914619570
         O           -3.124879671375    -0.102017588856    -0.956146320331    15.994914619570
         N            0.225014328625    -0.273625588856     0.259047679669    14.003074004430
         C           -0.945002671375     0.506712411144    -0.095366320331    12.000000000000
         C           -1.261145671375     1.594305411144     0.938260679669    12.000000000000
         C            2.619888328625    -0.650112588856     0.529268679669    12.000000000000
         C            1.524346828625     0.232044811144     0.013152579669    12.000000000000
         C           -2.155834671375    -0.378769588856    -0.275295320331    12.000000000000
         C            3.840757328625    -0.547935588856    -0.378312320331    12.000000000000
         H           -0.747447671375     0.984075411144    -1.059000320331     1.007825032230
         H            0.094331328625    -1.129227588856     0.782998679669     1.007825032230
         H           -1.458752671375     1.142933411144     1.914435679669     1.007825032230
         H           -0.399108671375     2.259511411144     1.014422679669     1.007825032230
         H           -2.134662671375     2.173273411144     0.626029679669     1.007825032230
         H            2.871666328625    -0.298173588856     1.537642679669     1.007825032230
         H            2.291674328625    -1.690988588856     0.630341679669     1.007825032230
         H            4.129053328625     0.497169411144    -0.497019320331     1.007825032230
         H            4.682090328625    -1.105468588856     0.041466679669     1.007825032230
         H            3.621243328625    -0.951301588856    -1.370074320331     1.007825032230
         H           -2.926317671375    -1.987916588856     0.327629679669     1.007825032230

  Basis Set: AUG-CC-PVTZ
    Blend: AUG-CC-PVTZ
  Basis Set: (AUG-CC-PVTZ AUX)
    Blend: AUG-CC-PVTZ-JKFIT
	 Reference Energy          =    -512.8843748793608484 [Eh]
	 Singles Energy            =      -0.0000000000000000 [Eh]
	 Same-Spin Energy          =      -0.5109625666888319 [Eh]
	 Opposite-Spin Energy      =      -1.6147012395243170 [Eh]
	 Correlation Energy        =      -2.1256638062131490 [Eh]
	 Total Energy              =    -515.0100386855740453 [Eh]

	 ================> DF-SCS-MP2 Energies <==================
	-----------------------------------------------------------
	 SCS Same-Spin Scale       =       0.3333333333333333 [-]
	 SCS Opposite-Spin Scale   =       1.2000000000000000 [-]
	 SCS Same-Spin Energy      =      -0.1703208555629440 [Eh]
	 SCS Opposite-Spin Energy  =      -1.9376414874291803 [Eh]
	 SCS Correlation Energy    =      -2.1079623429921241 [Eh]
	 SCS Total Energy          =    -514.9923372223529441 [Eh]
	-----------------------------------------------------------

  Dipole Moment: [D]
     X:     0.2347      Y:    -2.9085      Z:     2.5664     Total:     3.8860

*** Psi4 exiting successfully. Buy a developer a beer!
