                               Psi4 1.4a3.dev225

  ==> Input File <==

--------------------------------------------------------------------------
#psi4
#
memory 32 gb

molecule  {
0 1
  O       -2.1439760    -1.5096120     0.4578230
  O        1.6019480     1.2946100    -0.5777250
  O       -3.1849820    -0.0999640    -0.9818910
  N        0.1649120    -0.2715720     0.2333030
  C       -1.0051050     0.5087660    -0.1211110
  C       -1.3212480     1.5963590     0.9125160
  C        2.5597860    -0.6480590     0.5035240
  C        1.4183570     0.2162400    -0.0039080
  C       -2.2169910    -0.3601225    -0.3121551
  C        3.7806550    -0.5458820    -0.4040570
  H       -0.8075500     0.9861290    -1.0847450
  H        0.0342290    -1.1271740     0.7572540
  H       -1.5188550     1.1449870     1.8886910
  H       -0.4592110     2.2615650     0.9886780
  H       -2.1947650     2.1753270     0.6002850
  H        2.8115640    -0.2961200     1.5118980
  H        2.2315720    -1.6889350     0.6045970
  H        4.0689510     0.4992230    -0.5227640
  H        4.6219880    -1.1034150     0.0157220
  H        3.5611410    -0.9492480    -1.3958190
  H       -2.9864200    -1.9858630     0.3018850
units angstrom
no_reorient  #important for SAPT in psi4, default
symmetry c1  #important for SAPT in psi4, default
}

set PROPERTIES_ORIGIN ["COM"]
properties('MP2/aug-cc-pvtz', properties = ['dipole'])
--------------------------------------------------------------------------

    Molecular point group: c1
  Charge       = 0
  Multiplicity = 1
  Basis Set: AUG-CC-PVTZ
    Blend: AUG-CC-PVTZ
  Basis Set: (AUG-CC-PVTZ AUX)
    Blend: AUG-CC-PVTZ-JKFIT

    Orbital Energies [Eh]
    ---------------------

    Doubly Occupied:

       1A    -20.628564     2A    -20.568315     3A    -20.522949
       4A    -15.596150     5A    -11.403707     6A    -11.357154
       7A    -11.296894     8A    -11.247825     9A    -11.234059
      10A    -11.221907    11A     -1.471688    12A     -1.379915
      13A     -1.374676    14A     -1.246186    15A     -1.077054
      16A     -1.038303    17A     -0.928328    18A     -0.885642
      19A     -0.818459    20A     -0.793588    21A     -0.727579
      22A     -0.712988    23A     -0.680314    24A     -0.659277
      25A     -0.642252    26A     -0.629224    27A     -0.610927
      28A     -0.600751    29A     -0.593520    30A     -0.552905
      31A     -0.542328    32A     -0.534896    33A     -0.523687
      34A     -0.514412    35A     -0.499874    36A     -0.489172
      37A     -0.469900    38A     -0.427772    39A     -0.401071

  @DF-RHF Final Energy:  -512.88610171588437

   => Energetics <=

    Nuclear Repulsion Energy =            547.7359377498708000
    One-Electron Energy =               -1787.4356595492449742
    Two-Electron Energy =                 726.8136200834898091
    Total Energy =                       -512.8861017158843651
  Basis Set: (AUG-CC-PVTZ AUX)
    Blend: AUG-CC-PVTZ-RI
    Molecular point group: c1

    Geometry (in Angstrom), charge = 0, multiplicity = 1:

       Center              X                  Y                   Z               Mass
    ------------   -----------------  -----------------  -----------------  -----------------
         O           -2.079990836308    -1.511560960796     0.483768763402    15.994914619570
         O            1.665933163692     1.292661039204    -0.551779236598    15.994914619570
         O           -3.120996836308    -0.101912960796    -0.955945236598    15.994914619570
         N            0.228897163692    -0.273520960796     0.259248763402    14.003074004430
         C           -0.941119836308     0.506817039204    -0.095165236598    12.000000000000
         C           -1.257262836308     1.594410039204     0.938461763402    12.000000000000
         C            2.623771163692    -0.650007960796     0.529469763402    12.000000000000
         C            1.482342163692     0.214291039204     0.022037763402    12.000000000000
         C           -2.153005836308    -0.362071460796    -0.286209336598    12.000000000000
         C            3.844640163692    -0.547830960796    -0.378111236598    12.000000000000
         H           -0.743564836308     0.984180039204    -1.058799236598     1.007825032230
         H            0.098214163692    -1.129122960796     0.783199763402     1.007825032230
         H           -1.454869836308     1.143038039204     1.914636763402     1.007825032230
         H           -0.395225836308     2.259616039204     1.014623763402     1.007825032230
         H           -2.130779836308     2.173378039204     0.626230763402     1.007825032230
         H            2.875549163692    -0.298068960796     1.537843763402     1.007825032230
         H            2.295557163692    -1.690883960796     0.630542763402     1.007825032230
         H            4.132936163692     0.497274039204    -0.496818236598     1.007825032230
         H            4.685973163692    -1.105363960796     0.041667763402     1.007825032230
         H            3.625126163692    -0.951196960796    -1.369873236598     1.007825032230
         H           -2.922434836308    -1.987811960796     0.327830763402     1.007825032230

  Basis Set: AUG-CC-PVTZ
    Blend: AUG-CC-PVTZ
  Basis Set: (AUG-CC-PVTZ AUX)
    Blend: AUG-CC-PVTZ-JKFIT
	 Reference Energy          =    -512.8861017158843651 [Eh]
	 Singles Energy            =      -0.0000000000000000 [Eh]
	 Same-Spin Energy          =      -0.5111340861448901 [Eh]
	 Opposite-Spin Energy      =      -1.6151436305101372 [Eh]
	 Correlation Energy        =      -2.1262777166550273 [Eh]
	 Total Energy              =    -515.0123794325394329 [Eh]

	 ================> DF-SCS-MP2 Energies <==================
	-----------------------------------------------------------
	 SCS Same-Spin Scale       =       0.3333333333333333 [-]
	 SCS Opposite-Spin Scale   =       1.2000000000000000 [-]
	 SCS Same-Spin Energy      =      -0.1703780287149634 [Eh]
	 SCS Opposite-Spin Energy  =      -1.9381723566121645 [Eh]
	 SCS Correlation Energy    =      -2.1085503853271277 [Eh]
	 SCS Total Energy          =    -514.9946521012114999 [Eh]
	-----------------------------------------------------------

  Dipole Moment: [D]
     X:    -0.2284      Y:    -2.9099      Z:     2.5620     Total:     3.8837

*** Psi4 exiting successfully. Buy a developer a beer!
