                               Psi4 1.3.2 release

  ==> Input File <==

--------------------------------------------------------------------------
#psi4
#
memory 32 gb

molecule  {
0 1
  O       -1.9705880     1.6613530    -0.1848000
  O        1.6688240    -1.2224340     0.6437850
  O       -3.2913740    -0.0479250     0.4948630
  N        0.2140730     0.2683100    -0.2698780
  C       -0.9510770    -0.4970410     0.1176100
  C       -1.1968270    -1.6816620    -0.8184860
  C        2.5789920     0.8068070    -0.3378900
  C        1.4682490    -0.1481810     0.0706060
  C       -2.1908320     0.3658730     0.1844680
  C        3.9506640     0.3320720     0.1153760
  H       -0.7533871    -0.9612660     1.3130998
  H        0.0750270     1.1966100    -0.6451490
  H       -1.3515420    -1.3283180    -1.8408860
  H       -0.3238960    -2.3346980    -0.7915570
  H       -2.0788080    -2.2361410    -0.4923840
  H        2.5479870     0.9167430    -1.4288930
  H        2.3554820     1.7990610     0.0733550
  H        4.1782080    -0.6474400    -0.3069900
  H        4.7194550     1.0404130    -0.2050590
  H        3.9903360     0.2413970     1.2016820
  H       -2.8462050     2.0977190    -0.1239210
units angstrom
no_reorient  #important for SAPT in psi4, default
symmetry c1  #important for SAPT in psi4, default
}

set PROPERTIES_ORIGIN ["COM"]
properties('MP2/aug-cc-pvtz', properties = ['dipole'])
--------------------------------------------------------------------------

    Molecular point group: c1
  Charge       = 0
  Multiplicity = 1
  Basis Set: AUG-CC-PVTZ
    Blend: AUG-CC-PVTZ
  Basis Set: (AUG-CC-PVTZ AUX)
    Blend: AUG-CC-PVTZ-JKFIT

    Orbital Energies [Eh]
    ---------------------

    Doubly Occupied:

       1A    -20.636625     2A    -20.563453     3A    -20.525186
       4A    -15.593814     5A    -11.406065     6A    -11.356233
       7A    -11.316321     8A    -11.247698     9A    -11.228178
      10A    -11.219868    11A     -1.478347    12A     -1.380807
      13A     -1.373091    14A     -1.245896    15A     -1.072880
      16A     -1.033633    17A     -0.928310    18A     -0.886252
      19A     -0.804444    20A     -0.792050    21A     -0.731480
      22A     -0.714312    23A     -0.681069    24A     -0.659866
      25A     -0.641612    26A     -0.629044    27A     -0.607401
      28A     -0.598212    29A     -0.581474    30A     -0.547316
      31A     -0.543347    32A     -0.524992    33A     -0.520546
      34A     -0.511355    35A     -0.497592    36A     -0.483264
      37A     -0.463077    38A     -0.428429    39A     -0.398738

  @DF-RHF Final Energy:  -512.86511421409057

   => Energetics <=

    Nuclear Repulsion Energy =            547.0471699482159238
    One-Electron Energy =               -1786.1200165199895764
    Two-Electron Energy =                 726.2077323576830850
    Total Energy =                       -512.8651142140905677
  Basis Set: (AUG-CC-PVTZ AUX)
    Blend: AUG-CC-PVTZ-RI
    Molecular point group: c1

    Geometry (in Angstrom), charge = 0, multiplicity = 1:

       Center              X                  Y                   Z               Mass
    ------------   -----------------  -----------------  -----------------  -----------------
         O           -1.970799556424     1.661850078740    -0.186080009521    15.994914619570
         O            1.668612443576    -1.221936921260     0.642504990479    15.994914619570
         O           -3.291585556424    -0.047427921260     0.493582990479    15.994914619570
         N            0.213861443576     0.268807078740    -0.271158009521    14.003074004430
         C           -0.951288556424    -0.496543921260     0.116329990479    12.000000000000
         C           -1.197038556424    -1.681164921260    -0.819766009521    12.000000000000
         C            2.578780443576     0.807304078740    -0.339170009521    12.000000000000
         C            1.468037443576    -0.147683921260     0.069325990479    12.000000000000
         C           -2.191043556424     0.366370078740     0.183187990479    12.000000000000
         C            3.950452443576     0.332569078740     0.114095990479    12.000000000000
         H           -0.753598656424    -0.960768921260     1.311819790479     1.007825032230
         H            0.074815443576     1.197107078740    -0.646429009521     1.007825032230
         H           -1.351753556424    -1.327820921260    -1.842166009521     1.007825032230
         H           -0.324107556424    -2.334200921260    -0.792837009521     1.007825032230
         H           -2.079019556424    -2.235643921260    -0.493664009521     1.007825032230
         H            2.547775443576     0.917240078740    -1.430173009521     1.007825032230
         H            2.355270443576     1.799558078740     0.072074990479     1.007825032230
         H            4.177996443576    -0.646942921260    -0.308270009521     1.007825032230
         H            4.719243443576     1.040910078740    -0.206339009521     1.007825032230
         H            3.990124443576     0.241894078740     1.200401990479     1.007825032230
         H           -2.846416556424     2.098216078740    -0.125201009521     1.007825032230

  Basis Set: AUG-CC-PVTZ
    Blend: AUG-CC-PVTZ
  Basis Set: (AUG-CC-PVTZ AUX)
    Blend: AUG-CC-PVTZ-JKFIT
	 Reference Energy          =    -512.8651142140905677 [Eh]
	 Singles Energy            =      -0.0000000000000000 [Eh]
	 Same-Spin Energy          =      -0.5120183714713239 [Eh]
	 Opposite-Spin Energy      =      -1.6171398043404928 [Eh]
	 Correlation Energy        =      -2.1291581758118165 [Eh]
	 Total Energy              =    -514.9942723899023349 [Eh]

	 ================> DF-SCS-MP2 Energies <==================
	-----------------------------------------------------------
	 SCS Same-Spin Scale       =       0.3333333333333333 [-]
	 SCS Opposite-Spin Scale   =       1.2000000000000000 [-]
	 SCS Same-Spin Energy      =      -0.1706727904904413 [Eh]
	 SCS Opposite-Spin Energy  =      -1.9405677652085913 [Eh]
	 SCS Correlation Energy    =      -2.1112405556990326 [Eh]
	 SCS Total Energy          =    -514.9763547697896229 [Eh]
	-----------------------------------------------------------

  Dipole Moment: [D]
     X:    -0.0120      Y:     3.3533      Z:    -1.8952     Total:     3.8518

*** Psi4 exiting successfully. Buy a developer a beer!
