                               Psi4 1.3.2 release

  ==> Input File <==

--------------------------------------------------------------------------
#psi4
#
memory 32 gb

molecule  {
0 1
  O       -1.9705880     1.6613530    -0.1848000
  O        1.6688240    -1.2224340     0.6437850
  O       -3.2913740    -0.0479250     0.4948630
  N        0.2140730     0.2683100    -0.2698780
  C       -0.8794255    -0.5283250     0.1349634
  C       -1.1968270    -1.6816620    -0.8184860
  C        2.5789920     0.8068070    -0.3378900
  C        1.4682490    -0.1481810     0.0706060
  C       -2.1908320     0.3658730     0.1844680
  C        3.9506640     0.3320720     0.1153760
  H       -0.7838570    -0.8897150     1.1288390
  H        0.0750270     1.1966100    -0.6451490
  H       -1.3515420    -1.3283180    -1.8408860
  H       -0.2999817    -2.2986972    -0.7542538
  H       -2.0788080    -2.2361410    -0.4923840
  H        2.5479870     0.9167430    -1.4288930
  H        2.3554820     1.7990610     0.0733550
  H        4.1782080    -0.6474400    -0.3069900
  H        4.7194550     1.0404130    -0.2050590
  H        3.9903360     0.2413970     1.2016820
  H       -2.8462050     2.0977190    -0.1239210
units angstrom
no_reorient  #important for SAPT in psi4, default
symmetry c1  #important for SAPT in psi4, default
}

set PROPERTIES_ORIGIN ["COM"]
properties('MP2/aug-cc-pvtz', properties = ['dipole'])
--------------------------------------------------------------------------

    Molecular point group: c1
  Charge       = 0
  Multiplicity = 1
  Basis Set: AUG-CC-PVTZ
    Blend: AUG-CC-PVTZ
  Basis Set: (AUG-CC-PVTZ AUX)
    Blend: AUG-CC-PVTZ-JKFIT

    Orbital Energies [Eh]
    ---------------------

    Doubly Occupied:

       1A    -20.634585     2A    -20.562833     3A    -20.526922
       4A    -15.593131     5A    -11.403262     6A    -11.356945
       7A    -11.296643     8A    -11.248105     9A    -11.224634
      10A    -11.220332    11A     -1.475034    12A     -1.384443
      13A     -1.370873    14A     -1.254526    15A     -1.073820
      16A     -1.032585    17A     -0.922054    18A     -0.882639
      19A     -0.822283    20A     -0.794540    21A     -0.729050
      22A     -0.712704    23A     -0.686578    24A     -0.663758
      25A     -0.642700    26A     -0.636218    27A     -0.606989
      28A     -0.605706    29A     -0.588495    30A     -0.547683
      31A     -0.534223    32A     -0.527615    33A     -0.525630
      34A     -0.521015    35A     -0.497295    36A     -0.490123
      37A     -0.458914    38A     -0.429709    39A     -0.400586

  @DF-RHF Final Energy:  -512.87945351830922

   => Energetics <=

    Nuclear Repulsion Energy =            548.1061456719718308
    One-Electron Energy =               -1788.2008413742871653
    Two-Electron Energy =                 727.2152421840060015
    Total Energy =                       -512.8794535183092194
  Basis Set: (AUG-CC-PVTZ AUX)
    Blend: AUG-CC-PVTZ-RI
    Molecular point group: c1

    Geometry (in Angstrom), charge = 0, multiplicity = 1:

       Center              X                  Y                   Z               Mass
    ------------   -----------------  -----------------  -----------------  -----------------
         O           -1.976680773804     1.663690620810    -0.186494510371    15.994914619570
         O            1.662731226196    -1.220096379190     0.642090489629    15.994914619570
         O           -3.297466773804    -0.045587379190     0.493168489629    15.994914619570
         N            0.207980226196     0.270647620810    -0.271572510371    14.003074004430
         C           -0.885518273804    -0.525987379190     0.133268889629    12.000000000000
         C           -1.202919773804    -1.679324379190    -0.820180510371    12.000000000000
         C            2.572899226196     0.809144620810    -0.339584510371    12.000000000000
         C            1.462156226196    -0.145843379190     0.068911489629    12.000000000000
         C           -2.196924773804     0.368210620810     0.182773489629    12.000000000000
         C            3.944571226196     0.334409620810     0.113681489629    12.000000000000
         H           -0.789949773804    -0.887377379190     1.127144489629     1.007825032230
         H            0.068934226196     1.198947620810    -0.646843510371     1.007825032230
         H           -1.357634773804    -1.325980379190    -1.842580510371     1.007825032230
         H           -0.306074473804    -2.296359579190    -0.755948310371     1.007825032230
         H           -2.084900773804    -2.233803379190    -0.494078510371     1.007825032230
         H            2.541894226196     0.919080620810    -1.430587510371     1.007825032230
         H            2.349389226196     1.801398620810     0.071660489629     1.007825032230
         H            4.172115226196    -0.645102379190    -0.308684510371     1.007825032230
         H            4.713362226196     1.042750620810    -0.206753510371     1.007825032230
         H            3.984243226196     0.243734620810     1.199987489629     1.007825032230
         H           -2.852297773804     2.100056620810    -0.125615510371     1.007825032230

  Basis Set: AUG-CC-PVTZ
    Blend: AUG-CC-PVTZ
  Basis Set: (AUG-CC-PVTZ AUX)
    Blend: AUG-CC-PVTZ-JKFIT
	 Reference Energy          =    -512.8794535183092194 [Eh]
	 Singles Energy            =      -0.0000000000000000 [Eh]
	 Same-Spin Energy          =      -0.5113967388958305 [Eh]
	 Opposite-Spin Energy      =      -1.6149291569816433 [Eh]
	 Correlation Energy        =      -2.1263258958774740 [Eh]
	 Total Energy              =    -515.0057794141866907 [Eh]

	 ================> DF-SCS-MP2 Energies <==================
	-----------------------------------------------------------
	 SCS Same-Spin Scale       =       0.3333333333333333 [-]
	 SCS Opposite-Spin Scale   =       1.2000000000000000 [-]
	 SCS Same-Spin Energy      =      -0.1704655796319435 [Eh]
	 SCS Opposite-Spin Energy  =      -1.9379149883779718 [Eh]
	 SCS Correlation Energy    =      -2.1083805680099155 [Eh]
	 SCS Total Energy          =    -514.9878340863191397 [Eh]
	-----------------------------------------------------------

  Dipole Moment: [D]
     X:     0.0152      Y:     3.4220      Z:    -1.8378     Total:     3.8843

*** Psi4 exiting successfully. Buy a developer a beer!
