                               Psi4 1.3.2 release

  ==> Input File <==

--------------------------------------------------------------------------
#psi4
#
memory 32 gb

molecule  {
0 1
  O       -1.9705880     1.6613530    -0.1848000
  O        1.6688240    -1.2224340     0.6437850
  O       -3.2913740    -0.0479250     0.4948630
  N        0.2140730     0.2683100    -0.2698780
  C       -0.9941577    -0.4452273     0.0830053
  C       -1.1968270    -1.6816620    -0.8184860
  C        2.5789920     0.8068070    -0.3378900
  C        1.4943729    -0.0906479     0.0372585
  C       -2.1908320     0.3658730     0.1844680
  C        3.9506640     0.3320720     0.1153760
  H       -0.7838570    -0.8897150     1.1288390
  H        0.0750270     1.1966100    -0.6451490
  H       -1.3515420    -1.3283180    -1.8408860
  H       -0.3238960    -2.3346980    -0.7915570
  H       -2.0788080    -2.2361410    -0.4923840
  H        2.5479870     0.9167430    -1.4288930
  H        2.3554820     1.7990610     0.0733550
  H        4.1782080    -0.6474400    -0.3069900
  H        4.7194550     1.0404130    -0.2050590
  H        3.9903360     0.2413970     1.2016820
  H       -2.8462050     2.0977190    -0.1239210
units angstrom
no_reorient  #important for SAPT in psi4, default
symmetry c1  #important for SAPT in psi4, default
}

set PROPERTIES_ORIGIN ["COM"]
properties('MP2/aug-cc-pvtz', properties = ['dipole'])
--------------------------------------------------------------------------

    Molecular point group: c1
  Charge       = 0
  Multiplicity = 1
  Basis Set: AUG-CC-PVTZ
    Blend: AUG-CC-PVTZ
  Basis Set: (AUG-CC-PVTZ AUX)
    Blend: AUG-CC-PVTZ-JKFIT

    Orbital Energies [Eh]
    ---------------------

    Doubly Occupied:

       1A    -20.636611     2A    -20.565079     3A    -20.516349
       4A    -15.597212     5A    -11.406177     6A    -11.362075
       7A    -11.299937     8A    -11.251035     9A    -11.229117
      10A    -11.223164    11A     -1.481010    12A     -1.375281
      13A     -1.348636    14A     -1.238695    15A     -1.088279
      16A     -1.044116    17A     -0.936064    18A     -0.901267
      19A     -0.812309    20A     -0.791735    21A     -0.737997
      22A     -0.715296    23A     -0.685919    24A     -0.668536
      25A     -0.647277    26A     -0.627638    27A     -0.611343
      28A     -0.592192    29A     -0.569797    30A     -0.551471
      31A     -0.544785    32A     -0.528294    33A     -0.518395
      34A     -0.516754    35A     -0.499117    36A     -0.475583
      37A     -0.470727    38A     -0.428067    39A     -0.392674

  @DF-RHF Final Energy:  -512.86452414734390

   => Energetics <=

    Nuclear Repulsion Energy =            548.0115539108170424
    One-Electron Energy =               -1787.9801287120360485
    Two-Electron Energy =                 727.1040506538749923
    Total Energy =                       -512.8645241473439000
  Basis Set: (AUG-CC-PVTZ AUX)
    Blend: AUG-CC-PVTZ-RI
    Molecular point group: c1

    Geometry (in Angstrom), charge = 0, multiplicity = 1:

       Center              X                  Y                   Z               Mass
    ------------   -----------------  -----------------  -----------------  -----------------
         O           -1.969185276124     1.652308234524    -0.179179187984    15.994914619570
         O            1.670226723876    -1.231478765476     0.649405812016    15.994914619570
         O           -3.289971276124    -0.056969765476     0.500483812016    15.994914619570
         N            0.215475723876     0.259265234524    -0.264257187984    14.003074004430
         C           -0.992754976124    -0.454272065476     0.088626112016    12.000000000000
         C           -1.195424276124    -1.690706765476    -0.812865187984    12.000000000000
         C            2.580394723876     0.797762234524    -0.332269187984    12.000000000000
         C            1.495775623876    -0.099692665476     0.042879312016    12.000000000000
         C           -2.189429276124     0.356828234524     0.190088812016    12.000000000000
         C            3.952066723876     0.323027234524     0.120996812016    12.000000000000
         H           -0.782454276124    -0.898759765476     1.134459812016     1.007825032230
         H            0.076429723876     1.187565234524    -0.639528187984     1.007825032230
         H           -1.350139276124    -1.337362765476    -1.835265187984     1.007825032230
         H           -0.322493276124    -2.343742765476    -0.785936187984     1.007825032230
         H           -2.077405276124    -2.245185765476    -0.486763187984     1.007825032230
         H            2.549389723876     0.907698234524    -1.423272187984     1.007825032230
         H            2.356884723876     1.790016234524     0.078975812016     1.007825032230
         H            4.179610723876    -0.656484765476    -0.301369187984     1.007825032230
         H            4.720857723876     1.031368234524    -0.199438187984     1.007825032230
         H            3.991738723876     0.232352234524     1.207302812016     1.007825032230
         H           -2.844802276124     2.088674234524    -0.118300187984     1.007825032230

  Basis Set: AUG-CC-PVTZ
    Blend: AUG-CC-PVTZ
  Basis Set: (AUG-CC-PVTZ AUX)
    Blend: AUG-CC-PVTZ-JKFIT
	 Reference Energy          =    -512.8645241473439000 [Eh]
	 Singles Energy            =      -0.0000000000000000 [Eh]
	 Same-Spin Energy          =      -0.5139463489624997 [Eh]
	 Opposite-Spin Energy      =      -1.6196207910961937 [Eh]
	 Correlation Energy        =      -2.1335671400586933 [Eh]
	 Total Energy              =    -514.9980912874026444 [Eh]

	 ================> DF-SCS-MP2 Energies <==================
	-----------------------------------------------------------
	 SCS Same-Spin Scale       =       0.3333333333333333 [-]
	 SCS Opposite-Spin Scale   =       1.2000000000000000 [-]
	 SCS Same-Spin Energy      =      -0.1713154496541666 [Eh]
	 SCS Opposite-Spin Energy  =      -1.9435449493154324 [Eh]
	 SCS Correlation Energy    =      -2.1148603989695989 [Eh]
	 SCS Total Energy          =    -514.9793845463135540 [Eh]
	-----------------------------------------------------------

  Dipole Moment: [D]
     X:     0.0276      Y:     3.6122      Z:    -2.0298     Total:     4.1435

*** Psi4 exiting successfully. Buy a developer a beer!
