                               Psi4 1.3.2 release

  ==> Input File <==

--------------------------------------------------------------------------
#psi4
#
memory 32 gb

molecule  {
0 1
  O       -1.9705880     1.6613530    -0.1848000
  O        1.6794155    -1.2204961     0.6436096
  O       -3.2913740    -0.0479250     0.4948630
  N        0.2140730     0.2683100    -0.2698780
  C       -0.9510770    -0.4970410     0.1176100
  C       -1.1968270    -1.6816620    -0.8184860
  C        2.5879669     0.7984353    -0.3328422
  C        1.4682490    -0.1481810     0.0706060
  C       -2.1908320     0.3658730     0.1844680
  C        3.9506640     0.3320720     0.1153760
  H       -0.7838570    -0.8897150     1.1288390
  H        0.0750270     1.1966100    -0.6451490
  H       -1.3515420    -1.3283180    -1.8408860
  H       -0.3238960    -2.3346980    -0.7915570
  H       -2.0788080    -2.2361410    -0.4923840
  H        2.5479870     0.9167430    -1.4288930
  H        2.3554820     1.7990610     0.0733550
  H        4.1782080    -0.6474400    -0.3069900
  H        4.7194550     1.0404130    -0.2050590
  H        3.9903360     0.2413970     1.2016820
  H       -2.8462050     2.0977190    -0.1239210
units angstrom
no_reorient  #important for SAPT in psi4, default
symmetry c1  #important for SAPT in psi4, default
}

set PROPERTIES_ORIGIN ["COM"]
properties('MP2/aug-cc-pvtz', properties = ['dipole'])
--------------------------------------------------------------------------

    Molecular point group: c1
  Charge       = 0
  Multiplicity = 1
  Basis Set: AUG-CC-PVTZ
    Blend: AUG-CC-PVTZ
  Basis Set: (AUG-CC-PVTZ AUX)
    Blend: AUG-CC-PVTZ-JKFIT

    Orbital Energies [Eh]
    ---------------------

    Doubly Occupied:

       1A    -20.636874     2A    -20.564879     3A    -20.524404
       4A    -15.592311     5A    -11.406066     6A    -11.355834
       7A    -11.297680     8A    -11.247430     9A    -11.227167
      10A    -11.218685    11A     -1.478933    12A     -1.380363
      13A     -1.374106    14A     -1.246729    15A     -1.075801
      16A     -1.037042    17A     -0.928623    18A     -0.885636
      19A     -0.817228    20A     -0.792513    21A     -0.730878
      22A     -0.715032    23A     -0.682998    24A     -0.666351
      25A     -0.640453    26A     -0.633945    27A     -0.610990
      28A     -0.602832    29A     -0.581306    30A     -0.548081
      31A     -0.545071    32A     -0.526894    33A     -0.521069
      34A     -0.519355    35A     -0.496821    36A     -0.487136
      37A     -0.468764    38A     -0.427612    39A     -0.400564

  @DF-RHF Final Energy:  -512.88575087262996

   => Energetics <=

    Nuclear Repulsion Energy =            548.0121643182940261
    One-Electron Energy =               -1788.0069183038024221
    Two-Electron Energy =                 727.1090031128784403
    Total Energy =                       -512.8857508726299557
  Basis Set: (AUG-CC-PVTZ AUX)
    Blend: AUG-CC-PVTZ-RI
    Molecular point group: c1

    Geometry (in Angstrom), charge = 0, multiplicity = 1:

       Center              X                  Y                   Z               Mass
    ------------   -----------------  -----------------  -----------------  -----------------
         O           -1.972498005434     1.661831832632    -0.185198151649    15.994914619570
         O            1.677505494566    -1.220017267368     0.643211448351    15.994914619570
         O           -3.293284005434    -0.047446167368     0.494464848351    15.994914619570
         N            0.212162994566     0.268788832632    -0.270276151649    14.003074004430
         C           -0.952987005434    -0.496562167368     0.117211848351    12.000000000000
         C           -1.198737005434    -1.681183167368    -0.818884151649    12.000000000000
         C            2.586056894566     0.798914132632    -0.333240351649    12.000000000000
         C            1.466338994566    -0.147702167368     0.070207848351    12.000000000000
         C           -2.192742005434     0.366351832632     0.184069848351    12.000000000000
         C            3.948753994566     0.332550832632     0.114977848351    12.000000000000
         H           -0.785767005434    -0.889236167368     1.128440848351     1.007825032230
         H            0.073116994566     1.197088832632    -0.645547151649     1.007825032230
         H           -1.353452005434    -1.327839167368    -1.841284151649     1.007825032230
         H           -0.325806005434    -2.334219167368    -0.791955151649     1.007825032230
         H           -2.080718005434    -2.235662167368    -0.492782151649     1.007825032230
         H            2.546076994566     0.917221832632    -1.429291151649     1.007825032230
         H            2.353571994566     1.799539832632     0.072956848351     1.007825032230
         H            4.176297994566    -0.646961167368    -0.307388151649     1.007825032230
         H            4.717544994566     1.040891832632    -0.205457151649     1.007825032230
         H            3.988425994566     0.241875832632     1.201283848351     1.007825032230
         H           -2.848115005434     2.098197832632    -0.124319151649     1.007825032230

  Basis Set: AUG-CC-PVTZ
    Blend: AUG-CC-PVTZ
  Basis Set: (AUG-CC-PVTZ AUX)
    Blend: AUG-CC-PVTZ-JKFIT
	 Reference Energy          =    -512.8857508726299557 [Eh]
	 Singles Energy            =      -0.0000000000000000 [Eh]
	 Same-Spin Energy          =      -0.5113719591546845 [Eh]
	 Opposite-Spin Energy      =      -1.6149575281677286 [Eh]
	 Correlation Energy        =      -2.1263294873224132 [Eh]
	 Total Energy              =    -515.0120803599523924 [Eh]

	 ================> DF-SCS-MP2 Energies <==================
	-----------------------------------------------------------
	 SCS Same-Spin Scale       =       0.3333333333333333 [-]
	 SCS Opposite-Spin Scale   =       1.2000000000000000 [-]
	 SCS Same-Spin Energy      =      -0.1704573197182281 [Eh]
	 SCS Opposite-Spin Energy  =      -1.9379490338012744 [Eh]
	 SCS Correlation Energy    =      -2.1084063535195026 [Eh]
	 SCS Total Energy          =    -514.9941572261494684 [Eh]
	-----------------------------------------------------------

  Dipole Moment: [D]
     X:    -0.1238      Y:     3.3586      Z:    -1.8580     Total:     3.8403

*** Psi4 exiting successfully. Buy a developer a beer!
