                               Psi4 1.3.2 release

  ==> Input File <==

--------------------------------------------------------------------------
#psi4
#
memory 32 gb

molecule  {
0 1
  O       -2.0397134     1.6746451    -0.1724822
  O        1.6688240    -1.2224340     0.6437850
  O       -3.2913740    -0.0479250     0.4948630
  N        0.2140730     0.2683100    -0.2698780
  C       -0.9947888    -0.5581433     0.1425456
  C       -1.1968270    -1.6816620    -0.8184860
  C        2.5789920     0.8068070    -0.3378900
  C        1.4682490    -0.1481810     0.0706060
  C       -2.1908320     0.3658730     0.1844680
  C        3.9506640     0.3320720     0.1153760
  H       -0.7838570    -0.8897150     1.1288390
  H        0.0750270     1.1966100    -0.6451490
  H       -1.3515420    -1.3283180    -1.8408860
  H       -0.3238960    -2.3346980    -0.7915570
  H       -2.0788080    -2.2361410    -0.4923840
  H        2.5479870     0.9167430    -1.4288930
  H        2.3554820     1.7990610     0.0733550
  H        4.1782080    -0.6474400    -0.3069900
  H        4.7194550     1.0404130    -0.2050590
  H        3.9903360     0.2413970     1.2016820
  H       -2.8462050     2.0977190    -0.1239210
units angstrom
no_reorient  #important for SAPT in psi4, default
symmetry c1  #important for SAPT in psi4, default
}

set PROPERTIES_ORIGIN ["COM"]
properties('MP2/aug-cc-pvtz', properties = ['dipole'])
--------------------------------------------------------------------------

    Molecular point group: c1
  Charge       = 0
  Multiplicity = 1
  Basis Set: AUG-CC-PVTZ
    Blend: AUG-CC-PVTZ
  Basis Set: (AUG-CC-PVTZ AUX)
    Blend: AUG-CC-PVTZ-JKFIT

    Orbital Energies [Eh]
    ---------------------

    Doubly Occupied:

       1A    -20.628945     2A    -20.562069     3A    -20.522239
       4A    -15.589689     5A    -11.406727     6A    -11.353427
       7A    -11.303840     8A    -11.245611     9A    -11.228999
      10A    -11.218481    11A     -1.487181    12A     -1.377148
      13A     -1.376052    14A     -1.232333    15A     -1.079938
      16A     -1.039679    17A     -0.934572    18A     -0.884953
      19A     -0.833216    20A     -0.786764    21A     -0.729050
      22A     -0.716104    23A     -0.678912    24A     -0.669430
      25A     -0.640252    26A     -0.635367    27A     -0.612689
      28A     -0.602428    29A     -0.581936    30A     -0.553869
      31A     -0.544811    32A     -0.527569    33A     -0.518850
      34A     -0.517419    35A     -0.495870    36A     -0.489887
      37A     -0.468839    38A     -0.425310    39A     -0.402260

  @DF-RHF Final Energy:  -512.87986662956860

   => Energetics <=

    Nuclear Repulsion Energy =            546.8291215002342369
    One-Electron Energy =               -1785.6125424842196026
    Two-Electron Energy =                 725.9035543544166558
    Total Energy =                       -512.8798666295685962
  Basis Set: (AUG-CC-PVTZ AUX)
    Blend: AUG-CC-PVTZ-RI
    Molecular point group: c1

    Geometry (in Angstrom), charge = 0, multiplicity = 1:

       Center              X                  Y                   Z               Mass
    ------------   -----------------  -----------------  -----------------  -----------------
         O           -2.028476274913     1.678233780520    -0.175902820114    15.994914619570
         O            1.680061125087    -1.218845319480     0.640364379886    15.994914619570
         O           -3.280136874913    -0.044336319480     0.491442379886    15.994914619570
         N            0.225310125087     0.271898680520    -0.273298620114    14.003074004430
         C           -0.983551674913    -0.554554619480     0.139124979886    12.000000000000
         C           -1.185589874913    -1.678073319480    -0.821906620114    12.000000000000
         C            2.590229125087     0.810395680520    -0.341310620114    12.000000000000
         C            1.479486125087    -0.144592319480     0.067185379886    12.000000000000
         C           -2.179594874913     0.369461680520     0.181047379886    12.000000000000
         C            3.961901125087     0.335660680520     0.111955379886    12.000000000000
         H           -0.772619874913    -0.886126319480     1.125418379886     1.007825032230
         H            0.086264125087     1.200198680520    -0.648569620114     1.007825032230
         H           -1.340304874913    -1.324729319480    -1.844306620114     1.007825032230
         H           -0.312658874913    -2.331109319480    -0.794977620114     1.007825032230
         H           -2.067570874913    -2.232552319480    -0.495804620114     1.007825032230
         H            2.559224125087     0.920331680520    -1.432313620114     1.007825032230
         H            2.366719125087     1.802649680520     0.069934379886     1.007825032230
         H            4.189445125087    -0.643851319480    -0.310410620114     1.007825032230
         H            4.730692125087     1.044001680520    -0.208479620114     1.007825032230
         H            4.001573125087     0.244985680520     1.198261379886     1.007825032230
         H           -2.834967874913     2.101307680520    -0.127341620114     1.007825032230

  Basis Set: AUG-CC-PVTZ
    Blend: AUG-CC-PVTZ
  Basis Set: (AUG-CC-PVTZ AUX)
    Blend: AUG-CC-PVTZ-JKFIT
	 Reference Energy          =    -512.8798666295685962 [Eh]
	 Singles Energy            =      -0.0000000000000000 [Eh]
	 Same-Spin Energy          =      -0.5096542288725867 [Eh]
	 Opposite-Spin Energy      =      -1.6123329677368734 [Eh]
	 Correlation Energy        =      -2.1219871966094601 [Eh]
	 Total Energy              =    -515.0018538261780350 [Eh]

	 ================> DF-SCS-MP2 Energies <==================
	-----------------------------------------------------------
	 SCS Same-Spin Scale       =       0.3333333333333333 [-]
	 SCS Opposite-Spin Scale   =       1.2000000000000000 [-]
	 SCS Same-Spin Energy      =      -0.1698847429575289 [Eh]
	 SCS Opposite-Spin Energy  =      -1.9347995612842479 [Eh]
	 SCS Correlation Energy    =      -2.1046843042417769 [Eh]
	 SCS Total Energy          =    -514.9845509338103966 [Eh]
	-----------------------------------------------------------

  Dipole Moment: [D]
     X:    -0.1773      Y:     3.1765      Z:    -1.8746     Total:     3.6927

*** Psi4 exiting successfully. Buy a developer a beer!
