                               Psi4 1.4a3.dev225

  ==> Input File <==

--------------------------------------------------------------------------
#psi4
#
memory 32 gb

molecule  {
0 1
  O       -2.1439760    -1.5096120     0.4578230
  O        1.6019480     1.2946100    -0.5777250
  O       -3.1849820    -0.0999640    -0.9818910
  N        0.1649120    -0.2715720     0.2333030
  C       -1.0051050     0.5087660    -0.1211110
  C       -1.3212480     1.5963590     0.9125160
  C        2.5597860    -0.6480590     0.5035240
  C        1.4183570     0.2162400    -0.0039080
  C       -2.2159370    -0.3767160    -0.3010400
  C        3.7806550    -0.5458820    -0.4040570
  H       -0.8075500     0.9861290    -1.0847450
  H        0.0342290    -1.1271740     0.7572540
  H       -1.5188550     1.1449870     1.8886910
  H       -0.4592110     2.2615650     0.9886780
  H       -2.1947650     2.1753270     0.6002850
  H        2.8115640    -0.2961200     1.5118980
  H        2.2315720    -1.6889350     0.6045970
  H        4.0689510     0.4992230    -0.5227640
  H        4.6219880    -1.1034150     0.0157220
  H        3.5611410    -0.9492480    -1.3958190
  H       -3.0036088    -1.9955802     0.2987033
units angstrom
no_reorient  #important for SAPT in psi4, default
symmetry c1  #important for SAPT in psi4, default
}

set PROPERTIES_ORIGIN ["COM"]
properties('MP2/aug-cc-pvtz', properties = ['dipole'])
--------------------------------------------------------------------------

    Molecular point group: c1
  Charge       = 0
  Multiplicity = 1
  Basis Set: AUG-CC-PVTZ
    Blend: AUG-CC-PVTZ
  Basis Set: (AUG-CC-PVTZ AUX)
    Blend: AUG-CC-PVTZ-JKFIT

    Orbital Energies [Eh]
    ---------------------

    Doubly Occupied:

       1A    -20.635509     2A    -20.564725     3A    -20.522727
       4A    -15.595721     5A    -11.403537     6A    -11.356856
       7A    -11.296392     8A    -11.247700     9A    -11.233253
      10A    -11.221809    11A     -1.473577    12A     -1.379496
      13A     -1.370757    14A     -1.245782    15A     -1.075884
      16A     -1.037222    17A     -0.927436    18A     -0.885281
      19A     -0.819363    20A     -0.794266    21A     -0.727518
      22A     -0.712446    23A     -0.680168    24A     -0.660585
      25A     -0.642127    26A     -0.629195    27A     -0.608088
      28A     -0.600936    29A     -0.593571    30A     -0.552026
      31A     -0.541676    32A     -0.534219    33A     -0.523428
      34A     -0.514016    35A     -0.497566    36A     -0.487701
      37A     -0.468569    38A     -0.427421    39A     -0.400403

  @DF-RHF Final Energy:  -512.88475295899298

   => Energetics <=

    Nuclear Repulsion Energy =            547.6129373671395797
    One-Electron Energy =               -1787.2174763390135013
    Two-Electron Energy =                 726.7197860128808315
    Total Energy =                       -512.8847529589929763
  Basis Set: (AUG-CC-PVTZ AUX)
    Blend: AUG-CC-PVTZ-RI
    Molecular point group: c1

    Geometry (in Angstrom), charge = 0, multiplicity = 1:

       Center              X                  Y                   Z               Mass
    ------------   -----------------  -----------------  -----------------  -----------------
         O           -2.079958609263    -1.510120899922     0.482871464789    15.994914619570
         O            1.665965390737     1.294101100078    -0.552676535211    15.994914619570
         O           -3.120964609263    -0.100472899922    -0.956842535211    15.994914619570
         N            0.228929390737    -0.272080899922     0.258351464789    14.003074004430
         C           -0.941087609263     0.508257100078    -0.096062535211    12.000000000000
         C           -1.257230609263     1.595850100078     0.937564464789    12.000000000000
         C            2.623803390737    -0.648567899922     0.528572464789    12.000000000000
         C            1.482374390737     0.215731100078     0.021140464789    12.000000000000
         C           -2.151919609263    -0.377224899922    -0.275991535211    12.000000000000
         C            3.844672390737    -0.546390899922    -0.379008535211    12.000000000000
         H           -0.743532609263     0.985620100078    -1.059696535211     1.007825032230
         H            0.098246390737    -1.127682899922     0.782302464789     1.007825032230
         H           -1.454837609263     1.144478100078     1.913739464789     1.007825032230
         H           -0.395193609263     2.261056100078     1.013726464789     1.007825032230
         H           -2.130747609263     2.174818100078     0.625333464789     1.007825032230
         H            2.875581390737    -0.296628899922     1.536946464789     1.007825032230
         H            2.295589390737    -1.689443899922     0.629645464789     1.007825032230
         H            4.132968390737     0.498714100078    -0.497715535211     1.007825032230
         H            4.686005390737    -1.103923899922     0.040770464789     1.007825032230
         H            3.625158390737    -0.949756899922    -1.370770535211     1.007825032230
         H           -2.939591409263    -1.996089099922     0.323751764789     1.007825032230

  Basis Set: AUG-CC-PVTZ
    Blend: AUG-CC-PVTZ
  Basis Set: (AUG-CC-PVTZ AUX)
    Blend: AUG-CC-PVTZ-JKFIT
	 Reference Energy          =    -512.8847529589929763 [Eh]
	 Singles Energy            =      -0.0000000000000000 [Eh]
	 Same-Spin Energy          =      -0.5114385469317787 [Eh]
	 Opposite-Spin Energy      =      -1.6157123987285666 [Eh]
	 Correlation Energy        =      -2.1271509456603455 [Eh]
	 Total Energy              =    -515.0119039046533089 [Eh]

	 ================> DF-SCS-MP2 Energies <==================
	-----------------------------------------------------------
	 SCS Same-Spin Scale       =       0.3333333333333333 [-]
	 SCS Opposite-Spin Scale   =       1.2000000000000000 [-]
	 SCS Same-Spin Energy      =      -0.1704795156439262 [Eh]
	 SCS Opposite-Spin Energy  =      -1.9388548784742798 [Eh]
	 SCS Correlation Energy    =      -2.1093343941182061 [Eh]
	 SCS Total Energy          =    -514.9940873531111265 [Eh]
	-----------------------------------------------------------

  Dipole Moment: [D]
     X:    -0.2361      Y:    -3.0564      Z:     2.6489     Total:     4.0515

*** Psi4 exiting successfully. Buy a developer a beer!
