                               Psi4 1.3.2 release

  ==> Input File <==

--------------------------------------------------------------------------
#psi4
#
memory 32 gb

molecule  {
0 1
  O       -1.9705880     1.6613530    -0.1848000
  O        1.6688240    -1.2224340     0.6437850
  O       -3.2913740    -0.0479250     0.4948630
  N        0.2140730     0.2683100    -0.2698780
  C       -0.9751203    -0.4873306     0.1112528
  C       -1.1968270    -1.6816620    -0.8184860
  C        2.5789920     0.8068070    -0.3378900
  C        1.4682490    -0.1481810     0.0706060
  C       -2.1908320     0.3658730     0.1844680
  C        3.9506640     0.3320720     0.1153760
  H       -0.7838570    -0.8897150     1.1288390
  H        0.0750270     1.1966100    -0.6451490
  H       -1.3515420    -1.3283180    -1.8408860
  H       -0.3324026    -2.3463053    -0.8040129
  H       -2.0788080    -2.2361410    -0.4923840
  H        2.5479870     0.9167430    -1.4288930
  H        2.3554820     1.7990610     0.0733550
  H        4.1782080    -0.6474400    -0.3069900
  H        4.7194550     1.0404130    -0.2050590
  H        3.9903360     0.2413970     1.2016820
  H       -2.8462050     2.0977190    -0.1239210
units angstrom
no_reorient  #important for SAPT in psi4, default
symmetry c1  #important for SAPT in psi4, default
}

set PROPERTIES_ORIGIN ["COM"]
properties('MP2/aug-cc-pvtz', properties = ['dipole'])
--------------------------------------------------------------------------

    Molecular point group: c1
  Charge       = 0
  Multiplicity = 1
  Basis Set: AUG-CC-PVTZ
    Blend: AUG-CC-PVTZ
  Basis Set: (AUG-CC-PVTZ AUX)
    Blend: AUG-CC-PVTZ-JKFIT

    Orbital Energies [Eh]
    ---------------------

    Doubly Occupied:

       1A    -20.637149     2A    -20.564963     3A    -20.523940
       4A    -15.591222     5A    -11.406081     6A    -11.355647
       7A    -11.297829     8A    -11.247020     9A    -11.227847
      10A    -11.219357    11A     -1.479783    12A     -1.379469
      13A     -1.374675    14A     -1.243359    15A     -1.076614
      16A     -1.036982    17A     -0.931035    18A     -0.886624
      19A     -0.815361    20A     -0.791917    21A     -0.732020
      22A     -0.715302    23A     -0.681943    24A     -0.666940
      25A     -0.641258    26A     -0.632618    27A     -0.611871
      28A     -0.601701    29A     -0.578791    30A     -0.550189
      31A     -0.544802    32A     -0.523120    33A     -0.520208
      34A     -0.519033    35A     -0.497904    36A     -0.487707
      37A     -0.470956    38A     -0.427716    39A     -0.399692

  @DF-RHF Final Energy:  -512.88481674406603

   => Energetics <=

    Nuclear Repulsion Energy =            548.0196924181037730
    One-Electron Energy =               -1788.0277264577239293
    Two-Electron Energy =                 727.1232172955542410
    Total Energy =                       -512.8848167440660291
  Basis Set: (AUG-CC-PVTZ AUX)
    Blend: AUG-CC-PVTZ-RI
    Molecular point group: c1

    Geometry (in Angstrom), charge = 0, multiplicity = 1:

       Center              X                  Y                   Z               Mass
    ------------   -----------------  -----------------  -----------------  -----------------
         O           -1.968540010719     1.660630441234    -0.184187577958    15.994914619570
         O            1.670871989281    -1.223156558766     0.644397422042    15.994914619570
         O           -3.289326010719    -0.048647558766     0.495475422042    15.994914619570
         N            0.216120989281     0.267587441234    -0.269265577958    14.003074004430
         C           -0.973072310719    -0.488053158766     0.111865222042    12.000000000000
         C           -1.194779010719    -1.682384558766    -0.817873577958    12.000000000000
         C            2.581039989281     0.806084441234    -0.337277577958    12.000000000000
         C            1.470296989281    -0.148903558766     0.071218422042    12.000000000000
         C           -2.188784010719     0.365150441234     0.185080422042    12.000000000000
         C            3.952711989281     0.331349441234     0.115988422042    12.000000000000
         H           -0.781809010719    -0.890437558766     1.129451422042     1.007825032230
         H            0.077074989281     1.195887441234    -0.644536577958     1.007825032230
         H           -1.349494010719    -1.329040558766    -1.840273577958     1.007825032230
         H           -0.330354610719    -2.347027858766    -0.803400477958     1.007825032230
         H           -2.076760010719    -2.236863558766    -0.491771577958     1.007825032230
         H            2.550034989281     0.916020441234    -1.428280577958     1.007825032230
         H            2.357529989281     1.798338441234     0.073967422042     1.007825032230
         H            4.180255989281    -0.648162558766    -0.306377577958     1.007825032230
         H            4.721502989281     1.039690441234    -0.204446577958     1.007825032230
         H            3.992383989281     0.240674441234     1.202294422042     1.007825032230
         H           -2.844157010719     2.096996441234    -0.123308577958     1.007825032230

  Basis Set: AUG-CC-PVTZ
    Blend: AUG-CC-PVTZ
  Basis Set: (AUG-CC-PVTZ AUX)
    Blend: AUG-CC-PVTZ-JKFIT
	 Reference Energy          =    -512.8848167440660291 [Eh]
	 Singles Energy            =      -0.0000000000000000 [Eh]
	 Same-Spin Energy          =      -0.5114516295551865 [Eh]
	 Opposite-Spin Energy      =      -1.6152141033656235 [Eh]
	 Correlation Energy        =      -2.1266657329208103 [Eh]
	 Total Energy              =    -515.0114824769868846 [Eh]

	 ================> DF-SCS-MP2 Energies <==================
	-----------------------------------------------------------
	 SCS Same-Spin Scale       =       0.3333333333333333 [-]
	 SCS Opposite-Spin Scale   =       1.2000000000000000 [-]
	 SCS Same-Spin Energy      =      -0.1704838765183955 [Eh]
	 SCS Opposite-Spin Energy  =      -1.9382569240387482 [Eh]
	 SCS Correlation Energy    =      -2.1087408005571437 [Eh]
	 SCS Total Energy          =    -514.9935575446231724 [Eh]
	-----------------------------------------------------------

  Dipole Moment: [D]
     X:    -0.1218      Y:     3.3454      Z:    -1.8681     Total:     3.8336

*** Psi4 exiting successfully. Buy a developer a beer!
