                               Psi4 1.3.2 release

  ==> Input File <==

--------------------------------------------------------------------------
#psi4
#
memory 32 gb

molecule  {
0 1
  O       -1.9705880     1.6613530    -0.1848000
  O        1.6688240    -1.2224340     0.6437850
  O       -3.2913740    -0.0479250     0.4948630
  N        0.2009232     0.3143132    -0.2111508
  C       -0.9510770    -0.4970410     0.1176100
  C       -1.2608338    -1.7006336    -0.7742483
  C        2.5789920     0.8068070    -0.3378900
  C        1.4682490    -0.1481810     0.0706060
  C       -2.1908320     0.3658730     0.1844680
  C        3.9506640     0.3320720     0.1153760
  H       -0.7838570    -0.8897150     1.1288390
  H        0.0750270     1.1966100    -0.6451490
  H       -1.3515420    -1.3283180    -1.8408860
  H       -0.3238960    -2.3346980    -0.7915570
  H       -2.0788080    -2.2361410    -0.4923840
  H        2.5479870     0.9167430    -1.4288930
  H        2.3554820     1.7990610     0.0733550
  H        4.1782080    -0.6474400    -0.3069900
  H        4.7194550     1.0404130    -0.2050590
  H        3.9903360     0.2413970     1.2016820
  H       -2.8462050     2.0977190    -0.1239210
units angstrom
no_reorient  #important for SAPT in psi4, default
symmetry c1  #important for SAPT in psi4, default
}

set PROPERTIES_ORIGIN ["COM"]
properties('MP2/aug-cc-pvtz', properties = ['dipole'])
--------------------------------------------------------------------------

    Molecular point group: c1
  Charge       = 0
  Multiplicity = 1
  Basis Set: AUG-CC-PVTZ
    Blend: AUG-CC-PVTZ
  Basis Set: (AUG-CC-PVTZ AUX)
    Blend: AUG-CC-PVTZ-JKFIT

    Orbital Energies [Eh]
    ---------------------

    Doubly Occupied:

       1A    -20.634454     2A    -20.562163     3A    -20.527908
       4A    -15.591929     5A    -11.402845     6A    -11.358911
       7A    -11.297333     8A    -11.248073     9A    -11.229584
      10A    -11.220274    11A     -1.476748    12A     -1.381298
      13A     -1.371928    14A     -1.246269    15A     -1.075776
      16A     -1.037288    17A     -0.929265    18A     -0.885385
      19A     -0.819359    20A     -0.792876    21A     -0.729659
      22A     -0.713558    23A     -0.682516    24A     -0.665086
      25A     -0.641167    26A     -0.632829    27A     -0.610742
      28A     -0.605691    29A     -0.590409    30A     -0.555313
      31A     -0.536784    32A     -0.530033    33A     -0.521029
      34A     -0.510288    35A     -0.497170    36A     -0.487021
      37A     -0.465060    38A     -0.429864    39A     -0.400840

  @DF-RHF Final Energy:  -512.87704650282308

   => Energetics <=

    Nuclear Repulsion Energy =            547.7369811304255336
    One-Electron Energy =               -1787.4386034190454211
    Two-Electron Energy =                 726.8245757857969238
    Total Energy =                       -512.8770465028230774
  Basis Set: (AUG-CC-PVTZ AUX)
    Blend: AUG-CC-PVTZ-RI
    Molecular point group: c1

    Geometry (in Angstrom), charge = 0, multiplicity = 1:

       Center              X                  Y                   Z               Mass
    ------------   -----------------  -----------------  -----------------  -----------------
         O           -1.964024198510     1.658481878631    -0.194127708904    15.994914619570
         O            1.675387801490    -1.225305121369     0.634457291096    15.994914619570
         O           -3.284810198510    -0.050796121369     0.485535291096    15.994914619570
         N            0.207487001490     0.311442078631    -0.220478508904    14.003074004430
         C           -0.944513198510    -0.499912121369     0.108282291096    12.000000000000
         C           -1.254269998510    -1.703504721369    -0.783576008904    12.000000000000
         C            2.585555801490     0.803935878631    -0.347217708904    12.000000000000
         C            1.474812801490    -0.151052121369     0.061278291096    12.000000000000
         C           -2.184268198510     0.363001878631     0.175140291096    12.000000000000
         C            3.957227801490     0.329200878631     0.106048291096    12.000000000000
         H           -0.777293198510    -0.892586121369     1.119511291096     1.007825032230
         H            0.081590801490     1.193738878631    -0.654476708904     1.007825032230
         H           -1.344978198510    -1.331189121369    -1.850213708904     1.007825032230
         H           -0.317332198510    -2.337569121369    -0.800884708904     1.007825032230
         H           -2.072244198510    -2.239012121369    -0.501711708904     1.007825032230
         H            2.554550801490     0.913871878631    -1.438220708904     1.007825032230
         H            2.362045801490     1.796189878631     0.064027291096     1.007825032230
         H            4.184771801490    -0.650311121369    -0.316317708904     1.007825032230
         H            4.726018801490     1.037541878631    -0.214386708904     1.007825032230
         H            3.996899801490     0.238525878631     1.192354291096     1.007825032230
         H           -2.839641198510     2.094847878631    -0.133248708904     1.007825032230

  Basis Set: AUG-CC-PVTZ
    Blend: AUG-CC-PVTZ
  Basis Set: (AUG-CC-PVTZ AUX)
    Blend: AUG-CC-PVTZ-JKFIT
	 Reference Energy          =    -512.8770465028230774 [Eh]
	 Singles Energy            =      -0.0000000000000000 [Eh]
	 Same-Spin Energy          =      -0.5113419393351009 [Eh]
	 Opposite-Spin Energy      =      -1.6150891825713620 [Eh]
	 Correlation Energy        =      -2.1264311219064629 [Eh]
	 Total Energy              =    -515.0034776247294985 [Eh]

	 ================> DF-SCS-MP2 Energies <==================
	-----------------------------------------------------------
	 SCS Same-Spin Scale       =       0.3333333333333333 [-]
	 SCS Opposite-Spin Scale   =       1.2000000000000000 [-]
	 SCS Same-Spin Energy      =      -0.1704473131117003 [Eh]
	 SCS Opposite-Spin Energy  =      -1.9381070190856344 [Eh]
	 SCS Correlation Energy    =      -2.1085543321973348 [Eh]
	 SCS Total Energy          =    -514.9856008350203638 [Eh]
	-----------------------------------------------------------

  Dipole Moment: [D]
     X:     0.0485      Y:     3.2475      Z:    -1.9324     Total:     3.7793

*** Psi4 exiting successfully. Buy a developer a beer!
