                               Psi4 1.3.2 release

  ==> Input File <==

--------------------------------------------------------------------------
#psi4
#
memory 32 gb

molecule  {
0 1
  O       -1.9705880     1.6613530    -0.1848000
  O        1.6688240    -1.2224340     0.6437850
  O       -3.2913740    -0.0479250     0.4948630
  N        0.2140730     0.2683100    -0.2698780
  C       -0.9510770    -0.4970410     0.1176100
  C       -1.1968270    -1.6816620    -0.8184860
  C        2.5789920     0.8068070    -0.3378900
  C        1.4682490    -0.1481810     0.0706060
  C       -2.1908320     0.3658730     0.1844680
  C        3.9506640     0.3320720     0.1153760
  H       -0.7686220    -0.9254905     1.2209694
  H        0.0750270     1.1966100    -0.6451490
  H       -1.3515420    -1.3283180    -1.8408860
  H       -0.3238960    -2.3346980    -0.7915570
  H       -2.0788080    -2.2361410    -0.4923840
  H        2.5479870     0.9167430    -1.4288930
  H        2.3554820     1.7990610     0.0733550
  H        4.1782080    -0.6474400    -0.3069900
  H        4.7194550     1.0404130    -0.2050590
  H        3.9903360     0.2413970     1.2016820
  H       -2.8462050     2.0977190    -0.1239210
units angstrom
no_reorient  #important for SAPT in psi4, default
symmetry c1  #important for SAPT in psi4, default
}

set PROPERTIES_ORIGIN ["COM"]
properties('MP2/aug-cc-pvtz', properties = ['dipole'])
--------------------------------------------------------------------------

    Molecular point group: c1
  Charge       = 0
  Multiplicity = 1
  Basis Set: AUG-CC-PVTZ
    Blend: AUG-CC-PVTZ
  Basis Set: (AUG-CC-PVTZ AUX)
    Blend: AUG-CC-PVTZ-JKFIT

    Orbital Energies [Eh]
    ---------------------

    Doubly Occupied:

       1A    -20.636588     2A    -20.563960     3A    -20.524877
       4A    -15.592604     5A    -11.405845     6A    -11.356040
       7A    -11.307239     8A    -11.247458     9A    -11.227423
      10A    -11.219710    11A     -1.478465    12A     -1.380660
      13A     -1.373423    14A     -1.245785    15A     -1.073831
      16A     -1.034448    17A     -0.928163    18A     -0.886045
      19A     -0.809337    20A     -0.792445    21A     -0.731198
      22A     -0.714488    23A     -0.681602    24A     -0.662489
      25A     -0.641506    26A     -0.631103    27A     -0.608499
      28A     -0.601093    29A     -0.581157    30A     -0.547185
      31A     -0.543798    32A     -0.524654    33A     -0.520418
      34A     -0.515977    35A     -0.497663    36A     -0.486139
      37A     -0.466411    38A     -0.428343    39A     -0.399611

  @DF-RHF Final Energy:  -512.87902120001343

   => Energetics <=

    Nuclear Repulsion Energy =            547.5202883723131890
    One-Electron Energy =               -1787.0632567381810532
    Two-Electron Energy =                 726.6639471658544380
    Total Energy =                       -512.8790212000134261
  Basis Set: (AUG-CC-PVTZ AUX)
    Blend: AUG-CC-PVTZ-RI
    Molecular point group: c1

    Geometry (in Angstrom), charge = 0, multiplicity = 1:

       Center              X                  Y                   Z               Mass
    ------------   -----------------  -----------------  -----------------  -----------------
         O           -1.970693719921     1.661601547156    -0.185439981730    15.994914619570
         O            1.668718280079    -1.222185452844     0.643145018270    15.994914619570
         O           -3.291479719921    -0.047676452844     0.494223018270    15.994914619570
         N            0.213967280079     0.268558547156    -0.270517981730    14.003074004430
         C           -0.951182719921    -0.496792452844     0.116970018270    12.000000000000
         C           -1.196932719921    -1.681413452844    -0.819125981730    12.000000000000
         C            2.578886280079     0.807055547156    -0.338529981730    12.000000000000
         C            1.468143280079    -0.147932452844     0.069966018270    12.000000000000
         C           -2.190937719921     0.366121547156     0.183828018270    12.000000000000
         C            3.950558280079     0.332320547156     0.114736018270    12.000000000000
         H           -0.768727719921    -0.925241952844     1.220329418270     1.007825032230
         H            0.074921280079     1.196858547156    -0.645788981730     1.007825032230
         H           -1.351647719921    -1.328069452844    -1.841525981730     1.007825032230
         H           -0.324001719921    -2.334449452844    -0.792196981730     1.007825032230
         H           -2.078913719921    -2.235892452844    -0.493023981730     1.007825032230
         H            2.547881280079     0.916991547156    -1.429532981730     1.007825032230
         H            2.355376280079     1.799309547156     0.072715018270     1.007825032230
         H            4.178102280079    -0.647191452844    -0.307629981730     1.007825032230
         H            4.719349280079     1.040661547156    -0.205698981730     1.007825032230
         H            3.990230280079     0.241645547156     1.201042018270     1.007825032230
         H           -2.846310719921     2.097967547156    -0.124560981730     1.007825032230

  Basis Set: AUG-CC-PVTZ
    Blend: AUG-CC-PVTZ
  Basis Set: (AUG-CC-PVTZ AUX)
    Blend: AUG-CC-PVTZ-JKFIT
	 Reference Energy          =    -512.8790212000134261 [Eh]
	 Singles Energy            =      -0.0000000000000000 [Eh]
	 Same-Spin Energy          =      -0.5116500714279264 [Eh]
	 Opposite-Spin Energy      =      -1.6159262112998509 [Eh]
	 Correlation Energy        =      -2.1275762827277775 [Eh]
	 Total Energy              =    -515.0065974827411992 [Eh]

	 ================> DF-SCS-MP2 Energies <==================
	-----------------------------------------------------------
	 SCS Same-Spin Scale       =       0.3333333333333333 [-]
	 SCS Opposite-Spin Scale   =       1.2000000000000000 [-]
	 SCS Same-Spin Energy      =      -0.1705500238093088 [Eh]
	 SCS Opposite-Spin Energy  =      -1.9391114535598211 [Eh]
	 SCS Correlation Energy    =      -2.1096614773691300 [Eh]
	 SCS Total Energy          =    -514.9886826773825987 [Eh]
	-----------------------------------------------------------

  Dipole Moment: [D]
     X:    -0.0534      Y:     3.3592      Z:    -1.8715     Total:     3.8457

*** Psi4 exiting successfully. Buy a developer a beer!
