                               Psi4 1.3.2 release

  ==> Input File <==

--------------------------------------------------------------------------
#psi4
#
memory 32 gb

molecule  {
0 1
  O       -1.9705880     1.6613530    -0.1848000
  O        1.6688240    -1.2224340     0.6437850
  O       -3.2913740    -0.0479250     0.4948630
  N        0.2140730     0.2683100    -0.2698780
  C       -0.9510770    -0.4970410     0.1176100
  C       -1.1968270    -1.6816620    -0.8184860
  C        2.5789920     0.8068070    -0.3378900
  C        1.4682490    -0.1481810     0.0706060
  C       -2.1908320     0.3658730     0.1844680
  C        3.9506640     0.3320720     0.1153760
  H       -0.7838570    -0.8897150     1.1288390
  H        0.0750270     1.1966100    -0.6451490
  H       -1.3515420    -1.3283180    -1.8408860
  H       -0.3238960    -2.3346980    -0.7915570
  H       -2.0788080    -2.2361410    -0.4923840
  H        2.5479870     0.9167430    -1.4288930
  H        2.3554820     1.7990610     0.0733550
  H        4.1782080    -0.6474400    -0.3069900
  H        4.7194550     1.0404130    -0.2050590
  H        3.9903360     0.2413970     1.2016820
  H       -2.7568762     2.0532017    -0.1301318
units angstrom
no_reorient  #important for SAPT in psi4, default
symmetry c1  #important for SAPT in psi4, default
}

set PROPERTIES_ORIGIN ["COM"]
properties('MP2/aug-cc-pvtz', properties = ['dipole'])
--------------------------------------------------------------------------

    Molecular point group: c1
  Charge       = 0
  Multiplicity = 1
  Basis Set: AUG-CC-PVTZ
    Blend: AUG-CC-PVTZ
  Basis Set: (AUG-CC-PVTZ AUX)
    Blend: AUG-CC-PVTZ-JKFIT

    Orbital Energies [Eh]
    ---------------------

    Doubly Occupied:

       1A    -20.629633     2A    -20.566724     3A    -20.525114
       4A    -15.592267     5A    -11.407820     6A    -11.356432
       7A    -11.297731     8A    -11.247661     9A    -11.227452
      10A    -11.219887    11A     -1.497234    12A     -1.383543
      13A     -1.381053    14A     -1.247278    15A     -1.076762
      16A     -1.036814    17A     -0.936040    18A     -0.889697
      19A     -0.829543    20A     -0.794018    21A     -0.733449
      22A     -0.724437    23A     -0.684250    24A     -0.668055
      25A     -0.642677    26A     -0.635905    27A     -0.615927
      28A     -0.603776    29A     -0.581761    30A     -0.549068
      31A     -0.545755    32A     -0.524889    33A     -0.522266
      34A     -0.520311    35A     -0.499564    36A     -0.489489
      37A     -0.470107    38A     -0.428777    39A     -0.400832

  @DF-RHF Final Energy:  -512.88154622589479

   => Energetics <=

    Nuclear Repulsion Energy =            548.7419267211045053
    One-Electron Energy =               -1789.2789536774780572
    Two-Electron Energy =                 727.6554807304788710
    Total Energy =                       -512.8815462258947946
  Basis Set: (AUG-CC-PVTZ AUX)
    Blend: AUG-CC-PVTZ-RI
    Molecular point group: c1

    Geometry (in Angstrom), charge = 0, multiplicity = 1:

       Center              X                  Y                   Z               Mass
    ------------   -----------------  -----------------  -----------------  -----------------
         O           -1.971208447862     1.661662276242    -0.184756807653    15.994914619570
         O            1.668203552138    -1.222124723758     0.643828192347    15.994914619570
         O           -3.291994447862    -0.047615723758     0.494906192347    15.994914619570
         N            0.213452552138     0.268619276242    -0.269834807653    14.003074004430
         C           -0.951697447862    -0.496731723758     0.117653192347    12.000000000000
         C           -1.197447447862    -1.681352723758    -0.818442807653    12.000000000000
         C            2.578371552138     0.807116276242    -0.337846807653    12.000000000000
         C            1.467628552138    -0.147871723758     0.070649192347    12.000000000000
         C           -2.191452447862     0.366182276242     0.184511192347    12.000000000000
         C            3.950043552138     0.332381276242     0.115419192347    12.000000000000
         H           -0.784477447862    -0.889405723758     1.128882192347     1.007825032230
         H            0.074406552138     1.196919276242    -0.645105807653     1.007825032230
         H           -1.352162447862    -1.328008723758    -1.840842807653     1.007825032230
         H           -0.324516447862    -2.334388723758    -0.791513807653     1.007825032230
         H           -2.079428447862    -2.235831723758    -0.492340807653     1.007825032230
         H            2.547366552138     0.917052276242    -1.428849807653     1.007825032230
         H            2.354861552138     1.799370276242     0.073398192347     1.007825032230
         H            4.177587552138    -0.647130723758    -0.306946807653     1.007825032230
         H            4.718834552138     1.040722276242    -0.205015807653     1.007825032230
         H            3.989715552138     0.241706276242     1.201725192347     1.007825032230
         H           -2.757496647862     2.053510976242    -0.130088607653     1.007825032230

  Basis Set: AUG-CC-PVTZ
    Blend: AUG-CC-PVTZ
  Basis Set: (AUG-CC-PVTZ AUX)
    Blend: AUG-CC-PVTZ-JKFIT
	 Reference Energy          =    -512.8815462258947946 [Eh]
	 Singles Energy            =      -0.0000000000000000 [Eh]
	 Same-Spin Energy          =      -0.5100268173835222 [Eh]
	 Opposite-Spin Energy      =      -1.6121161298160025 [Eh]
	 Correlation Energy        =      -2.1221429471995248 [Eh]
	 Total Energy              =    -515.0036891730943580 [Eh]

	 ================> DF-SCS-MP2 Energies <==================
	-----------------------------------------------------------
	 SCS Same-Spin Scale       =       0.3333333333333333 [-]
	 SCS Opposite-Spin Scale   =       1.2000000000000000 [-]
	 SCS Same-Spin Energy      =      -0.1700089391278407 [Eh]
	 SCS Opposite-Spin Energy  =      -1.9345393557792030 [Eh]
	 SCS Correlation Energy    =      -2.1045482949070435 [Eh]
	 SCS Total Energy          =    -514.9860945208018848 [Eh]
	-----------------------------------------------------------

  Dipole Moment: [D]
     X:     0.0088      Y:     3.2751      Z:    -1.8560     Total:     3.7644

*** Psi4 exiting successfully. Buy a developer a beer!
