                               Psi4 1.4a3.dev225

  ==> Input File <==

--------------------------------------------------------------------------
#psi4
#
memory 32 gb

molecule  {
0 1
  O       -2.1439760    -1.5096120     0.4578230
  O        1.6019480     1.2946100    -0.5777250
  O       -3.1849820    -0.0999640    -0.9818910
  N        0.1649120    -0.2715720     0.2333030
  C       -1.0051050     0.5087660    -0.1211110
  C       -1.3212480     1.5963590     0.9125160
  C        2.5597860    -0.6480590     0.5035240
  C        1.4333857     0.2048602     0.0027731
  C       -2.2159370    -0.3767160    -0.3010400
  C        3.7806550    -0.5458820    -0.4040570
  H       -0.8075500     0.9861290    -1.0847450
  H        0.0342290    -1.1271740     0.7572540
  H       -1.5188550     1.1449870     1.8886910
  H       -0.4592110     2.2615650     0.9886780
  H       -2.1947650     2.1753270     0.6002850
  H        2.8115640    -0.2961200     1.5118980
  H        2.2315720    -1.6889350     0.6045970
  H        4.0689510     0.4992230    -0.5227640
  H        4.6219880    -1.1034150     0.0157220
  H        3.5611410    -0.9492480    -1.3958190
  H       -2.9864200    -1.9858630     0.3018850
units angstrom
no_reorient  #important for SAPT in psi4, default
symmetry c1  #important for SAPT in psi4, default
}

set PROPERTIES_ORIGIN ["COM"]
properties('MP2/aug-cc-pvtz', properties = ['dipole'])
--------------------------------------------------------------------------

    Molecular point group: c1
  Charge       = 0
  Multiplicity = 1
  Basis Set: AUG-CC-PVTZ
    Blend: AUG-CC-PVTZ
  Basis Set: (AUG-CC-PVTZ AUX)
    Blend: AUG-CC-PVTZ-JKFIT

    Orbital Energies [Eh]
    ---------------------

    Doubly Occupied:

       1A    -20.633895     2A    -20.564750     3A    -20.522149
       4A    -15.595420     5A    -11.403569     6A    -11.358642
       7A    -11.296149     8A    -11.248871     9A    -11.232749
      10A    -11.223197    11A     -1.475986    12A     -1.373579
      13A     -1.371994    14A     -1.242224    15A     -1.078580
      16A     -1.038421    17A     -0.928158    18A     -0.889135
      19A     -0.821140    20A     -0.792035    21A     -0.727745
      22A     -0.713899    23A     -0.681584    24A     -0.660732
      25A     -0.642935    26A     -0.629377    27A     -0.609172
      28A     -0.599746    29A     -0.591478    30A     -0.551943
      31A     -0.540927    32A     -0.535380    33A     -0.523840
      34A     -0.514493    35A     -0.497829    36A     -0.486632
      37A     -0.468198    38A     -0.429211    39A     -0.398645

  @DF-RHF Final Energy:  -512.88459083523935

   => Energetics <=

    Nuclear Repulsion Energy =            547.5639278499867260
    One-Electron Energy =               -1787.1082165881543915
    Two-Electron Energy =                 726.6596979029284284
    Total Energy =                       -512.8845908352393508
  Basis Set: (AUG-CC-PVTZ AUX)
    Blend: AUG-CC-PVTZ-RI
    Molecular point group: c1

    Geometry (in Angstrom), charge = 0, multiplicity = 1:

       Center              X                  Y                   Z               Mass
    ------------   -----------------  -----------------  -----------------  -----------------
         O           -2.081321140443    -1.509247108231     0.482296724600    15.994914619570
         O            1.664602859557     1.294974891769    -0.553251275400    15.994914619570
         O           -3.122327140443    -0.099599108231    -0.957417275400    15.994914619570
         N            0.227566859557    -0.271207108231     0.257776724600    14.003074004430
         C           -0.942450140443     0.509130891769    -0.096637275400    12.000000000000
         C           -1.258593140443     1.596723891769     0.936989724600    12.000000000000
         C            2.622440859557    -0.647694108231     0.527997724600    12.000000000000
         C            1.496040559557     0.205225091769     0.027246824600    12.000000000000
         C           -2.153282140443    -0.376351108231    -0.276566275400    12.000000000000
         C            3.843309859557    -0.545517108231    -0.379583275400    12.000000000000
         H           -0.744895140443     0.986493891769    -1.060271275400     1.007825032230
         H            0.096883859557    -1.126809108231     0.781727724600     1.007825032230
         H           -1.456200140443     1.145351891769     1.913164724600     1.007825032230
         H           -0.396556140443     2.261929891769     1.013151724600     1.007825032230
         H           -2.132110140443     2.175691891769     0.624758724600     1.007825032230
         H            2.874218859557    -0.295755108231     1.536371724600     1.007825032230
         H            2.294226859557    -1.688570108231     0.629070724600     1.007825032230
         H            4.131605859557     0.499587891769    -0.498290275400     1.007825032230
         H            4.684642859557    -1.103050108231     0.040195724600     1.007825032230
         H            3.623795859557    -0.948883108231    -1.371345275400     1.007825032230
         H           -2.923765140443    -1.985498108231     0.326358724600     1.007825032230

  Basis Set: AUG-CC-PVTZ
    Blend: AUG-CC-PVTZ
  Basis Set: (AUG-CC-PVTZ AUX)
    Blend: AUG-CC-PVTZ-JKFIT
	 Reference Energy          =    -512.8845908352393508 [Eh]
	 Singles Energy            =      -0.0000000000000000 [Eh]
	 Same-Spin Energy          =      -0.5115400698560741 [Eh]
	 Opposite-Spin Energy      =      -1.6157941187652107 [Eh]
	 Correlation Energy        =      -2.1273341886212851 [Eh]
	 Total Energy              =    -515.0119250238606128 [Eh]

	 ================> DF-SCS-MP2 Energies <==================
	-----------------------------------------------------------
	 SCS Same-Spin Scale       =       0.3333333333333333 [-]
	 SCS Opposite-Spin Scale   =       1.2000000000000000 [-]
	 SCS Same-Spin Energy      =      -0.1705133566186914 [Eh]
	 SCS Opposite-Spin Energy  =      -1.9389529425182528 [Eh]
	 SCS Correlation Energy    =      -2.1094662991369439 [Eh]
	 SCS Total Energy          =    -514.9940571343762485 [Eh]
	-----------------------------------------------------------

  Dipole Moment: [D]
     X:    -0.1224      Y:    -3.0876      Z:     2.6728     Total:     4.0856

*** Psi4 exiting successfully. Buy a developer a beer!
