                               Psi4 1.3.2 release

  ==> Input File <==

--------------------------------------------------------------------------
#psi4
#
memory 32 gb

molecule  {
0 1
  O       -1.9705880     1.6613530    -0.1848000
  O        1.6688240    -1.2224340     0.6437850
  O       -3.2913740    -0.0479250     0.4948630
  N        0.2140730     0.2683100    -0.2698780
  C       -0.9510770    -0.4970410     0.1176100
  C       -1.1968270    -1.6816620    -0.8184860
  C        2.5789920     0.8068070    -0.3378900
  C        1.4682490    -0.1481810     0.0706060
  C       -2.1947109     0.3547013     0.2359013
  C        3.9506640     0.3320720     0.1153760
  H       -0.8150039    -0.8707711     1.1406200
  H        0.0750270     1.1966100    -0.6451490
  H       -1.3515420    -1.3283180    -1.8408860
  H       -0.3238960    -2.3346980    -0.7915570
  H       -2.0788080    -2.2361410    -0.4923840
  H        2.5479870     0.9167430    -1.4288930
  H        2.3554820     1.7990610     0.0733550
  H        4.1782080    -0.6474400    -0.3069900
  H        4.7194550     1.0404130    -0.2050590
  H        3.9903360     0.2413970     1.2016820
  H       -2.8462050     2.0977190    -0.1239210
units angstrom
no_reorient  #important for SAPT in psi4, default
symmetry c1  #important for SAPT in psi4, default
}

set PROPERTIES_ORIGIN ["COM"]
properties('MP2/aug-cc-pvtz', properties = ['dipole'])
--------------------------------------------------------------------------

    Molecular point group: c1
  Charge       = 0
  Multiplicity = 1
  Basis Set: AUG-CC-PVTZ
    Blend: AUG-CC-PVTZ
  Basis Set: (AUG-CC-PVTZ AUX)
    Blend: AUG-CC-PVTZ-JKFIT

    Orbital Energies [Eh]
    ---------------------

    Doubly Occupied:

       1A    -20.628783     2A    -20.569467     3A    -20.524171
       4A    -15.591713     5A    -11.404571     6A    -11.355677
       7A    -11.297701     8A    -11.247021     9A    -11.227895
      10A    -11.219383    11A     -1.474419    12A     -1.381001
      13A     -1.378122    14A     -1.245402    15A     -1.075449
      16A     -1.035899    17A     -0.927459    18A     -0.885131
      19A     -0.811454    20A     -0.790906    21A     -0.730054
      22A     -0.713542    23A     -0.682440    24A     -0.664348
      25A     -0.640714    26A     -0.634295    27A     -0.610528
      28A     -0.601766    29A     -0.580677    30A     -0.548421
      31A     -0.545337    32A     -0.524377    33A     -0.522047
      34A     -0.519729    35A     -0.501804    36A     -0.490137
      37A     -0.467440    38A     -0.428056    39A     -0.400966

  @DF-RHF Final Energy:  -512.88435444247466

   => Energetics <=

    Nuclear Repulsion Energy =            547.8788663386241069
    One-Electron Energy =               -1787.7698354697788545
    Two-Electron Energy =                 727.0066146886799743
    Total Energy =                       -512.8843544424746597
  Basis Set: (AUG-CC-PVTZ AUX)
    Blend: AUG-CC-PVTZ-RI
    Molecular point group: c1

    Geometry (in Angstrom), charge = 0, multiplicity = 1:

       Center              X                  Y                   Z               Mass
    ------------   -----------------  -----------------  -----------------  -----------------
         O           -1.970050657011     1.662145496293    -0.189136177175    15.994914619570
         O            1.669361342989    -1.221641503707     0.639448822825    15.994914619570
         O           -3.290836657011    -0.047132503707     0.490526822825    15.994914619570
         N            0.214610342989     0.269102496293    -0.274214177175    14.003074004430
         C           -0.950539657011    -0.496248503707     0.113273822825    12.000000000000
         C           -1.196289657011    -1.680869503707    -0.822822177175    12.000000000000
         C            2.579529342989     0.807599496293    -0.342226177175    12.000000000000
         C            1.468786342989    -0.147388503707     0.066269822825    12.000000000000
         C           -2.194173557011     0.355493796293     0.231565122825    12.000000000000
         C            3.951201342989     0.332864496293     0.111039822825    12.000000000000
         H           -0.814466557011    -0.869978603707     1.136283822825     1.007825032230
         H            0.075564342989     1.197402496293    -0.649485177175     1.007825032230
         H           -1.351004657011    -1.327525503707    -1.845222177175     1.007825032230
         H           -0.323358657011    -2.333905503707    -0.795893177175     1.007825032230
         H           -2.078270657011    -2.235348503707    -0.496720177175     1.007825032230
         H            2.548524342989     0.917535496293    -1.433229177175     1.007825032230
         H            2.356019342989     1.799853496293     0.069018822825     1.007825032230
         H            4.178745342989    -0.646647503707    -0.311326177175     1.007825032230
         H            4.719992342989     1.041205496293    -0.209395177175     1.007825032230
         H            3.990873342989     0.242189496293     1.197345822825     1.007825032230
         H           -2.845667657011     2.098511496293    -0.128257177175     1.007825032230

  Basis Set: AUG-CC-PVTZ
    Blend: AUG-CC-PVTZ
  Basis Set: (AUG-CC-PVTZ AUX)
    Blend: AUG-CC-PVTZ-JKFIT
	 Reference Energy          =    -512.8843544424746597 [Eh]
	 Singles Energy            =      -0.0000000000000000 [Eh]
	 Same-Spin Energy          =      -0.5111536257078049 [Eh]
	 Opposite-Spin Energy      =      -1.6148059120229101 [Eh]
	 Correlation Energy        =      -2.1259595377307150 [Eh]
	 Total Energy              =    -515.0103139802054102 [Eh]

	 ================> DF-SCS-MP2 Energies <==================
	-----------------------------------------------------------
	 SCS Same-Spin Scale       =       0.3333333333333333 [-]
	 SCS Opposite-Spin Scale   =       1.2000000000000000 [-]
	 SCS Same-Spin Energy      =      -0.1703845419026016 [Eh]
	 SCS Opposite-Spin Energy  =      -1.9377670944274921 [Eh]
	 SCS Correlation Energy    =      -2.1081516363300938 [Eh]
	 SCS Total Energy          =    -514.9925060788048086 [Eh]
	-----------------------------------------------------------

  Dipole Moment: [D]
     X:    -0.1791      Y:     3.1952      Z:    -1.7502     Total:     3.6475

*** Psi4 exiting successfully. Buy a developer a beer!
