                               Psi4 1.3.2 release

  ==> Input File <==

--------------------------------------------------------------------------
#psi4
#
memory 32 gb

molecule  {
0 1
  O       -1.9705880     1.6613530    -0.1848000
  O        1.6688240    -1.2224340     0.6437850
  O       -3.2913740    -0.0479250     0.4948630
  N        0.2140730     0.2683100    -0.2698780
  C       -0.9510770    -0.4970410     0.1176100
  C       -1.1968270    -1.6816620    -0.8184860
  C        2.5789920     0.8068070    -0.3378900
  C        1.4682490    -0.1481810     0.0706060
  C       -2.1896261     0.3685022     0.1715945
  C        3.9506640     0.3320720     0.1153760
  H       -0.7761006    -0.8943771     1.1257007
  H        0.0750270     1.1966100    -0.6451490
  H       -1.3515420    -1.3283180    -1.8408860
  H       -0.3238960    -2.3346980    -0.7915570
  H       -2.0788080    -2.2361410    -0.4923840
  H        2.5479870     0.9167430    -1.4288930
  H        2.3554820     1.7990610     0.0733550
  H        4.1782080    -0.6474400    -0.3069900
  H        4.7194550     1.0404130    -0.2050590
  H        3.9903360     0.2413970     1.2016820
  H       -2.8462050     2.0977190    -0.1239210
units angstrom
no_reorient  #important for SAPT in psi4, default
symmetry c1  #important for SAPT in psi4, default
}

set PROPERTIES_ORIGIN ["COM"]
properties('MP2/aug-cc-pvtz', properties = ['dipole'])
--------------------------------------------------------------------------

    Molecular point group: c1
  Charge       = 0
  Multiplicity = 1
  Basis Set: AUG-CC-PVTZ
    Blend: AUG-CC-PVTZ
  Basis Set: (AUG-CC-PVTZ AUX)
    Blend: AUG-CC-PVTZ-JKFIT

    Orbital Energies [Eh]
    ---------------------

    Doubly Occupied:

       1A    -20.638515     2A    -20.563442     3A    -20.524741
       4A    -15.591618     5A    -11.406173     6A    -11.355980
       7A    -11.297127     8A    -11.247332     9A    -11.226609
      10A    -11.219632    11A     -1.480314    12A     -1.380659
      13A     -1.371727    14A     -1.246293    15A     -1.075573
      16A     -1.035756    17A     -0.928571    18A     -0.886197
      19A     -0.818290    20A     -0.793082    21A     -0.731328
      22A     -0.715197    23A     -0.682895    24A     -0.666563
      25A     -0.641672    26A     -0.634012    27A     -0.610373
      28A     -0.602915    29A     -0.581046    30A     -0.547036
      31A     -0.544206    32A     -0.524434    33A     -0.521110
      34A     -0.519784    35A     -0.496911    36A     -0.487804
      37A     -0.468464    38A     -0.428277    39A     -0.399961

  @DF-RHF Final Energy:  -512.88567530791408

   => Energetics <=

    Nuclear Repulsion Energy =            548.0660521573819324
    One-Electron Energy =               -1788.1202149402404302
    Two-Electron Energy =                 727.1684874749442997
    Total Energy =                       -512.8856753079140844
  Basis Set: (AUG-CC-PVTZ AUX)
    Blend: AUG-CC-PVTZ-RI
    Molecular point group: c1

    Geometry (in Angstrom), charge = 0, multiplicity = 1:

       Center              X                  Y                   Z               Mass
    ------------   -----------------  -----------------  -----------------  -----------------
         O           -1.970741514045     1.661167924938    -0.183713301794    15.994914619570
         O            1.668670485955    -1.222619075062     0.644871698206    15.994914619570
         O           -3.291527514045    -0.048110075062     0.495949698206    15.994914619570
         N            0.213919485955     0.268124924938    -0.268791301794    14.003074004430
         C           -0.951230514045    -0.497226075062     0.118696698206    12.000000000000
         C           -1.196980514045    -1.681847075062    -0.817399301794    12.000000000000
         C            2.578838485955     0.806621924938    -0.336803301794    12.000000000000
         C            1.468095485955    -0.148366075062     0.071692698206    12.000000000000
         C           -2.189779614045     0.368317124938     0.172681198206    12.000000000000
         C            3.950510485955     0.331886924938     0.116462698206    12.000000000000
         H           -0.776254114045    -0.894562175062     1.126787398206     1.007825032230
         H            0.074873485955     1.196424924938    -0.644062301794     1.007825032230
         H           -1.351695514045    -1.328503075062    -1.839799301794     1.007825032230
         H           -0.324049514045    -2.334883075062    -0.790470301794     1.007825032230
         H           -2.078961514045    -2.236326075062    -0.491297301794     1.007825032230
         H            2.547833485955     0.916557924938    -1.427806301794     1.007825032230
         H            2.355328485955     1.798875924938     0.074441698206     1.007825032230
         H            4.178054485955    -0.647625075062    -0.305903301794     1.007825032230
         H            4.719301485955     1.040227924938    -0.203972301794     1.007825032230
         H            3.990182485955     0.241211924938     1.202768698206     1.007825032230
         H           -2.846358514045     2.097533924938    -0.122834301794     1.007825032230

  Basis Set: AUG-CC-PVTZ
    Blend: AUG-CC-PVTZ
  Basis Set: (AUG-CC-PVTZ AUX)
    Blend: AUG-CC-PVTZ-JKFIT
	 Reference Energy          =    -512.8856753079140844 [Eh]
	 Singles Energy            =      -0.0000000000000000 [Eh]
	 Same-Spin Energy          =      -0.5114047980986363 [Eh]
	 Opposite-Spin Energy      =      -1.6150562158889916 [Eh]
	 Correlation Energy        =      -2.1264610139876279 [Eh]
	 Total Energy              =    -515.0121363219017212 [Eh]

	 ================> DF-SCS-MP2 Energies <==================
	-----------------------------------------------------------
	 SCS Same-Spin Scale       =       0.3333333333333333 [-]
	 SCS Opposite-Spin Scale   =       1.2000000000000000 [-]
	 SCS Same-Spin Energy      =      -0.1704682660328787 [Eh]
	 SCS Opposite-Spin Energy  =      -1.9380674590667899 [Eh]
	 SCS Correlation Energy    =      -2.1085357250996686 [Eh]
	 SCS Total Energy          =    -514.9942110330136984 [Eh]
	-----------------------------------------------------------

  Dipole Moment: [D]
     X:    -0.0701      Y:     3.4094      Z:    -1.8864     Total:     3.8971

*** Psi4 exiting successfully. Buy a developer a beer!
