                               Psi4 1.3.2 release

  ==> Input File <==

--------------------------------------------------------------------------
#psi4
#
memory 32 gb

molecule  {
0 1
  O       -1.9705880     1.6613530    -0.1848000
  O        1.6688240    -1.2224340     0.6437850
  O       -3.2913740    -0.0479250     0.4948630
  N        0.2140730     0.2683100    -0.2698780
  C       -0.9510770    -0.4970410     0.1176100
  C       -1.1968270    -1.6816620    -0.8184860
  C        2.5789920     0.8068070    -0.3378900
  C        1.4682490    -0.1481810     0.0706060
  C       -2.1908320     0.3658730     0.1844680
  C        3.9333566     0.3329320     0.1655448
  H       -0.7838570    -0.8897150     1.1288390
  H        0.0750270     1.1966100    -0.6451490
  H       -1.3515420    -1.3283180    -1.8408860
  H       -0.3238960    -2.3346980    -0.7915570
  H       -2.0788080    -2.2361410    -0.4923840
  H        2.5115013     0.9280030    -1.4260496
  H        2.3554820     1.7990610     0.0733550
  H        4.1782080    -0.6474400    -0.3069900
  H        4.7194550     1.0404130    -0.2050590
  H        3.9903360     0.2413970     1.2016820
  H       -2.8462050     2.0977190    -0.1239210
units angstrom
no_reorient  #important for SAPT in psi4, default
symmetry c1  #important for SAPT in psi4, default
}

set PROPERTIES_ORIGIN ["COM"]
properties('MP2/aug-cc-pvtz', properties = ['dipole'])
--------------------------------------------------------------------------

    Molecular point group: c1
  Charge       = 0
  Multiplicity = 1
  Basis Set: AUG-CC-PVTZ
    Blend: AUG-CC-PVTZ
  Basis Set: (AUG-CC-PVTZ AUX)
    Blend: AUG-CC-PVTZ-JKFIT

    Orbital Energies [Eh]
    ---------------------

    Doubly Occupied:

       1A    -20.636584     2A    -20.564538     3A    -20.524357
       4A    -15.591287     5A    -11.405674     6A    -11.355150
       7A    -11.297025     8A    -11.247734     9A    -11.226758
      10A    -11.220597    11A     -1.478624    12A     -1.380423
      13A     -1.373792    14A     -1.245919    15A     -1.075753
      16A     -1.035679    17A     -0.928264    18A     -0.886822
      19A     -0.816915    20A     -0.792765    21A     -0.731040
      22A     -0.714731    23A     -0.682420    24A     -0.665999
      25A     -0.641936    26A     -0.633616    27A     -0.610396
      28A     -0.603969    29A     -0.579827    30A     -0.547044
      31A     -0.544350    32A     -0.535334    33A     -0.519823
      34A     -0.512629    35A     -0.496407    36A     -0.488049
      37A     -0.468350    38A     -0.427564    39A     -0.400073

  @DF-RHF Final Energy:  -512.88232431117740

   => Energetics <=

    Nuclear Repulsion Energy =            548.2551851684776238
    One-Electron Energy =               -1788.4985849404283726
    Two-Electron Energy =                 727.3610754607734634
    Total Energy =                       -512.8823243111773991
  Basis Set: (AUG-CC-PVTZ AUX)
    Blend: AUG-CC-PVTZ-RI
    Molecular point group: c1

    Geometry (in Angstrom), charge = 0, multiplicity = 1:

       Center              X                  Y                   Z               Mass
    ------------   -----------------  -----------------  -----------------  -----------------
         O           -1.968902810403     1.661203656447    -0.188969492898    15.994914619570
         O            1.670509189597    -1.222583343553     0.639615507102    15.994914619570
         O           -3.289688810403    -0.048074343553     0.490693507102    15.994914619570
         N            0.215758189597     0.268160656447    -0.274047492898    14.003074004430
         C           -0.949391810403    -0.497190343553     0.113440507102    12.000000000000
         C           -1.195141810403    -1.681811343553    -0.822655492898    12.000000000000
         C            2.580677189597     0.806657656447    -0.342059492898    12.000000000000
         C            1.469934189597    -0.148330343553     0.066436507102    12.000000000000
         C           -2.189146810403     0.365723656447     0.180298507102    12.000000000000
         C            3.935041789597     0.332782656447     0.161375307102    12.000000000000
         H           -0.782171810403    -0.889864343553     1.124669507102     1.007825032230
         H            0.076712189597     1.196460656447    -0.649318492898     1.007825032230
         H           -1.349856810403    -1.328467343553    -1.845055492898     1.007825032230
         H           -0.322210810403    -2.334847343553    -0.795726492898     1.007825032230
         H           -2.077122810403    -2.236290343553    -0.496553492898     1.007825032230
         H            2.513186489597     0.927853656447    -1.430219092898     1.007825032230
         H            2.357167189597     1.798911656447     0.069185507102     1.007825032230
         H            4.179893189597    -0.647589343553    -0.311159492898     1.007825032230
         H            4.721140189597     1.040263656447    -0.209228492898     1.007825032230
         H            3.992021189597     0.241247656447     1.197512507102     1.007825032230
         H           -2.844519810403     2.097569656447    -0.128090492898     1.007825032230

  Basis Set: AUG-CC-PVTZ
    Blend: AUG-CC-PVTZ
  Basis Set: (AUG-CC-PVTZ AUX)
    Blend: AUG-CC-PVTZ-JKFIT
	 Reference Energy          =    -512.8823243111773991 [Eh]
	 Singles Energy            =      -0.0000000000000000 [Eh]
	 Same-Spin Energy          =      -0.5114071615851246 [Eh]
	 Opposite-Spin Energy      =      -1.6150768984945789 [Eh]
	 Correlation Energy        =      -2.1264840600797035 [Eh]
	 Total Energy              =    -515.0088083712571461 [Eh]

	 ================> DF-SCS-MP2 Energies <==================
	-----------------------------------------------------------
	 SCS Same-Spin Scale       =       0.3333333333333333 [-]
	 SCS Opposite-Spin Scale   =       1.2000000000000000 [-]
	 SCS Same-Spin Energy      =      -0.1704690538617082 [Eh]
	 SCS Opposite-Spin Energy  =      -1.9380922781934946 [Eh]
	 SCS Correlation Energy    =      -2.1085613320552028 [Eh]
	 SCS Total Energy          =    -514.9908856432325592 [Eh]
	-----------------------------------------------------------

  Dipole Moment: [D]
     X:    -0.0975      Y:     3.3718      Z:    -1.8428     Total:     3.8437

*** Psi4 exiting successfully. Buy a developer a beer!
