                               Psi4 1.3.2 release

  ==> Input File <==

--------------------------------------------------------------------------
#psi4
#
memory 32 gb

molecule  {
0 1
  O       -1.9705880     1.6613530    -0.1848000
  O        1.6688240    -1.2224340     0.6437850
  O       -3.2913740    -0.0479250     0.4948630
  N        0.2140730     0.2683100    -0.2698780
  C       -0.9510770    -0.4970410     0.1176100
  C       -1.1968270    -1.6816620    -0.8184860
  C        2.5789920     0.8068070    -0.3378900
  C        1.2844439    -0.0871424     0.0207065
  C       -2.1908320     0.3658730     0.1844680
  C        3.9506640     0.3320720     0.1153760
  H       -0.7838570    -0.8897150     1.1288390
  H        0.0750270     1.1966100    -0.6451490
  H       -1.3515420    -1.3283180    -1.8408860
  H       -0.3238960    -2.3346980    -0.7915570
  H       -2.0788080    -2.2361410    -0.4923840
  H        2.5479870     0.9167430    -1.4288930
  H        2.3554820     1.7990610     0.0733550
  H        4.1782080    -0.6474400    -0.3069900
  H        4.7194550     1.0404130    -0.2050590
  H        3.9903360     0.2413970     1.2016820
  H       -2.8462050     2.0977190    -0.1239210
units angstrom
no_reorient  #important for SAPT in psi4, default
symmetry c1  #important for SAPT in psi4, default
}

set PROPERTIES_ORIGIN ["COM"]
properties('MP2/aug-cc-pvtz', properties = ['dipole'])
--------------------------------------------------------------------------

    Molecular point group: c1
  Charge       = 0
  Multiplicity = 1
  Basis Set: AUG-CC-PVTZ
    Blend: AUG-CC-PVTZ
  Basis Set: (AUG-CC-PVTZ AUX)
    Blend: AUG-CC-PVTZ-JKFIT

    Orbital Energies [Eh]
    ---------------------

    Doubly Occupied:

       1A    -20.649878     2A    -20.576888     3A    -20.485320
       4A    -15.624666     5A    -11.419185     6A    -11.338619
       7A    -11.315198     8A    -11.245506     9A    -11.238914
      10A    -11.211349    11A     -1.492118    12A     -1.389468
      13A     -1.384988    14A     -1.240484    15A     -1.097480
      16A     -1.028124    17A     -0.946759    18A     -0.879309
      19A     -0.849361    20A     -0.829117    21A     -0.754553
      22A     -0.728363    23A     -0.691299    24A     -0.652279
      25A     -0.646971    26A     -0.641722    27A     -0.623006
      28A     -0.602164    29A     -0.562589    30A     -0.555595
      31A     -0.552690    32A     -0.528303    33A     -0.520873
      34A     -0.502202    35A     -0.487523    36A     -0.482873
      37A     -0.476502    38A     -0.393473    39A     -0.387713

  @DF-RHF Final Energy:  -512.81601652289078

   => Energetics <=

    Nuclear Repulsion Energy =            549.6154724716330975
    One-Electron Energy =               -1790.7961300970057437
    Two-Electron Energy =                 728.3646411024817553
    Total Energy =                       -512.8160165228907772
  Basis Set: (AUG-CC-PVTZ AUX)
    Blend: AUG-CC-PVTZ-RI
    Molecular point group: c1

    Geometry (in Angstrom), charge = 0, multiplicity = 1:

       Center              X                  Y                   Z               Mass
    ------------   -----------------  -----------------  -----------------  -----------------
         O           -1.955384174109     1.656304118188    -0.180672443560    15.994914619570
         O            1.684027825891    -1.227482881812     0.647912556440    15.994914619570
         O           -3.276170174109    -0.052973881812     0.498990556440    15.994914619570
         N            0.229276825891     0.263261118188    -0.265750443560    14.003074004430
         C           -0.935873174109    -0.502089881812     0.121737556440    12.000000000000
         C           -1.181623174109    -1.686710881812    -0.814358443560    12.000000000000
         C            2.594195825891     0.801758118188    -0.333762443560    12.000000000000
         C            1.299647725891    -0.092191281812     0.024834056440    12.000000000000
         C           -2.175628174109     0.360824118188     0.188595556440    12.000000000000
         C            3.965867825891     0.327023118188     0.119503556440    12.000000000000
         H           -0.768653174109    -0.894763881812     1.132966556440     1.007825032230
         H            0.090230825891     1.191561118188    -0.641021443560     1.007825032230
         H           -1.336338174109    -1.333366881812    -1.836758443560     1.007825032230
         H           -0.308692174109    -2.339746881812    -0.787429443560     1.007825032230
         H           -2.063604174109    -2.241189881812    -0.488256443560     1.007825032230
         H            2.563190825891     0.911694118188    -1.424765443560     1.007825032230
         H            2.370685825891     1.794012118188     0.077482556440     1.007825032230
         H            4.193411825891    -0.652488881812    -0.302862443560     1.007825032230
         H            4.734658825891     1.035364118188    -0.200931443560     1.007825032230
         H            4.005539825891     0.236348118188     1.205809556440     1.007825032230
         H           -2.831001174109     2.092670118188    -0.119793443560     1.007825032230

  Basis Set: AUG-CC-PVTZ
    Blend: AUG-CC-PVTZ
  Basis Set: (AUG-CC-PVTZ AUX)
    Blend: AUG-CC-PVTZ-JKFIT
	 Reference Energy          =    -512.8160165228907772 [Eh]
	 Singles Energy            =      -0.0000000000000000 [Eh]
	 Same-Spin Energy          =      -0.5130068418425705 [Eh]
	 Opposite-Spin Energy      =      -1.6180136205842228 [Eh]
	 Correlation Energy        =      -2.1310204624267932 [Eh]
	 Total Energy              =    -514.9470369853175953 [Eh]

	 ================> DF-SCS-MP2 Energies <==================
	-----------------------------------------------------------
	 SCS Same-Spin Scale       =       0.3333333333333333 [-]
	 SCS Opposite-Spin Scale   =       1.2000000000000000 [-]
	 SCS Same-Spin Energy      =      -0.1710022806141901 [Eh]
	 SCS Opposite-Spin Energy  =      -1.9416163447010673 [Eh]
	 SCS Correlation Energy    =      -2.1126186253152572 [Eh]
	 SCS Total Energy          =    -514.9286351482060127 [Eh]
	-----------------------------------------------------------

  Dipole Moment: [D]
     X:    -1.6964      Y:     3.8601      Z:    -2.3263     Total:     4.8156

*** Psi4 exiting successfully. Buy a developer a beer!
