                               Psi4 1.3.2 release

  ==> Input File <==

--------------------------------------------------------------------------
#psi4
#
memory 32 gb

molecule  {
0 1
  O       -1.9705880     1.6613530    -0.1848000
  O        1.6688240    -1.2224340     0.6437850
  O       -3.2913740    -0.0479250     0.4948630
  N        0.2140730     0.2683100    -0.2698780
  C       -0.9359956    -0.5160676     0.1245553
  C       -1.1968270    -1.6816620    -0.8184860
  C        2.5789920     0.8068070    -0.3378900
  C        1.4682490    -0.1481810     0.0706060
  C       -2.1908320     0.3658730     0.1844680
  C        3.9506640     0.3320720     0.1153760
  H       -0.7838570    -0.8897150     1.1288390
  H        0.0924947     1.1983389    -0.6469296
  H       -1.3515420    -1.3283180    -1.8408860
  H       -0.3238960    -2.3346980    -0.7915570
  H       -2.0788080    -2.2361410    -0.4923840
  H        2.5479870     0.9167430    -1.4288930
  H        2.3554820     1.7990610     0.0733550
  H        4.1782080    -0.6474400    -0.3069900
  H        4.7194550     1.0404130    -0.2050590
  H        3.9903360     0.2413970     1.2016820
  H       -2.8462050     2.0977190    -0.1239210
units angstrom
no_reorient  #important for SAPT in psi4, default
symmetry c1  #important for SAPT in psi4, default
}

set PROPERTIES_ORIGIN ["COM"]
properties('MP2/aug-cc-pvtz', properties = ['dipole'])
--------------------------------------------------------------------------

    Molecular point group: c1
  Charge       = 0
  Multiplicity = 1
  Basis Set: AUG-CC-PVTZ
    Blend: AUG-CC-PVTZ
  Basis Set: (AUG-CC-PVTZ AUX)
    Blend: AUG-CC-PVTZ-JKFIT

    Orbital Energies [Eh]
    ---------------------

    Doubly Occupied:

       1A    -20.636181     2A    -20.564227     3A    -20.524398
       4A    -15.591541     5A    -11.405376     6A    -11.355180
       7A    -11.297732     8A    -11.247230     9A    -11.226145
      10A    -11.219590    11A     -1.477563    12A     -1.380649
      13A     -1.373120    14A     -1.245964    15A     -1.075275
      16A     -1.035561    17A     -0.926042    18A     -0.884514
      19A     -0.818748    20A     -0.791125    21A     -0.729471
      22A     -0.714302    23A     -0.683075    24A     -0.665584
      25A     -0.641338    26A     -0.635175    27A     -0.609499
      28A     -0.603354    29A     -0.582956    30A     -0.547049
      31A     -0.543289    32A     -0.524739    33A     -0.522814
      34A     -0.520006    35A     -0.497499    36A     -0.489394
      37A     -0.465922    38A     -0.427814    39A     -0.400887

  @DF-RHF Final Energy:  -512.88578399355151

   => Energetics <=

    Nuclear Repulsion Energy =            547.8856908579714400
    One-Electron Energy =               -1787.7822941396718761
    Two-Electron Energy =                 727.0108192881489231
    Total Energy =                       -512.8857839935515130
  Basis Set: (AUG-CC-PVTZ AUX)
    Blend: AUG-CC-PVTZ-RI
    Molecular point group: c1

    Geometry (in Angstrom), charge = 0, multiplicity = 1:

       Center              X                  Y                   Z               Mass
    ------------   -----------------  -----------------  -----------------  -----------------
         O           -1.971956710573     1.662914818088    -0.185362074835    15.994914619570
         O            1.667455289427    -1.220872181912     0.643222925165    15.994914619570
         O           -3.292742710573    -0.046363181912     0.494300925165    15.994914619570
         N            0.212704289427     0.269871818088    -0.270440074835    14.003074004430
         C           -0.937364310573    -0.514505781912     0.123993225165    12.000000000000
         C           -1.198195710573    -1.680100181912    -0.819048074835    12.000000000000
         C            2.577623289427     0.808368818088    -0.338452074835    12.000000000000
         C            1.466880289427    -0.146619181912     0.070043925165    12.000000000000
         C           -2.192200710573     0.367434818088     0.183905925165    12.000000000000
         C            3.949295289427     0.333633818088     0.114813925165    12.000000000000
         H           -0.785225710573    -0.888153181912     1.128276925165     1.007825032230
         H            0.091125989427     1.199900718088    -0.647491674835     1.007825032230
         H           -1.352910710573    -1.326756181912    -1.841448074835     1.007825032230
         H           -0.325264710573    -2.333136181912    -0.792119074835     1.007825032230
         H           -2.080176710573    -2.234579181912    -0.492946074835     1.007825032230
         H            2.546618289427     0.918304818088    -1.429455074835     1.007825032230
         H            2.354113289427     1.800622818088     0.072792925165     1.007825032230
         H            4.176839289427    -0.645878181912    -0.307552074835     1.007825032230
         H            4.718086289427     1.041974818088    -0.205621074835     1.007825032230
         H            3.988967289427     0.242958818088     1.201119925165     1.007825032230
         H           -2.847573710573     2.099280818088    -0.124483074835     1.007825032230

  Basis Set: AUG-CC-PVTZ
    Blend: AUG-CC-PVTZ
  Basis Set: (AUG-CC-PVTZ AUX)
    Blend: AUG-CC-PVTZ-JKFIT
	 Reference Energy          =    -512.8857839935515130 [Eh]
	 Singles Energy            =      -0.0000000000000000 [Eh]
	 Same-Spin Energy          =      -0.5111552304904171 [Eh]
	 Opposite-Spin Energy      =      -1.6147045452190483 [Eh]
	 Correlation Energy        =      -2.1258597757094653 [Eh]
	 Total Energy              =    -515.0116437692610134 [Eh]

	 ================> DF-SCS-MP2 Energies <==================
	-----------------------------------------------------------
	 SCS Same-Spin Scale       =       0.3333333333333333 [-]
	 SCS Opposite-Spin Scale   =       1.2000000000000000 [-]
	 SCS Same-Spin Energy      =      -0.1703850768301390 [Eh]
	 SCS Opposite-Spin Energy  =      -1.9376454542628578 [Eh]
	 SCS Correlation Energy    =      -2.1080305310929970 [Eh]
	 SCS Total Energy          =    -514.9938145246445629 [Eh]
	-----------------------------------------------------------

  Dipole Moment: [D]
     X:    -0.0889      Y:     3.3656      Z:    -1.8606     Total:     3.8467

*** Psi4 exiting successfully. Buy a developer a beer!
