                               Psi4 1.3.2 release

  ==> Input File <==

--------------------------------------------------------------------------
#psi4
#
memory 32 gb

molecule  {
0 1
  O       -1.9705880     1.6613530    -0.1848000
  O        1.6688240    -1.2224340     0.6437850
  O       -3.2913740    -0.0479250     0.4948630
  N        0.2140730     0.2683100    -0.2698780
  C       -0.9510770    -0.4970410     0.1176100
  C       -1.1968270    -1.6816620    -0.8184860
  C        2.5789920     0.8068070    -0.3378900
  C        1.4851470    -0.1058259     0.0568403
  C       -2.1908320     0.3658730     0.1844680
  C        3.9506640     0.3320720     0.1153760
  H       -0.7838570    -0.8897150     1.1288390
  H        0.1097363     1.2022867    -0.6423084
  H       -1.3515420    -1.3283180    -1.8408860
  H       -0.3238960    -2.3346980    -0.7915570
  H       -2.0788080    -2.2361410    -0.4923840
  H        2.5479870     0.9167430    -1.4288930
  H        2.3554820     1.7990610     0.0733550
  H        4.1782080    -0.6474400    -0.3069900
  H        4.7194550     1.0404130    -0.2050590
  H        3.9903360     0.2413970     1.2016820
  H       -2.8462050     2.0977190    -0.1239210
units angstrom
no_reorient  #important for SAPT in psi4, default
symmetry c1  #important for SAPT in psi4, default
}

set PROPERTIES_ORIGIN ["COM"]
properties('MP2/aug-cc-pvtz', properties = ['dipole'])
--------------------------------------------------------------------------

    Molecular point group: c1
  Charge       = 0
  Multiplicity = 1
  Basis Set: AUG-CC-PVTZ
    Blend: AUG-CC-PVTZ
  Basis Set: (AUG-CC-PVTZ AUX)
    Blend: AUG-CC-PVTZ-JKFIT

    Orbital Energies [Eh]
    ---------------------

    Doubly Occupied:

       1A    -20.636219     2A    -20.564704     3A    -20.518569
       4A    -15.594755     5A    -11.406043     6A    -11.358291
       7A    -11.299094     8A    -11.249845     9A    -11.226657
      10A    -11.221929    11A     -1.478394    12A     -1.373871
      13A     -1.358469    14A     -1.240926    15A     -1.082762
      16A     -1.039637    17A     -0.928993    18A     -0.893071
      19A     -0.817373    20A     -0.788825    21A     -0.732795
      22A     -0.714574    23A     -0.684028    24A     -0.666718
      25A     -0.644795    26A     -0.632641    27A     -0.610666
      28A     -0.595622    29A     -0.576692    30A     -0.547766
      31A     -0.543126    32A     -0.527590    33A     -0.520787
      34A     -0.519212    35A     -0.498154    36A     -0.482242
      37A     -0.467868    38A     -0.428458    39A     -0.396673

  @DF-RHF Final Energy:  -512.87885193502996

   => Energetics <=

    Nuclear Repulsion Energy =            547.6813924661948931
    One-Electron Energy =               -1787.3828242693123229
    Two-Electron Energy =                 726.8225798680874732
    Total Energy =                       -512.8788519350299566
  Basis Set: (AUG-CC-PVTZ AUX)
    Blend: AUG-CC-PVTZ-RI
    Molecular point group: c1

    Geometry (in Angstrom), charge = 0, multiplicity = 1:

       Center              X                  Y                   Z               Mass
    ------------   -----------------  -----------------  -----------------  -----------------
         O           -1.972226750310     1.657810115407    -0.183681037444    15.994914619570
         O            1.667185249690    -1.225976884593     0.644903962556    15.994914619570
         O           -3.293012750310    -0.051467884593     0.495981962556    15.994914619570
         N            0.212434249690     0.264767115407    -0.268759037444    14.003074004430
         C           -0.952715750310    -0.500583884593     0.118728962556    12.000000000000
         C           -1.198465750310    -1.685204884593    -0.817367037444    12.000000000000
         C            2.577353249690     0.803264115407    -0.336771037444    12.000000000000
         C            1.483508249690    -0.109368784593     0.057959262556    12.000000000000
         C           -2.192470750310     0.362330115407     0.185586962556    12.000000000000
         C            3.949025249690     0.328529115407     0.116494962556    12.000000000000
         H           -0.785495750310    -0.893257884593     1.129957962556     1.007825032230
         H            0.108097549690     1.198743815407    -0.641189437444     1.007825032230
         H           -1.353180750310    -1.331860884593    -1.839767037444     1.007825032230
         H           -0.325534750310    -2.338240884593    -0.790438037444     1.007825032230
         H           -2.080446750310    -2.239683884593    -0.491265037444     1.007825032230
         H            2.546348249690     0.913200115407    -1.427774037444     1.007825032230
         H            2.353843249690     1.795518115407     0.074473962556     1.007825032230
         H            4.176569249690    -0.650982884593    -0.305871037444     1.007825032230
         H            4.717816249690     1.036870115407    -0.203940037444     1.007825032230
         H            3.988697249690     0.237854115407     1.202800962556     1.007825032230
         H           -2.847843750310     2.094176115407    -0.122802037444     1.007825032230

  Basis Set: AUG-CC-PVTZ
    Blend: AUG-CC-PVTZ
  Basis Set: (AUG-CC-PVTZ AUX)
    Blend: AUG-CC-PVTZ-JKFIT
	 Reference Energy          =    -512.8788519350299566 [Eh]
	 Singles Energy            =      -0.0000000000000000 [Eh]
	 Same-Spin Energy          =      -0.5124041203099767 [Eh]
	 Opposite-Spin Energy      =      -1.6170210871924930 [Eh]
	 Correlation Energy        =      -2.1294252075024698 [Eh]
	 Total Energy              =    -515.0082771425323926 [Eh]

	 ================> DF-SCS-MP2 Energies <==================
	-----------------------------------------------------------
	 SCS Same-Spin Scale       =       0.3333333333333333 [-]
	 SCS Opposite-Spin Scale   =       1.2000000000000000 [-]
	 SCS Same-Spin Energy      =      -0.1708013734366589 [Eh]
	 SCS Opposite-Spin Energy  =      -1.9404253046309916 [Eh]
	 SCS Correlation Energy    =      -2.1112266780676503 [Eh]
	 SCS Total Energy          =    -514.9900786130975803 [Eh]
	-----------------------------------------------------------

  Dipole Moment: [D]
     X:    -0.0182      Y:     3.5499      Z:    -1.9517     Total:     4.0510

*** Psi4 exiting successfully. Buy a developer a beer!
