                               Psi4 1.3.2 release

  ==> Input File <==

--------------------------------------------------------------------------
#psi4
#
memory 32 gb

molecule  {
0 1
  O       -1.9705880     1.6613530    -0.1848000
  O        1.6688240    -1.2224340     0.6437850
  O       -3.2913740    -0.0479250     0.4948630
  N        0.2210672     0.2364678    -0.3084492
  C       -0.9510770    -0.4970410     0.1176100
  C       -1.1537707    -1.6672068    -0.8465596
  C        2.5789920     0.8068070    -0.3378900
  C        1.4682490    -0.1481810     0.0706060
  C       -2.1908320     0.3658730     0.1844680
  C        3.9506640     0.3320720     0.1153760
  H       -0.7838570    -0.8897150     1.1288390
  H        0.0750270     1.1966100    -0.6451490
  H       -1.3515420    -1.3283180    -1.8408860
  H       -0.3238960    -2.3346980    -0.7915570
  H       -2.0788080    -2.2361410    -0.4923840
  H        2.5479870     0.9167430    -1.4288930
  H        2.3554820     1.7990610     0.0733550
  H        4.1782080    -0.6474400    -0.3069900
  H        4.7194550     1.0404130    -0.2050590
  H        3.9903360     0.2413970     1.2016820
  H       -2.8462050     2.0977190    -0.1239210
units angstrom
no_reorient  #important for SAPT in psi4, default
symmetry c1  #important for SAPT in psi4, default
}

set PROPERTIES_ORIGIN ["COM"]
properties('MP2/aug-cc-pvtz', properties = ['dipole'])
--------------------------------------------------------------------------

    Molecular point group: c1
  Charge       = 0
  Multiplicity = 1
  Basis Set: AUG-CC-PVTZ
    Blend: AUG-CC-PVTZ
  Basis Set: (AUG-CC-PVTZ AUX)
    Blend: AUG-CC-PVTZ-JKFIT

    Orbital Energies [Eh]
    ---------------------

    Doubly Occupied:

       1A    -20.637908     2A    -20.566074     3A    -20.523559
       4A    -15.591942     5A    -11.407536     6A    -11.354626
       7A    -11.297311     8A    -11.247188     9A    -11.226182
      10A    -11.219449    11A     -1.479820    12A     -1.380706
      13A     -1.374993    14A     -1.245825    15A     -1.075492
      16A     -1.034985    17A     -0.928236    18A     -0.886461
      19A     -0.816181    20A     -0.790946    21A     -0.731695
      22A     -0.715317    23A     -0.683621    24A     -0.666825
      25A     -0.641814    26A     -0.634634    27A     -0.614062
      28A     -0.600417    29A     -0.578857    30A     -0.551938
      31A     -0.539072    32A     -0.526417    33A     -0.519863
      34A     -0.515480    35A     -0.497263    36A     -0.489196
      37A     -0.470267    38A     -0.427913    39A     -0.399560

  @DF-RHF Final Energy:  -512.88107328643525

   => Energetics <=

    Nuclear Repulsion Energy =            548.2129083717226194
    One-Electron Energy =               -1788.4087107004804693
    Two-Electron Energy =                 727.3147290423227105
    Total Energy =                       -512.8810732864352531
  Basis Set: (AUG-CC-PVTZ AUX)
    Blend: AUG-CC-PVTZ-RI
    Molecular point group: c1

    Geometry (in Angstrom), charge = 0, multiplicity = 1:

       Center              X                  Y                   Z               Mass
    ------------   -----------------  -----------------  -----------------  -----------------
         O           -1.974824454077     1.663230860559    -0.178754768630    15.994914619570
         O            1.664587545923    -1.220556139441     0.649830231370    15.994914619570
         O           -3.295610454077    -0.046047139441     0.500908231370    15.994914619570
         N            0.216830745923     0.238345660559    -0.302403968630    14.003074004430
         C           -0.955313454077    -0.495163139441     0.123655231370    12.000000000000
         C           -1.158007154077    -1.665328939441    -0.840514368630    12.000000000000
         C            2.574755545923     0.808684860559    -0.331844768630    12.000000000000
         C            1.464012545923    -0.146303139441     0.076651231370    12.000000000000
         C           -2.195068454077     0.367750860559     0.190513231370    12.000000000000
         C            3.946427545923     0.333949860559     0.121421231370    12.000000000000
         H           -0.788093454077    -0.887837139441     1.134884231370     1.007825032230
         H            0.070790545923     1.198487860559    -0.639103768630     1.007825032230
         H           -1.355778454077    -1.326440139441    -1.834840768630     1.007825032230
         H           -0.328132454077    -2.332820139441    -0.785511768630     1.007825032230
         H           -2.083044454077    -2.234263139441    -0.486338768630     1.007825032230
         H            2.543750545923     0.918620860559    -1.422847768630     1.007825032230
         H            2.351245545923     1.800938860559     0.079400231370     1.007825032230
         H            4.173971545923    -0.645562139441    -0.300944768630     1.007825032230
         H            4.715218545923     1.042290860559    -0.199013768630     1.007825032230
         H            3.986099545923     0.243274860559     1.207727231370     1.007825032230
         H           -2.850441454077     2.099596860559    -0.117875768630     1.007825032230

  Basis Set: AUG-CC-PVTZ
    Blend: AUG-CC-PVTZ
  Basis Set: (AUG-CC-PVTZ AUX)
    Blend: AUG-CC-PVTZ-JKFIT
	 Reference Energy          =    -512.8810732864352531 [Eh]
	 Singles Energy            =      -0.0000000000000000 [Eh]
	 Same-Spin Energy          =      -0.5115684280912478 [Eh]
	 Opposite-Spin Energy      =      -1.6155702623626849 [Eh]
	 Correlation Energy        =      -2.1271386904539327 [Eh]
	 Total Energy              =    -515.0082119768892426 [Eh]

	 ================> DF-SCS-MP2 Energies <==================
	-----------------------------------------------------------
	 SCS Same-Spin Scale       =       0.3333333333333333 [-]
	 SCS Opposite-Spin Scale   =       1.2000000000000000 [-]
	 SCS Same-Spin Energy      =      -0.1705228093637493 [Eh]
	 SCS Opposite-Spin Energy  =      -1.9386843148352217 [Eh]
	 SCS Correlation Energy    =      -2.1092071241989712 [Eh]
	 SCS Total Energy          =    -514.9902804106342273 [Eh]
	-----------------------------------------------------------

  Dipole Moment: [D]
     X:    -0.1360      Y:     3.4537      Z:    -1.8022     Total:     3.8980

*** Psi4 exiting successfully. Buy a developer a beer!
