                               Psi4 1.3.2 release

  ==> Input File <==

--------------------------------------------------------------------------
#psi4
#
memory 32 gb

molecule  {
0 1
  O       -1.9705880     1.6613530    -0.1848000
  O        1.6688240    -1.2224340     0.6437850
  O       -3.2913740    -0.0479250     0.4948630
  N        0.2140730     0.2683100    -0.2698780
  C       -0.9510770    -0.4970410     0.1176100
  C       -1.1968270    -1.6816620    -0.8184860
  C        2.5789920     0.8068070    -0.3378900
  C        1.4682490    -0.1481810     0.0706060
  C       -2.0268411     0.2517294     0.1756242
  C        3.9506640     0.3320720     0.1153760
  H       -0.7838570    -0.8897150     1.1288390
  H        0.0750270     1.1966100    -0.6451490
  H       -1.3515420    -1.3283180    -1.8408860
  H       -0.3238960    -2.3346980    -0.7915570
  H       -2.0788080    -2.2361410    -0.4923840
  H        2.5479870     0.9167430    -1.4288930
  H        2.3554820     1.7990610     0.0733550
  H        4.1782080    -0.6474400    -0.3069900
  H        4.7194550     1.0404130    -0.2050590
  H        3.9903360     0.2413970     1.2016820
  H       -2.8462050     2.0977190    -0.1239210
units angstrom
no_reorient  #important for SAPT in psi4, default
symmetry c1  #important for SAPT in psi4, default
}

set PROPERTIES_ORIGIN ["COM"]
properties('MP2/aug-cc-pvtz', properties = ['dipole'])
--------------------------------------------------------------------------

    Molecular point group: c1
  Charge       = 0
  Multiplicity = 1
  Basis Set: AUG-CC-PVTZ
    Blend: AUG-CC-PVTZ
  Basis Set: (AUG-CC-PVTZ AUX)
    Blend: AUG-CC-PVTZ-JKFIT

    Orbital Energies [Eh]
    ---------------------

    Doubly Occupied:

       1A    -20.617239     2A    -20.552095     3A    -20.533640
       4A    -15.603184     5A    -11.421476     6A    -11.364701
       7A    -11.302009     8A    -11.252975     9A    -11.244751
      10A    -11.224026    11A     -1.424715    12A     -1.389340
      13A     -1.301449    14A     -1.265862    15A     -1.115599
      16A     -1.053535    17A     -0.958573    18A     -0.896834
      19A     -0.822029    20A     -0.790912    21A     -0.741630
      22A     -0.697181    23A     -0.685721    24A     -0.664219
      25A     -0.646709    26A     -0.623368    27A     -0.608411
      28A     -0.586856    29A     -0.574107    30A     -0.558802
      31A     -0.553680    32A     -0.531527    33A     -0.529988
      34A     -0.525091    35A     -0.499703    36A     -0.459101
      37A     -0.452399    38A     -0.436745    39A     -0.410550

  @DF-RHF Final Energy:  -512.80824529570418

   => Energetics <=

    Nuclear Repulsion Energy =            549.1079118449657699
    One-Electron Energy =               -1789.9908541854326813
    Two-Electron Energy =                 728.0746970447626154
    Total Energy =                       -512.8082452957041824
  Basis Set: (AUG-CC-PVTZ AUX)
    Blend: AUG-CC-PVTZ-RI
    Molecular point group: c1

    Geometry (in Angstrom), charge = 0, multiplicity = 1:

       Center              X                  Y                   Z               Mass
    ------------   -----------------  -----------------  -----------------  -----------------
         O           -1.984152630703     1.670794570973    -0.184068426043    15.994914619570
         O            1.655259369297    -1.212992429027     0.644516573957    15.994914619570
         O           -3.304938630703    -0.038483429027     0.495594573957    15.994914619570
         N            0.200508369297     0.277751570973    -0.269146426043    14.003074004430
         C           -0.964641630703    -0.487599429027     0.118341573957    12.000000000000
         C           -1.210391630703    -1.672220429027    -0.817754426043    12.000000000000
         C            2.565427369297     0.816248570973    -0.337158426043    12.000000000000
         C            1.454684369297    -0.138739429027     0.071337573957    12.000000000000
         C           -2.040405730703     0.261170970973     0.176355773957    12.000000000000
         C            3.937099369297     0.341513570973     0.116107573957    12.000000000000
         H           -0.797421630703    -0.880273429027     1.129570573957     1.007825032230
         H            0.061462369297     1.206051570973    -0.644417426043     1.007825032230
         H           -1.365106630703    -1.318876429027    -1.840154426043     1.007825032230
         H           -0.337460630703    -2.325256429027    -0.790825426043     1.007825032230
         H           -2.092372630703    -2.226699429027    -0.491652426043     1.007825032230
         H            2.534422369297     0.926184570973    -1.428161426043     1.007825032230
         H            2.341917369297     1.808502570973     0.074086573957     1.007825032230
         H            4.164643369297    -0.637998429027    -0.306258426043     1.007825032230
         H            4.705890369297     1.049854570973    -0.204327426043     1.007825032230
         H            3.976771369297     0.250838570973     1.202413573957     1.007825032230
         H           -2.859769630703     2.107160570973    -0.123189426043     1.007825032230

  Basis Set: AUG-CC-PVTZ
    Blend: AUG-CC-PVTZ
  Basis Set: (AUG-CC-PVTZ AUX)
    Blend: AUG-CC-PVTZ-JKFIT
	 Reference Energy          =    -512.8082452957041824 [Eh]
	 Singles Energy            =      -0.0000000000000000 [Eh]
	 Same-Spin Energy          =      -0.5174468536113015 [Eh]
	 Opposite-Spin Energy      =      -1.6267222588861519 [Eh]
	 Correlation Energy        =      -2.1441691124974533 [Eh]
	 Total Energy              =    -514.9524144082016619 [Eh]

	 ================> DF-SCS-MP2 Energies <==================
	-----------------------------------------------------------
	 SCS Same-Spin Scale       =       0.3333333333333333 [-]
	 SCS Opposite-Spin Scale   =       1.2000000000000000 [-]
	 SCS Same-Spin Energy      =      -0.1724822845371005 [Eh]
	 SCS Opposite-Spin Energy  =      -1.9520667106633822 [Eh]
	 SCS Correlation Energy    =      -2.1245489952004828 [Eh]
	 SCS Total Energy          =    -514.9327942909046669 [Eh]
	-----------------------------------------------------------

  Dipole Moment: [D]
     X:     0.9414      Y:     2.5495      Z:    -1.9417     Total:     3.3401

*** Psi4 exiting successfully. Buy a developer a beer!
