                               Psi4 1.3.2 release

  ==> Input File <==

--------------------------------------------------------------------------
#psi4
#
memory 32 gb

molecule  {
0 1
  O       -1.9705880     1.6613530    -0.1848000
  O        1.6688240    -1.2224340     0.6437850
  O       -3.2913740    -0.0479250     0.4948630
  N        0.2140730     0.2683100    -0.2698780
  C       -0.9941738    -0.4385860     0.0960746
  C       -1.1968270    -1.6816620    -0.8184860
  C        2.5789920     0.8068070    -0.3378900
  C        1.4682490    -0.1481810     0.0706060
  C       -2.1908320     0.3658730     0.1844680
  C        3.9506640     0.3320720     0.1153760
  H       -0.7838570    -0.8897150     1.1288390
  H        0.0228991     1.1897291    -0.6391237
  H       -1.3515420    -1.3283180    -1.8408860
  H       -0.3238960    -2.3346980    -0.7915570
  H       -2.0788080    -2.2361410    -0.4923840
  H        2.5479870     0.9167430    -1.4288930
  H        2.3554820     1.7990610     0.0733550
  H        4.1782080    -0.6474400    -0.3069900
  H        4.7194550     1.0404130    -0.2050590
  H        3.9903360     0.2413970     1.2016820
  H       -2.8462050     2.0977190    -0.1239210
units angstrom
no_reorient  #important for SAPT in psi4, default
symmetry c1  #important for SAPT in psi4, default
}

set PROPERTIES_ORIGIN ["COM"]
properties('MP2/aug-cc-pvtz', properties = ['dipole'])
--------------------------------------------------------------------------

    Molecular point group: c1
  Charge       = 0
  Multiplicity = 1
  Basis Set: AUG-CC-PVTZ
    Blend: AUG-CC-PVTZ
  Basis Set: (AUG-CC-PVTZ AUX)
    Blend: AUG-CC-PVTZ-JKFIT

    Orbital Energies [Eh]
    ---------------------

    Doubly Occupied:

       1A    -20.637283     2A    -20.564876     3A    -20.525600
       4A    -15.592272     5A    -11.405564     6A    -11.358429
       7A    -11.296462     8A    -11.247567     9A    -11.229935
      10A    -11.219700    11A     -1.481626    12A     -1.380757
      13A     -1.375339    14A     -1.247051    15A     -1.077359
      16A     -1.037455    17A     -0.935399    18A     -0.890089
      19A     -0.811753    20A     -0.797636    21A     -0.735676
      22A     -0.715566    23A     -0.683334    24A     -0.668003
      25A     -0.641919    26A     -0.630405    27A     -0.612821
      28A     -0.600593    29A     -0.574960    30A     -0.551943
      31A     -0.544405    32A     -0.523048    33A     -0.520266
      34A     -0.516598    35A     -0.498416    36A     -0.485402
      37A     -0.473451    38A     -0.429694    39A     -0.397195

  @DF-RHF Final Energy:  -512.87715573620130

   => Energetics <=

    Nuclear Repulsion Energy =            548.5159105665544530
    One-Electron Energy =               -1788.9544361715113610
    Two-Electron Energy =                 727.5613698687554916
    Total Energy =                       -512.8771557362013027
  Basis Set: (AUG-CC-PVTZ AUX)
    Blend: AUG-CC-PVTZ-RI
    Molecular point group: c1

    Geometry (in Angstrom), charge = 0, multiplicity = 1:

       Center              X                  Y                   Z               Mass
    ------------   -----------------  -----------------  -----------------  -----------------
         O           -1.966660936324     1.656565625910    -0.183060479343    15.994914619570
         O            1.672751063676    -1.227221374090     0.645524520657    15.994914619570
         O           -3.287446936324    -0.052712374090     0.496602520657    15.994914619570
         N            0.218000063676     0.263522625910    -0.268138479343    14.003074004430
         C           -0.990246736324    -0.443373374090     0.097814120657    12.000000000000
         C           -1.192899936324    -1.686449374090    -0.816746479343    12.000000000000
         C            2.582919063676     0.802019625910    -0.336150479343    12.000000000000
         C            1.472176063676    -0.152968374090     0.072345520657    12.000000000000
         C           -2.186904936324     0.361085625910     0.186207520657    12.000000000000
         C            3.954591063676     0.327284625910     0.117115520657    12.000000000000
         H           -0.779929936324    -0.894502374090     1.130578520657     1.007825032230
         H            0.026826163676     1.184941725910    -0.637384179343     1.007825032230
         H           -1.347614936324    -1.333105374090    -1.839146479343     1.007825032230
         H           -0.319968936324    -2.339485374090    -0.789817479343     1.007825032230
         H           -2.074880936324    -2.240928374090    -0.490644479343     1.007825032230
         H            2.551914063676     0.911955625910    -1.427153479343     1.007825032230
         H            2.359409063676     1.794273625910     0.075094520657     1.007825032230
         H            4.182135063676    -0.652227374090    -0.305250479343     1.007825032230
         H            4.723382063676     1.035625625910    -0.203319479343     1.007825032230
         H            3.994263063676     0.236609625910     1.203421520657     1.007825032230
         H           -2.842277936324     2.092931625910    -0.122181479343     1.007825032230

  Basis Set: AUG-CC-PVTZ
    Blend: AUG-CC-PVTZ
  Basis Set: (AUG-CC-PVTZ AUX)
    Blend: AUG-CC-PVTZ-JKFIT
	 Reference Energy          =    -512.8771557362013027 [Eh]
	 Singles Energy            =      -0.0000000000000000 [Eh]
	 Same-Spin Energy          =      -0.5122493728063595 [Eh]
	 Opposite-Spin Energy      =      -1.6163841167277873 [Eh]
	 Correlation Energy        =      -2.1286334895341468 [Eh]
	 Total Energy              =    -515.0057892257354979 [Eh]

	 ================> DF-SCS-MP2 Energies <==================
	-----------------------------------------------------------
	 SCS Same-Spin Scale       =       0.3333333333333333 [-]
	 SCS Opposite-Spin Scale   =       1.2000000000000000 [-]
	 SCS Same-Spin Energy      =      -0.1707497909354532 [Eh]
	 SCS Opposite-Spin Energy  =      -1.9396609400733447 [Eh]
	 SCS Correlation Energy    =      -2.1104107310087978 [Eh]
	 SCS Total Energy          =    -514.9875664672100584 [Eh]
	-----------------------------------------------------------

  Dipole Moment: [D]
     X:    -0.0698      Y:     3.3531      Z:    -1.8624     Total:     3.8362

*** Psi4 exiting successfully. Buy a developer a beer!
