                               Psi4 1.3.2 release

  ==> Input File <==

--------------------------------------------------------------------------
#psi4
#
memory 32 gb

molecule  {
0 1
  O       -1.9705880     1.6613530    -0.1848000
  O        1.6688240    -1.2224340     0.6437850
  O       -3.2913740    -0.0479250     0.4948630
  N        0.2140730     0.2683100    -0.2698780
  C       -0.9510770    -0.4970410     0.1176100
  C       -1.1968270    -1.6816620    -0.8184860
  C        2.5789920     0.8068070    -0.3378900
  C        1.4637849    -0.1586925     0.0739833
  C       -2.1908320     0.3658730     0.1844680
  C        3.9506640     0.3320720     0.1153760
  H       -0.7838570    -0.8897150     1.1288390
  H        0.0663745     1.1950138    -0.6457878
  H       -1.3515420    -1.3283180    -1.8408860
  H       -0.3238960    -2.3346980    -0.7915570
  H       -2.0788080    -2.2361410    -0.4923840
  H        2.5479870     0.9167430    -1.4288930
  H        2.3554820     1.7990610     0.0733550
  H        4.1782080    -0.6474400    -0.3069900
  H        4.7194550     1.0404130    -0.2050590
  H        3.9903360     0.2413970     1.2016820
  H       -2.8462050     2.0977190    -0.1239210
units angstrom
no_reorient  #important for SAPT in psi4, default
symmetry c1  #important for SAPT in psi4, default
}

set PROPERTIES_ORIGIN ["COM"]
properties('MP2/aug-cc-pvtz', properties = ['dipole'])
--------------------------------------------------------------------------

    Molecular point group: c1
  Charge       = 0
  Multiplicity = 1
  Basis Set: AUG-CC-PVTZ
    Blend: AUG-CC-PVTZ
  Basis Set: (AUG-CC-PVTZ AUX)
    Blend: AUG-CC-PVTZ-JKFIT

    Orbital Energies [Eh]
    ---------------------

    Doubly Occupied:

       1A    -20.636752     2A    -20.564597     3A    -20.526107
       4A    -15.590896     5A    -11.405702     6A    -11.355341
       7A    -11.296730     8A    -11.246495     9A    -11.226918
      10A    -11.218975    11A     -1.478770    12A     -1.386542
      13A     -1.373933    14A     -1.247144    15A     -1.073861
      16A     -1.034761    17A     -0.928169    18A     -0.884107
      19A     -0.816937    20A     -0.793544    21A     -0.730637
      22A     -0.714874    23A     -0.682796    24A     -0.666028
      25A     -0.640750    26A     -0.634491    27A     -0.610656
      28A     -0.604586    29A     -0.581686    30A     -0.547273
      31A     -0.544954    32A     -0.524010    33A     -0.521586
      34A     -0.519714    35A     -0.497670    36A     -0.489852
      37A     -0.468618    38A     -0.427509    39A     -0.400917

  @DF-RHF Final Energy:  -512.88665988126036

   => Energetics <=

    Nuclear Repulsion Energy =            548.1295934112457644
    One-Electron Energy =               -1788.2427322927028399
    Two-Electron Energy =                 727.2264790001966048
    Total Energy =                       -512.8866598812603570
  Basis Set: (AUG-CC-PVTZ AUX)
    Blend: AUG-CC-PVTZ-RI
    Molecular point group: c1

    Geometry (in Angstrom), charge = 0, multiplicity = 1:

       Center              X                  Y                   Z               Mass
    ------------   -----------------  -----------------  -----------------  -----------------
         O           -1.970158519419     1.662233578488    -0.185074874537    15.994914619570
         O            1.669253480581    -1.221553421512     0.643510125463    15.994914619570
         O           -3.290944519419    -0.047044421512     0.494588125463    15.994914619570
         N            0.214502480581     0.269190578488    -0.270152874537    14.003074004430
         C           -0.950647519419    -0.496160421512     0.117335125463    12.000000000000
         C           -1.196397519419    -1.680781421512    -0.818760874537    12.000000000000
         C            2.579421480581     0.807687578488    -0.338164874537    12.000000000000
         C            1.464214380581    -0.157811921512     0.073708425463    12.000000000000
         C           -2.190402519419     0.366753578488     0.184193125463    12.000000000000
         C            3.951093480581     0.332952578488     0.115101125463    12.000000000000
         H           -0.783427519419    -0.888834421512     1.128564125463     1.007825032230
         H            0.066803980581     1.195894378488    -0.646062674537     1.007825032230
         H           -1.351112519419    -1.327437421512    -1.841160874537     1.007825032230
         H           -0.323466519419    -2.333817421512    -0.791831874537     1.007825032230
         H           -2.078378519419    -2.235260421512    -0.492658874537     1.007825032230
         H            2.548416480581     0.917623578488    -1.429167874537     1.007825032230
         H            2.355911480581     1.799941578488     0.073080125463     1.007825032230
         H            4.178637480581    -0.646559421512    -0.307264874537     1.007825032230
         H            4.719884480581     1.041293578488    -0.205333874537     1.007825032230
         H            3.990765480581     0.242277578488     1.201407125463     1.007825032230
         H           -2.845775519419     2.098599578488    -0.124195874537     1.007825032230

  Basis Set: AUG-CC-PVTZ
    Blend: AUG-CC-PVTZ
  Basis Set: (AUG-CC-PVTZ AUX)
    Blend: AUG-CC-PVTZ-JKFIT
	 Reference Energy          =    -512.8866598812603570 [Eh]
	 Singles Energy            =      -0.0000000000000000 [Eh]
	 Same-Spin Energy          =      -0.5110911487996102 [Eh]
	 Opposite-Spin Energy      =      -1.6144819969379309 [Eh]
	 Correlation Energy        =      -2.1255731457375413 [Eh]
	 Total Energy              =    -515.0122330269979329 [Eh]

	 ================> DF-SCS-MP2 Energies <==================
	-----------------------------------------------------------
	 SCS Same-Spin Scale       =       0.3333333333333333 [-]
	 SCS Opposite-Spin Scale   =       1.2000000000000000 [-]
	 SCS Same-Spin Energy      =      -0.1703637162665367 [Eh]
	 SCS Opposite-Spin Energy  =      -1.9373783963255171 [Eh]
	 SCS Correlation Energy    =      -2.1077421125920539 [Eh]
	 SCS Total Energy          =    -514.9944019938524207 [Eh]
	-----------------------------------------------------------

  Dipole Moment: [D]
     X:    -0.1142      Y:     3.3204      Z:    -1.8362     Total:     3.7960

*** Psi4 exiting successfully. Buy a developer a beer!
