                               Psi4 1.3.2 release

  ==> Input File <==

--------------------------------------------------------------------------
#psi4
#
memory 32 gb

molecule  {
0 1
  O       -1.9590342     1.6588962    -0.1863360
  O        1.6688240    -1.2224340     0.6437850
  O       -3.2872332    -0.0575528     0.4965281
  N        0.2140730     0.2683100    -0.2698780
  C       -0.9510770    -0.4970410     0.1176100
  C       -1.1968270    -1.6816620    -0.8184860
  C        2.5789920     0.8068070    -0.3378900
  C        1.4682490    -0.1481810     0.0706060
  C       -2.1908320     0.3658730     0.1844680
  C        3.9506640     0.3320720     0.1153760
  H       -0.7838570    -0.8897150     1.1288390
  H        0.0750270     1.1966100    -0.6451490
  H       -1.3515420    -1.3283180    -1.8408860
  H       -0.3238960    -2.3346980    -0.7915570
  H       -2.0788080    -2.2361410    -0.4923840
  H        2.5479870     0.9167430    -1.4288930
  H        2.3554820     1.7990610     0.0733550
  H        4.1782080    -0.6474400    -0.3069900
  H        4.7194550     1.0404130    -0.2050590
  H        3.9903360     0.2413970     1.2016820
  H       -2.8462050     2.0977190    -0.1239210
units angstrom
no_reorient  #important for SAPT in psi4, default
symmetry c1  #important for SAPT in psi4, default
}

set PROPERTIES_ORIGIN ["COM"]
properties('MP2/aug-cc-pvtz', properties = ['dipole'])
--------------------------------------------------------------------------

    Molecular point group: c1
  Charge       = 0
  Multiplicity = 1
  Basis Set: AUG-CC-PVTZ
    Blend: AUG-CC-PVTZ
  Basis Set: (AUG-CC-PVTZ AUX)
    Blend: AUG-CC-PVTZ-JKFIT

    Orbital Energies [Eh]
    ---------------------

    Doubly Occupied:

       1A    -20.639048     2A    -20.565349     3A    -20.524202
       4A    -15.591013     5A    -11.405901     6A    -11.355484
       7A    -11.296079     8A    -11.247002     9A    -11.226304
      10A    -11.219376    11A     -1.477740    12A     -1.380168
      13A     -1.374671    14A     -1.245477    15A     -1.074994
      16A     -1.035278    17A     -0.927357    18A     -0.885348
      19A     -0.815108    20A     -0.792428    21A     -0.730733
      22A     -0.714688    23A     -0.682456    24A     -0.665992
      25A     -0.641275    26A     -0.634044    27A     -0.610544
      28A     -0.602362    29A     -0.580468    30A     -0.546854
      31A     -0.544279    32A     -0.524087    33A     -0.521025
      34A     -0.519573    35A     -0.498148    36A     -0.488501
      37A     -0.468338    38A     -0.427824    39A     -0.399629

  @DF-RHF Final Energy:  -512.88478090350668

   => Energetics <=

    Nuclear Repulsion Energy =            548.1622453396192896
    One-Electron Energy =               -1788.3357663797646637
    Two-Electron Energy =                 727.2887401366385802
    Total Energy =                       -512.8847809035066803
  Basis Set: (AUG-CC-PVTZ AUX)
    Blend: AUG-CC-PVTZ-RI
    Molecular point group: c1

    Geometry (in Angstrom), charge = 0, multiplicity = 1:

       Center              X                  Y                   Z               Mass
    ------------   -----------------  -----------------  -----------------  -----------------
         O           -1.960764468400     1.660228585863    -0.186350187675    15.994914619570
         O            1.667093731600    -1.221101614137     0.643770812325    15.994914619570
         O           -3.288963468400    -0.056220414137     0.496513912325    15.994914619570
         N            0.212342731600     0.269642385863    -0.269892187675    14.003074004430
         C           -0.952807268400    -0.495708614137     0.117595812325    12.000000000000
         C           -1.198557268400    -1.680329614137    -0.818500187675    12.000000000000
         C            2.577261731600     0.808139385863    -0.337904187675    12.000000000000
         C            1.466518731600    -0.146848614137     0.070591812325    12.000000000000
         C           -2.192562268400     0.367205385863     0.184453812325    12.000000000000
         C            3.948933731600     0.333404385863     0.115361812325    12.000000000000
         H           -0.785587268400    -0.888382614137     1.128824812325     1.007825032230
         H            0.073296731600     1.197942385863    -0.645163187675     1.007825032230
         H           -1.353272268400    -1.326985614137    -1.840900187675     1.007825032230
         H           -0.325626268400    -2.333365614137    -0.791571187675     1.007825032230
         H           -2.080538268400    -2.234808614137    -0.492398187675     1.007825032230
         H            2.546256731600     0.918075385863    -1.428907187675     1.007825032230
         H            2.353751731600     1.800393385863     0.073340812325     1.007825032230
         H            4.176477731600    -0.646107614137    -0.307004187675     1.007825032230
         H            4.717724731600     1.041745385863    -0.205073187675     1.007825032230
         H            3.988605731600     0.242729385863     1.201667812325     1.007825032230
         H           -2.847935268400     2.099051385863    -0.123935187675     1.007825032230

  Basis Set: AUG-CC-PVTZ
    Blend: AUG-CC-PVTZ
  Basis Set: (AUG-CC-PVTZ AUX)
    Blend: AUG-CC-PVTZ-JKFIT
	 Reference Energy          =    -512.8847809035066803 [Eh]
	 Singles Energy            =      -0.0000000000000000 [Eh]
	 Same-Spin Energy          =      -0.5116053964850333 [Eh]
	 Opposite-Spin Energy      =      -1.6155046983977974 [Eh]
	 Correlation Energy        =      -2.1271100948828305 [Eh]
	 Total Energy              =    -515.0118909983895037 [Eh]

	 ================> DF-SCS-MP2 Energies <==================
	-----------------------------------------------------------
	 SCS Same-Spin Scale       =       0.3333333333333333 [-]
	 SCS Opposite-Spin Scale   =       1.2000000000000000 [-]
	 SCS Same-Spin Energy      =      -0.1705351321616778 [Eh]
	 SCS Opposite-Spin Energy  =      -1.9386056380773569 [Eh]
	 SCS Correlation Energy    =      -2.1091407702390348 [Eh]
	 SCS Total Energy          =    -514.9939216737457173 [Eh]
	-----------------------------------------------------------

  Dipole Moment: [D]
     X:    -0.1399      Y:     3.4098      Z:    -1.8592     Total:     3.8862

*** Psi4 exiting successfully. Buy a developer a beer!
