                               Psi4 1.3.2 release

  ==> Input File <==

--------------------------------------------------------------------------
#psi4
#
memory 32 gb

molecule  {
0 1
  O       -1.9705880     1.6613530    -0.1848000
  O        1.6688240    -1.2224340     0.6437850
  O       -3.2913740    -0.0479250     0.4948630
  N        0.2140730     0.2683100    -0.2698780
  C       -0.9510770    -0.4970410     0.1176100
  C       -1.1471053    -1.6984923    -0.8087180
  C        2.5789920     0.8068070    -0.3378900
  C        1.4682490    -0.1481810     0.0706060
  C       -2.1655693     0.3979645     0.2178922
  C        3.9506640     0.3320720     0.1153760
  H       -0.7838570    -0.8897150     1.1288390
  H        0.0750270     1.1966100    -0.6451490
  H       -1.3515420    -1.3283180    -1.8408860
  H       -0.3238960    -2.3346980    -0.7915570
  H       -2.0788080    -2.2361410    -0.4923840
  H        2.5479870     0.9167430    -1.4288930
  H        2.3554820     1.7990610     0.0733550
  H        4.1782080    -0.6474400    -0.3069900
  H        4.7194550     1.0404130    -0.2050590
  H        3.9903360     0.2413970     1.2016820
  H       -2.8462050     2.0977190    -0.1239210
units angstrom
no_reorient  #important for SAPT in psi4, default
symmetry c1  #important for SAPT in psi4, default
}

set PROPERTIES_ORIGIN ["COM"]
properties('MP2/aug-cc-pvtz', properties = ['dipole'])
--------------------------------------------------------------------------

    Molecular point group: c1
  Charge       = 0
  Multiplicity = 1
  Basis Set: AUG-CC-PVTZ
    Blend: AUG-CC-PVTZ
  Basis Set: (AUG-CC-PVTZ AUX)
    Blend: AUG-CC-PVTZ-JKFIT

    Orbital Energies [Eh]
    ---------------------

    Doubly Occupied:

       1A    -20.644770     2A    -20.560140     3A    -20.524840
       4A    -15.591155     5A    -11.408945     6A    -11.355901
       7A    -11.297491     8A    -11.247445     9A    -11.227594
      10A    -11.219762    11A     -1.486707    12A     -1.380767
      13A     -1.361821    14A     -1.246821    15A     -1.075076
      16A     -1.034562    17A     -0.933160    18A     -0.887384
      19A     -0.822621    20A     -0.794427    21A     -0.731883
      22A     -0.716462    23A     -0.683502    24A     -0.667695
      25A     -0.642391    26A     -0.632899    27A     -0.609188
      28A     -0.601703    29A     -0.580098    30A     -0.559161
      31A     -0.538555    32A     -0.521050    33A     -0.520486
      34A     -0.517312    35A     -0.494925    36A     -0.483576
      37A     -0.466074    38A     -0.428383    39A     -0.400016

  @DF-RHF Final Energy:  -512.87819043931381

   => Energetics <=

    Nuclear Repulsion Energy =            548.0632172819867947
    One-Electron Energy =               -1788.0893170155745793
    Two-Electron Energy =                 727.1479092942738589
    Total Energy =                       -512.8781904393138120
  Basis Set: (AUG-CC-PVTZ AUX)
    Blend: AUG-CC-PVTZ-RI
    Molecular point group: c1

    Geometry (in Angstrom), charge = 0, multiplicity = 1:

       Center              X                  Y                   Z               Mass
    ------------   -----------------  -----------------  -----------------  -----------------
         O           -1.976790327422     1.660090663016    -0.188372660155    15.994914619570
         O            1.662621672578    -1.223696336984     0.640212339845    15.994914619570
         O           -3.297576327422    -0.049187336984     0.491290339845    15.994914619570
         N            0.207870672578     0.267047663016    -0.273450660155    14.003074004430
         C           -0.957279327422    -0.498303336984     0.114037339845    12.000000000000
         C           -1.153307627422    -1.699754636984    -0.812290660155    12.000000000000
         C            2.572789672578     0.805544663016    -0.341462660155    12.000000000000
         C            1.462046672578    -0.149443336984     0.067033339845    12.000000000000
         C           -2.171771627422     0.396702163016     0.214319539845    12.000000000000
         C            3.944461672578     0.330809663016     0.111803339845    12.000000000000
         H           -0.790059327422    -0.890977336984     1.125266339845     1.007825032230
         H            0.068824672578     1.195347663016    -0.648721660155     1.007825032230
         H           -1.357744327422    -1.329580336984    -1.844458660155     1.007825032230
         H           -0.330098327422    -2.335960336984    -0.795129660155     1.007825032230
         H           -2.085010327422    -2.237403336984    -0.495956660155     1.007825032230
         H            2.541784672578     0.915480663016    -1.432465660155     1.007825032230
         H            2.349279672578     1.797798663016     0.069782339845     1.007825032230
         H            4.172005672578    -0.648702336984    -0.310562660155     1.007825032230
         H            4.713252672578     1.039150663016    -0.208631660155     1.007825032230
         H            3.984133672578     0.240134663016     1.198109339845     1.007825032230
         H           -2.852407327422     2.096456663016    -0.127493660155     1.007825032230

  Basis Set: AUG-CC-PVTZ
    Blend: AUG-CC-PVTZ
  Basis Set: (AUG-CC-PVTZ AUX)
    Blend: AUG-CC-PVTZ-JKFIT
	 Reference Energy          =    -512.8781904393138120 [Eh]
	 Singles Energy            =      -0.0000000000000000 [Eh]
	 Same-Spin Energy          =      -0.5117955395667975 [Eh]
	 Opposite-Spin Energy      =      -1.6159258299055959 [Eh]
	 Correlation Energy        =      -2.1277213694723933 [Eh]
	 Total Energy              =    -515.0059118087862089 [Eh]

	 ================> DF-SCS-MP2 Energies <==================
	-----------------------------------------------------------
	 SCS Same-Spin Scale       =       0.3333333333333333 [-]
	 SCS Opposite-Spin Scale   =       1.2000000000000000 [-]
	 SCS Same-Spin Energy      =      -0.1705985131889325 [Eh]
	 SCS Opposite-Spin Energy  =      -1.9391109958867150 [Eh]
	 SCS Correlation Energy    =      -2.1097095090756475 [Eh]
	 SCS Total Energy          =    -514.9878999483894404 [Eh]
	-----------------------------------------------------------

  Dipole Moment: [D]
     X:     0.0066      Y:     3.5596      Z:    -1.8777     Total:     4.0245

*** Psi4 exiting successfully. Buy a developer a beer!
