                               Psi4 1.3.2 release

  ==> Input File <==

--------------------------------------------------------------------------
#psi4
#
memory 32 gb

molecule  {
0 1
  O       -1.9705880     1.6613530    -0.1848000
  O        1.7321156    -1.2095846     0.6420785
  O       -3.2913740    -0.0479250     0.4948630
  N        0.2140730     0.2683100    -0.2698780
  C       -0.9510770    -0.4970410     0.1176100
  C       -1.1968270    -1.6816620    -0.8184860
  C        2.6315490     0.7555084    -0.3071500
  C        1.4682490    -0.1481810     0.0706060
  C       -2.1908320     0.3658730     0.1844680
  C        3.9506640     0.3320720     0.1153760
  H       -0.7838570    -0.8897150     1.1288390
  H        0.0750270     1.1966100    -0.6451490
  H       -1.3515420    -1.3283180    -1.8408860
  H       -0.3238960    -2.3346980    -0.7915570
  H       -2.0788080    -2.2361410    -0.4923840
  H        2.5479870     0.9167430    -1.4288930
  H        2.3554820     1.7990610     0.0733550
  H        4.1782080    -0.6474400    -0.3069900
  H        4.7194550     1.0404130    -0.2050590
  H        3.9903360     0.2413970     1.2016820
  H       -2.8462050     2.0977190    -0.1239210
units angstrom
no_reorient  #important for SAPT in psi4, default
symmetry c1  #important for SAPT in psi4, default
}

set PROPERTIES_ORIGIN ["COM"]
properties('MP2/aug-cc-pvtz', properties = ['dipole'])
--------------------------------------------------------------------------

    Molecular point group: c1
  Charge       = 0
  Multiplicity = 1
  Basis Set: AUG-CC-PVTZ
    Blend: AUG-CC-PVTZ
  Basis Set: (AUG-CC-PVTZ AUX)
    Blend: AUG-CC-PVTZ-JKFIT

    Orbital Energies [Eh]
    ---------------------

    Doubly Occupied:

       1A    -20.638077     2A    -20.566240     3A    -20.523357
       4A    -15.595761     5A    -11.407600     6A    -11.355813
       7A    -11.300159     8A    -11.248991     9A    -11.228779
      10A    -11.214267    11A     -1.480191    12A     -1.379775
      13A     -1.375358    14A     -1.249948    15A     -1.078030
      16A     -1.043915    17A     -0.930347    18A     -0.884215
      19A     -0.818723    20A     -0.791963    21A     -0.730074
      22A     -0.716215    23A     -0.683764    24A     -0.667758
      25A     -0.637518    26A     -0.633725    27A     -0.612742
      28A     -0.603493    29A     -0.583667    30A     -0.556833
      31A     -0.547368    32A     -0.536545    33A     -0.521237
      34A     -0.514282    35A     -0.495560    36A     -0.474318
      37A     -0.470261    38A     -0.423449    39A     -0.402586

  @DF-RHF Final Energy:  -512.87705450738019

   => Energetics <=

    Nuclear Repulsion Energy =            547.9759690483731447
    One-Electron Energy =               -1787.8602341644541411
    Two-Electron Energy =                 727.0072106087008024
    Total Energy =                       -512.8770545073801941
  Basis Set: (AUG-CC-PVTZ AUX)
    Blend: AUG-CC-PVTZ-RI
    Molecular point group: c1

    Geometry (in Angstrom), charge = 0, multiplicity = 1:

       Center              X                  Y                   Z               Mass
    ------------   -----------------  -----------------  -----------------  -----------------
         O           -1.981913336956     1.664179562341    -0.187154510439    15.994914619570
         O            1.720790263044    -1.206758037659     0.639723989561    15.994914619570
         O           -3.302699336956    -0.045098437659     0.492508489561    15.994914619570
         N            0.202747663044     0.271136562341    -0.272232510439    14.003074004430
         C           -0.962402336956    -0.494214437659     0.115255489561    12.000000000000
         C           -1.208152336956    -1.678835437659    -0.820840510439    12.000000000000
         C            2.620223663044     0.758334962341    -0.309504510439    12.000000000000
         C            1.456923663044    -0.145354437659     0.068251489561    12.000000000000
         C           -2.202157336956     0.368699562341     0.182113489561    12.000000000000
         C            3.939338663044     0.334898562341     0.113021489561    12.000000000000
         H           -0.795182336956    -0.886888437659     1.126484489561     1.007825032230
         H            0.063701663044     1.199436562341    -0.647503510439     1.007825032230
         H           -1.362867336956    -1.325491437659    -1.843240510439     1.007825032230
         H           -0.335221336956    -2.331871437659    -0.793911510439     1.007825032230
         H           -2.090133336956    -2.233314437659    -0.494738510439     1.007825032230
         H            2.536661663044     0.919569562341    -1.431247510439     1.007825032230
         H            2.344156663044     1.801887562341     0.071000489561     1.007825032230
         H            4.166882663044    -0.644613437659    -0.309344510439     1.007825032230
         H            4.708129663044     1.043239562341    -0.207413510439     1.007825032230
         H            3.979010663044     0.244223562341     1.199327489561     1.007825032230
         H           -2.857530336956     2.100545562341    -0.126275510439     1.007825032230

  Basis Set: AUG-CC-PVTZ
    Blend: AUG-CC-PVTZ
  Basis Set: (AUG-CC-PVTZ AUX)
    Blend: AUG-CC-PVTZ-JKFIT
	 Reference Energy          =    -512.8770545073801941 [Eh]
	 Singles Energy            =      -0.0000000000000000 [Eh]
	 Same-Spin Energy          =      -0.5118685892453463 [Eh]
	 Opposite-Spin Energy      =      -1.6155719308223169 [Eh]
	 Correlation Energy        =      -2.1274405200676632 [Eh]
	 Total Energy              =    -515.0044950274478879 [Eh]

	 ================> DF-SCS-MP2 Energies <==================
	-----------------------------------------------------------
	 SCS Same-Spin Scale       =       0.3333333333333333 [-]
	 SCS Opposite-Spin Scale   =       1.2000000000000000 [-]
	 SCS Same-Spin Energy      =      -0.1706228630817821 [Eh]
	 SCS Opposite-Spin Energy  =      -1.9386863169867801 [Eh]
	 SCS Correlation Energy    =      -2.1093091800685624 [Eh]
	 SCS Total Energy          =    -514.9863636874487156 [Eh]
	-----------------------------------------------------------

  Dipole Moment: [D]
     X:    -0.2724      Y:     3.2973      Z:    -1.8420     Total:     3.7868

*** Psi4 exiting successfully. Buy a developer a beer!
