                               Psi4 1.3.2 release

  ==> Input File <==

--------------------------------------------------------------------------
#psi4
#
memory 32 gb

molecule  {
0 1
  O       -1.9705880     1.6613530    -0.1848000
  O        1.6688240    -1.2224340     0.6437850
  O       -3.2913740    -0.0479250     0.4948630
  N        0.2140730     0.2683100    -0.2698780
  C       -0.9510770    -0.4970410     0.1176100
  C       -1.1968270    -1.6816620    -0.8184860
  C        2.5789920     0.8068070    -0.3378900
  C        1.3763464    -0.1176617     0.0456563
  C       -2.1908320     0.3658730     0.1844680
  C        3.9506640     0.3320720     0.1153760
  H       -0.7838570    -0.8897150     1.1288390
  H        0.0750270     1.1966100    -0.6451490
  H       -1.3515420    -1.3283180    -1.8408860
  H       -0.3238960    -2.3346980    -0.7915570
  H       -2.0788080    -2.2361410    -0.4923840
  H        2.5479870     0.9167430    -1.4288930
  H        2.3554820     1.7990610     0.0733550
  H        4.1782080    -0.6474400    -0.3069900
  H        4.7194550     1.0404130    -0.2050590
  H        3.9903360     0.2413970     1.2016820
  H       -2.8462050     2.0977190    -0.1239210
units angstrom
no_reorient  #important for SAPT in psi4, default
symmetry c1  #important for SAPT in psi4, default
}

set PROPERTIES_ORIGIN ["COM"]
properties('MP2/aug-cc-pvtz', properties = ['dipole'])
--------------------------------------------------------------------------

    Molecular point group: c1
  Charge       = 0
  Multiplicity = 1
  Basis Set: AUG-CC-PVTZ
    Blend: AUG-CC-PVTZ
  Basis Set: (AUG-CC-PVTZ AUX)
    Blend: AUG-CC-PVTZ-JKFIT

    Orbital Energies [Eh]
    ---------------------

    Doubly Occupied:

       1A    -20.643329     2A    -20.570811     3A    -20.505104
       4A    -15.609363     5A    -11.412554     6A    -11.348937
       7A    -11.306296     8A    -11.245752     9A    -11.232896
      10A    -11.215242    11A     -1.485421    12A     -1.380308
      13A     -1.362613    14A     -1.260363    15A     -1.082950
      16A     -1.034716    17A     -0.937129    18A     -0.881891
      19A     -0.827866    20A     -0.816029    21A     -0.741444
      22A     -0.721419    23A     -0.681946    24A     -0.663406
      25A     -0.641449    26A     -0.636400    27A     -0.617120
      28A     -0.598066    29A     -0.574082    30A     -0.552974
      31A     -0.548292    32A     -0.523390    33A     -0.521895
      34A     -0.506154    35A     -0.500076    36A     -0.483101
      37A     -0.473691    38A     -0.410506    39A     -0.402396

  @DF-RHF Final Energy:  -512.86920895220692

   => Energetics <=

    Nuclear Repulsion Energy =            548.6938594894986636
    One-Electron Energy =               -1789.2113846293204915
    Two-Electron Energy =                 727.6483161876149097
    Total Energy =                       -512.8692089522069182
  Basis Set: (AUG-CC-PVTZ AUX)
    Blend: AUG-CC-PVTZ-RI
    Molecular point group: c1

    Geometry (in Angstrom), charge = 0, multiplicity = 1:

       Center              X                  Y                   Z               Mass
    ------------   -----------------  -----------------  -----------------  -----------------
         O           -1.962986024280     1.658828566880    -0.182736202886    15.994914619570
         O            1.676425975720    -1.224958433120     0.645848797114    15.994914619570
         O           -3.283772024280    -0.050449433120     0.496926797114    15.994914619570
         N            0.221674975720     0.265785566880    -0.267814202886    14.003074004430
         C           -0.943475024280    -0.499565433120     0.119673797114    12.000000000000
         C           -1.189225024280    -1.684186433120    -0.816422202886    12.000000000000
         C            2.586593975720     0.804282566880    -0.335826202886    12.000000000000
         C            1.383948375720    -0.120186133120     0.047720097114    12.000000000000
         C           -2.183230024280     0.363348566880     0.186531797114    12.000000000000
         C            3.958265975720     0.329547566880     0.117439797114    12.000000000000
         H           -0.776255024280    -0.892239433120     1.130902797114     1.007825032230
         H            0.082628975720     1.194085566880    -0.643085202886     1.007825032230
         H           -1.343940024280    -1.330842433120    -1.838822202886     1.007825032230
         H           -0.316294024280    -2.337222433120    -0.789493202886     1.007825032230
         H           -2.071206024280    -2.238665433120    -0.490320202886     1.007825032230
         H            2.555588975720     0.914218566880    -1.426829202886     1.007825032230
         H            2.363083975720     1.796536566880     0.075418797114     1.007825032230
         H            4.185809975720    -0.649964433120    -0.304926202886     1.007825032230
         H            4.727056975720     1.037888566880    -0.202995202886     1.007825032230
         H            3.997937975720     0.238872566880     1.203745797114     1.007825032230
         H           -2.838603024280     2.095194566880    -0.121857202886     1.007825032230

  Basis Set: AUG-CC-PVTZ
    Blend: AUG-CC-PVTZ
  Basis Set: (AUG-CC-PVTZ AUX)
    Blend: AUG-CC-PVTZ-JKFIT
	 Reference Energy          =    -512.8692089522069182 [Eh]
	 Singles Energy            =      -0.0000000000000000 [Eh]
	 Same-Spin Energy          =      -0.5121239260586001 [Eh]
	 Opposite-Spin Energy      =      -1.6163664281186072 [Eh]
	 Correlation Energy        =      -2.1284903541772073 [Eh]
	 Total Energy              =    -514.9976993063841064 [Eh]

	 ================> DF-SCS-MP2 Energies <==================
	-----------------------------------------------------------
	 SCS Same-Spin Scale       =       0.3333333333333333 [-]
	 SCS Opposite-Spin Scale   =       1.2000000000000000 [-]
	 SCS Same-Spin Energy      =      -0.1707079753528667 [Eh]
	 SCS Opposite-Spin Energy  =      -1.9396397137423285 [Eh]
	 SCS Correlation Energy    =      -2.1103476890951951 [Eh]
	 SCS Total Energy          =    -514.9795566413021106 [Eh]
	-----------------------------------------------------------

  Dipole Moment: [D]
     X:    -0.9297      Y:     3.5963      Z:    -2.0862     Total:     4.2603

*** Psi4 exiting successfully. Buy a developer a beer!
