                               Psi4 1.4a3.dev225

  ==> Input File <==

--------------------------------------------------------------------------
#psi4
#
memory 32 gb

molecule  {
0 1
  O       -2.1439760    -1.5096120     0.4578230
  O        1.6019480     1.2946100    -0.5777250
  O       -3.1849820    -0.0999640    -0.9818910
  N        0.1649120    -0.2715720     0.2333030
  C       -0.9647690     0.4818640    -0.1088927
  C       -1.3212480     1.5963590     0.9125160
  C        2.5597860    -0.6480590     0.5035240
  C        1.4183570     0.2162400    -0.0039080
  C       -2.2159370    -0.3767160    -0.3010400
  C        3.7806550    -0.5458820    -0.4040570
  H       -0.8075500     0.9861290    -1.0847450
  H        0.0342290    -1.1271740     0.7572540
  H       -1.5188550     1.1449870     1.8886910
  H       -0.4592110     2.2615650     0.9886780
  H       -2.1947650     2.1753270     0.6002850
  H        2.8115640    -0.2961200     1.5118980
  H        2.2315720    -1.6889350     0.6045970
  H        4.0689510     0.4992230    -0.5227640
  H        4.6219880    -1.1034150     0.0157220
  H        3.5611410    -0.9492480    -1.3958190
  H       -2.9864200    -1.9858630     0.3018850
units angstrom
no_reorient  #important for SAPT in psi4, default
symmetry c1  #important for SAPT in psi4, default
}

set PROPERTIES_ORIGIN ["COM"]
properties('MP2/aug-cc-pvtz', properties = ['dipole'])
--------------------------------------------------------------------------

    Molecular point group: c1
  Charge       = 0
  Multiplicity = 1
  Basis Set: AUG-CC-PVTZ
    Blend: AUG-CC-PVTZ
  Basis Set: (AUG-CC-PVTZ AUX)
    Blend: AUG-CC-PVTZ-JKFIT

    Orbital Energies [Eh]
    ---------------------

    Doubly Occupied:

       1A    -20.632774     2A    -20.564472     3A    -20.525263
       4A    -15.597624     5A    -11.403337     6A    -11.359147
       7A    -11.295585     8A    -11.249221     9A    -11.232327
      10A    -11.222922    11A     -1.475071    12A     -1.383232
      13A     -1.371250    14A     -1.258000    15A     -1.074908
      16A     -1.034322    17A     -0.927287    18A     -0.887143
      19A     -0.821942    20A     -0.799518    21A     -0.731268
      22A     -0.713753    23A     -0.684327    24A     -0.659216
      25A     -0.641933    26A     -0.630776    27A     -0.607850
      28A     -0.601337    29A     -0.596119    30A     -0.547926
      31A     -0.544273    32A     -0.534510    33A     -0.524100
      34A     -0.513935    35A     -0.498288    36A     -0.486407
      37A     -0.466750    38A     -0.430100    39A     -0.398640

  @DF-RHF Final Energy:  -512.88339018915065

   => Energetics <=

    Nuclear Repulsion Energy =            548.1807150363154051
    One-Electron Energy =               -1788.2745064432244817
    Two-Electron Energy =                 727.2104012177584309
    Total Energy =                       -512.8833901891506457
  Basis Set: (AUG-CC-PVTZ AUX)
    Blend: AUG-CC-PVTZ-RI
    Molecular point group: c1

    Geometry (in Angstrom), charge = 0, multiplicity = 1:

       Center              X                  Y                   Z               Mass
    ------------   -----------------  -----------------  -----------------  -----------------
         O           -2.083414470905    -1.507963166676     0.481838706975    15.994914619570
         O            1.662509529095     1.296258833324    -0.553709293025    15.994914619570
         O           -3.124420470905    -0.098315166676    -0.957875293025    15.994914619570
         N            0.225473529095    -0.269923166676     0.257318706975    14.003074004430
         C           -0.904207470905     0.483512833324    -0.084876993025    12.000000000000
         C           -1.260686470905     1.598007833324     0.936531706975    12.000000000000
         C            2.620347529095    -0.646410166676     0.527539706975    12.000000000000
         C            1.478918529095     0.217888833324     0.020107706975    12.000000000000
         C           -2.155375470905    -0.375067166676    -0.277024293025    12.000000000000
         C            3.841216529095    -0.544233166676    -0.380041293025    12.000000000000
         H           -0.746988470905     0.987777833324    -1.060729293025     1.007825032230
         H            0.094790529095    -1.125525166676     0.781269706975     1.007825032230
         H           -1.458293470905     1.146635833324     1.912706706975     1.007825032230
         H           -0.398649470905     2.263213833324     1.012693706975     1.007825032230
         H           -2.134203470905     2.176975833324     0.624300706975     1.007825032230
         H            2.872125529095    -0.294471166676     1.535913706975     1.007825032230
         H            2.292133529095    -1.687286166676     0.628612706975     1.007825032230
         H            4.129512529095     0.500871833324    -0.498748293025     1.007825032230
         H            4.682549529095    -1.101766166676     0.039737706975     1.007825032230
         H            3.621702529095    -0.947599166676    -1.371803293025     1.007825032230
         H           -2.925858470905    -1.984214166676     0.325900706975     1.007825032230

  Basis Set: AUG-CC-PVTZ
    Blend: AUG-CC-PVTZ
  Basis Set: (AUG-CC-PVTZ AUX)
    Blend: AUG-CC-PVTZ-JKFIT
	 Reference Energy          =    -512.8833901891506457 [Eh]
	 Singles Energy            =      -0.0000000000000000 [Eh]
	 Same-Spin Energy          =      -0.5115525810683108 [Eh]
	 Opposite-Spin Energy      =      -1.6153631887929132 [Eh]
	 Correlation Energy        =      -2.1269157698612240 [Eh]
	 Total Energy              =    -515.0103059590118164 [Eh]

	 ================> DF-SCS-MP2 Energies <==================
	-----------------------------------------------------------
	 SCS Same-Spin Scale       =       0.3333333333333333 [-]
	 SCS Opposite-Spin Scale   =       1.2000000000000000 [-]
	 SCS Same-Spin Energy      =      -0.1705175270227703 [Eh]
	 SCS Opposite-Spin Energy  =      -1.9384358265514958 [Eh]
	 SCS Correlation Energy    =      -2.1089533535742659 [Eh]
	 SCS Total Energy          =    -514.9923435427249387 [Eh]
	-----------------------------------------------------------

  Dipole Moment: [D]
     X:    -0.0636      Y:    -3.0966      Z:     2.6368     Total:     4.0676

*** Psi4 exiting successfully. Buy a developer a beer!
