                               Psi4 1.3.2 release

  ==> Input File <==

--------------------------------------------------------------------------
#psi4
#
memory 32 gb

molecule  {
0 1
  O       -1.9705880     1.6613530    -0.1848000
  O        1.6688240    -1.2224340     0.6437850
  O       -3.2913740    -0.0479250     0.4948630
  N        0.2140730     0.2683100    -0.2698780
  C       -0.9510770    -0.4970410     0.1176100
  C       -1.2215794    -1.6727043    -0.8229430
  C        2.5789920     0.8068070    -0.3378900
  C        1.4682490    -0.1481810     0.0706060
  C       -2.2028988     0.3494305     0.1677228
  C        3.9506640     0.3320720     0.1153760
  H       -0.7838570    -0.8897150     1.1288390
  H        0.0750270     1.1966100    -0.6451490
  H       -1.3515420    -1.3283180    -1.8408860
  H       -0.3238960    -2.3346980    -0.7915570
  H       -2.0788080    -2.2361410    -0.4923840
  H        2.5479870     0.9167430    -1.4288930
  H        2.3554820     1.7990610     0.0733550
  H        4.1782080    -0.6474400    -0.3069900
  H        4.7194550     1.0404130    -0.2050590
  H        3.9903360     0.2413970     1.2016820
  H       -2.8462050     2.0977190    -0.1239210
units angstrom
no_reorient  #important for SAPT in psi4, default
symmetry c1  #important for SAPT in psi4, default
}

set PROPERTIES_ORIGIN ["COM"]
properties('MP2/aug-cc-pvtz', properties = ['dipole'])
--------------------------------------------------------------------------

    Molecular point group: c1
  Charge       = 0
  Multiplicity = 1
  Basis Set: AUG-CC-PVTZ
    Blend: AUG-CC-PVTZ
  Basis Set: (AUG-CC-PVTZ AUX)
    Blend: AUG-CC-PVTZ-JKFIT

    Orbital Energies [Eh]
    ---------------------

    Doubly Occupied:

       1A    -20.632381     2A    -20.566992     3A    -20.524551
       4A    -15.591916     5A    -11.404477     6A    -11.355962
       7A    -11.297357     8A    -11.247200     9A    -11.226904
      10A    -11.219505    11A     -1.476187    12A     -1.380808
      13A     -1.377560    14A     -1.245828    15A     -1.075932
      16A     -1.036524    17A     -0.926306    18A     -0.885175
      19A     -0.814548    20A     -0.791733    21A     -0.730626
      22A     -0.714193    23A     -0.682674    24A     -0.665699
      25A     -0.641061    26A     -0.634532    27A     -0.611524
      28A     -0.603602    29A     -0.581773    30A     -0.550458
      31A     -0.539687    32A     -0.525591    33A     -0.520968
      34A     -0.519739    35A     -0.499750    36A     -0.489902
      37A     -0.468619    38A     -0.428149    39A     -0.400181

  @DF-RHF Final Energy:  -512.88543228373385

   => Energetics <=

    Nuclear Repulsion Energy =            548.0205342731052269
    One-Electron Energy =               -1788.0387820943983570
    Two-Electron Energy =                 727.1328155375593951
    Total Energy =                       -512.8854322837338486
  Basis Set: (AUG-CC-PVTZ AUX)
    Blend: AUG-CC-PVTZ-RI
    Molecular point group: c1

    Geometry (in Angstrom), charge = 0, multiplicity = 1:

       Center              X                  Y                   Z               Mass
    ------------   -----------------  -----------------  -----------------  -----------------
         O           -1.967542328556     1.661972131790    -0.183046182848    15.994914619570
         O            1.671869671444    -1.221814868210     0.645538817152    15.994914619570
         O           -3.288328328556    -0.047305868210     0.496616817152    15.994914619570
         N            0.217118671444     0.268929131790    -0.268124182848    14.003074004430
         C           -0.948031328556    -0.496421868210     0.119363817152    12.000000000000
         C           -1.218533728556    -1.672085168210    -0.821189182848    12.000000000000
         C            2.582037671444     0.807426131790    -0.336136182848    12.000000000000
         C            1.471294671444    -0.147561868210     0.072359817152    12.000000000000
         C           -2.199853128556     0.350049631790     0.169476617152    12.000000000000
         C            3.953709671444     0.332691131790     0.117129817152    12.000000000000
         H           -0.780811328556    -0.889095868210     1.130592817152     1.007825032230
         H            0.078072671444     1.197229131790    -0.643395182848     1.007825032230
         H           -1.348496328556    -1.327698868210    -1.839132182848     1.007825032230
         H           -0.320850328556    -2.334078868210    -0.789803182848     1.007825032230
         H           -2.075762328556    -2.235521868210    -0.490630182848     1.007825032230
         H            2.551032671444     0.917362131790    -1.427139182848     1.007825032230
         H            2.358527671444     1.799680131790     0.075108817152     1.007825032230
         H            4.181253671444    -0.646820868210    -0.305236182848     1.007825032230
         H            4.722500671444     1.041032131790    -0.203305182848     1.007825032230
         H            3.993381671444     0.242016131790     1.203435817152     1.007825032230
         H           -2.843159328556     2.098338131790    -0.122167182848     1.007825032230

  Basis Set: AUG-CC-PVTZ
    Blend: AUG-CC-PVTZ
  Basis Set: (AUG-CC-PVTZ AUX)
    Blend: AUG-CC-PVTZ-JKFIT
	 Reference Energy          =    -512.8854322837338486 [Eh]
	 Singles Energy            =      -0.0000000000000000 [Eh]
	 Same-Spin Energy          =      -0.5112248933728780 [Eh]
	 Opposite-Spin Energy      =      -1.6147732088019775 [Eh]
	 Correlation Energy        =      -2.1259981021748553 [Eh]
	 Total Energy              =    -515.0114303859087386 [Eh]

	 ================> DF-SCS-MP2 Energies <==================
	-----------------------------------------------------------
	 SCS Same-Spin Scale       =       0.3333333333333333 [-]
	 SCS Opposite-Spin Scale   =       1.2000000000000000 [-]
	 SCS Same-Spin Energy      =      -0.1704082977909593 [Eh]
	 SCS Opposite-Spin Energy  =      -1.9377278505623730 [Eh]
	 SCS Correlation Energy    =      -2.1081361483533323 [Eh]
	 SCS Total Energy          =    -514.9935684320871587 [Eh]
	-----------------------------------------------------------

  Dipole Moment: [D]
     X:    -0.1423      Y:     3.2687      Z:    -1.8501     Total:     3.7586

*** Psi4 exiting successfully. Buy a developer a beer!
