                               Psi4 1.3.2 release

  ==> Input File <==

--------------------------------------------------------------------------
#psi4
#
memory 32 gb

molecule  {
0 1
  O       -1.9705880     1.6613530    -0.1848000
  O        1.6688240    -1.2224340     0.6437850
  O       -3.2913740    -0.0479250     0.4948630
  N        0.2140730     0.2683100    -0.2698780
  C       -0.9510770    -0.4970410     0.1176100
  C       -1.1968270    -1.6816620    -0.8184860
  C        2.5789920     0.8068070    -0.3378900
  C        1.4682490    -0.1481810     0.0706060
  C       -2.1908320     0.3658730     0.1844680
  C        3.9422179     0.3324298     0.1405332
  H       -0.7838570    -0.8897150     1.1288390
  H        0.0750270     1.1966100    -0.6451490
  H       -1.3515420    -1.3283180    -1.8408860
  H       -0.3238960    -2.3346980    -0.7915570
  H       -2.0788080    -2.2361410    -0.4923840
  H        2.5297366     0.9223906    -1.4276373
  H        2.3554820     1.7990610     0.0733550
  H        4.1782080    -0.6474400    -0.3069900
  H        4.7194550     1.0404130    -0.2050590
  H        3.9903360     0.2413970     1.2016820
  H       -2.8462050     2.0977190    -0.1239210
units angstrom
no_reorient  #important for SAPT in psi4, default
symmetry c1  #important for SAPT in psi4, default
}

set PROPERTIES_ORIGIN ["COM"]
properties('MP2/aug-cc-pvtz', properties = ['dipole'])
--------------------------------------------------------------------------

    Molecular point group: c1
  Charge       = 0
  Multiplicity = 1
  Basis Set: AUG-CC-PVTZ
    Blend: AUG-CC-PVTZ
  Basis Set: (AUG-CC-PVTZ AUX)
    Blend: AUG-CC-PVTZ-JKFIT

    Orbital Energies [Eh]
    ---------------------

    Doubly Occupied:

       1A    -20.636601     2A    -20.564566     3A    -20.524471
       4A    -15.591443     5A    -11.405710     6A    -11.355515
       7A    -11.297096     8A    -11.247438     9A    -11.226797
      10A    -11.219954    11A     -1.478646    12A     -1.380480
      13A     -1.373816    14A     -1.245997    15A     -1.075602
      16A     -1.035674    17A     -0.928251    18A     -0.886255
      19A     -0.816914    20A     -0.792668    21A     -0.731013
      22A     -0.714752    23A     -0.682592    24A     -0.666028
      25A     -0.641647    26A     -0.633744    27A     -0.610507
      28A     -0.603252    29A     -0.580248    30A     -0.546995
      31A     -0.544375    32A     -0.528474    33A     -0.521286
      34A     -0.516610    35A     -0.497696    36A     -0.488620
      37A     -0.468395    38A     -0.427892    39A     -0.400114

  @DF-RHF Final Energy:  -512.88512821366487

   => Energetics <=

    Nuclear Repulsion Energy =            548.1423819693969790
    One-Electron Energy =               -1788.2787551900985363
    Two-Electron Energy =                 727.2512450070365730
    Total Energy =                       -512.8851282136648706
  Basis Set: (AUG-CC-PVTZ AUX)
    Blend: AUG-CC-PVTZ-RI
    Molecular point group: c1

    Geometry (in Angstrom), charge = 0, multiplicity = 1:

       Center              X                  Y                   Z               Mass
    ------------   -----------------  -----------------  -----------------  -----------------
         O           -1.969762466052     1.661284185872    -0.186889591980    15.994914619570
         O            1.669649533948    -1.222502814128     0.641695408020    15.994914619570
         O           -3.290548466052    -0.047993814128     0.492773408020    15.994914619570
         N            0.214898533948     0.268241185872    -0.271967591980    14.003074004430
         C           -0.950251466052    -0.497109814128     0.115520408020    12.000000000000
         C           -1.196001466052    -1.681730814128    -0.820575591980    12.000000000000
         C            2.579817533948     0.806738185872    -0.339979591980    12.000000000000
         C            1.469074533948    -0.148249814128     0.068516408020    12.000000000000
         C           -2.190006466052     0.365804185872     0.182378408020    12.000000000000
         C            3.943043433948     0.332360985872     0.138443608020    12.000000000000
         H           -0.783031466052    -0.889783814128     1.126749408020     1.007825032230
         H            0.075852533948     1.196541185872    -0.647238591980     1.007825032230
         H           -1.350716466052    -1.328386814128    -1.842975591980     1.007825032230
         H           -0.323070466052    -2.334766814128    -0.793646591980     1.007825032230
         H           -2.077982466052    -2.236209814128    -0.494473591980     1.007825032230
         H            2.530562133948     0.922321785872    -1.429726891980     1.007825032230
         H            2.356307533948     1.798992185872     0.071265408020     1.007825032230
         H            4.179033533948    -0.647508814128    -0.309079591980     1.007825032230
         H            4.720280533948     1.040344185872    -0.207148591980     1.007825032230
         H            3.991161533948     0.241328185872     1.199592408020     1.007825032230
         H           -2.845379466052     2.097650185872    -0.126010591980     1.007825032230

  Basis Set: AUG-CC-PVTZ
    Blend: AUG-CC-PVTZ
  Basis Set: (AUG-CC-PVTZ AUX)
    Blend: AUG-CC-PVTZ-JKFIT
	 Reference Energy          =    -512.8851282136648706 [Eh]
	 Singles Energy            =      -0.0000000000000000 [Eh]
	 Same-Spin Energy          =      -0.5113480202391329 [Eh]
	 Opposite-Spin Energy      =      -1.6149616204042769 [Eh]
	 Correlation Energy        =      -2.1263096406434099 [Eh]
	 Total Energy              =    -515.0114378543082694 [Eh]

	 ================> DF-SCS-MP2 Energies <==================
	-----------------------------------------------------------
	 SCS Same-Spin Scale       =       0.3333333333333333 [-]
	 SCS Opposite-Spin Scale   =       1.2000000000000000 [-]
	 SCS Same-Spin Energy      =      -0.1704493400797110 [Eh]
	 SCS Opposite-Spin Energy  =      -1.9379539444851321 [Eh]
	 SCS Correlation Energy    =      -2.1084032845648433 [Eh]
	 SCS Total Energy          =    -514.9935314982296859 [Eh]
	-----------------------------------------------------------

  Dipole Moment: [D]
     X:    -0.0939      Y:     3.3701      Z:    -1.8505     Total:     3.8458

*** Psi4 exiting successfully. Buy a developer a beer!
