                               Psi4 1.3.2 release

  ==> Input File <==

--------------------------------------------------------------------------
#psi4
#
memory 32 gb

molecule  {
0 1
  O       -1.9705880     1.6613530    -0.1848000
  O        1.6688240    -1.2224340     0.6437850
  O       -3.2913740    -0.0479250     0.4948630
  N        0.1964734     0.2286394    -0.2502441
  C       -0.9510770    -0.4970410     0.1176100
  C       -1.1968270    -1.6816620    -0.8184860
  C        2.6143028     0.7733483    -0.3166477
  C        1.4682490    -0.1481810     0.0706060
  C       -2.1908320     0.3658730     0.1844680
  C        3.9506640     0.3320720     0.1153760
  H       -0.7838570    -0.8897150     1.1288390
  H        0.0750270     1.1966100    -0.6451490
  H       -1.3515420    -1.3283180    -1.8408860
  H       -0.3238960    -2.3346980    -0.7915570
  H       -2.0788080    -2.2361410    -0.4923840
  H        2.5479870     0.9167430    -1.4288930
  H        2.3554820     1.7990610     0.0733550
  H        4.1782080    -0.6474400    -0.3069900
  H        4.7194550     1.0404130    -0.2050590
  H        3.9903360     0.2413970     1.2016820
  H       -2.8462050     2.0977190    -0.1239210
units angstrom
no_reorient  #important for SAPT in psi4, default
symmetry c1  #important for SAPT in psi4, default
}

set PROPERTIES_ORIGIN ["COM"]
properties('MP2/aug-cc-pvtz', properties = ['dipole'])
--------------------------------------------------------------------------

    Molecular point group: c1
  Charge       = 0
  Multiplicity = 1
  Basis Set: AUG-CC-PVTZ
    Blend: AUG-CC-PVTZ
  Basis Set: (AUG-CC-PVTZ AUX)
    Blend: AUG-CC-PVTZ-JKFIT

    Orbital Energies [Eh]
    ---------------------

    Doubly Occupied:

       1A    -20.636590     2A    -20.564429     3A    -20.521412
       4A    -15.593571     5A    -11.405808     6A    -11.355563
       7A    -11.294441     8A    -11.253055     9A    -11.225221
      10A    -11.219023    11A     -1.478643    12A     -1.381351
      13A     -1.373678    14A     -1.249601    15A     -1.078329
      16A     -1.040205    17A     -0.929236    18A     -0.887480
      19A     -0.816814    20A     -0.785761    21A     -0.734255
      22A     -0.713040    23A     -0.686517    24A     -0.665581
      25A     -0.639484    26A     -0.633098    27A     -0.611000
      28A     -0.600592    29A     -0.581836    30A     -0.553794
      31A     -0.545376    32A     -0.535018    33A     -0.519597
      34A     -0.518531    35A     -0.495193    36A     -0.481402
      37A     -0.468191    38A     -0.426666    39A     -0.395855

  @DF-RHF Final Energy:  -512.87804714126935

   => Energetics <=

    Nuclear Repulsion Energy =            548.8037526917005380
    One-Electron Energy =               -1789.5731252360831149
    Two-Electron Energy =                 727.8913254031132283
    Total Energy =                       -512.8780471412693487
  Basis Set: (AUG-CC-PVTZ AUX)
    Blend: AUG-CC-PVTZ-RI
    Molecular point group: c1

    Geometry (in Angstrom), charge = 0, multiplicity = 1:

       Center              X                  Y                   Z               Mass
    ------------   -----------------  -----------------  -----------------  -----------------
         O           -1.971809888246     1.667949755526    -0.188452179319    15.994914619570
         O            1.667602111754    -1.215837244474     0.640132820681    15.994914619570
         O           -3.292595888246    -0.041328244474     0.491210820681    15.994914619570
         N            0.195251511754     0.235236155526    -0.253896279319    14.003074004430
         C           -0.952298888246    -0.490444244474     0.113957820681    12.000000000000
         C           -1.198048888246    -1.675065244474    -0.822138179319    12.000000000000
         C            2.613080911754     0.779945055526    -0.320299879319    12.000000000000
         C            1.467027111754    -0.141584244474     0.066953820681    12.000000000000
         C           -2.192053888246     0.372469755526     0.180815820681    12.000000000000
         C            3.949442111754     0.338668755526     0.111723820681    12.000000000000
         H           -0.785078888246    -0.883118244474     1.125186820681     1.007825032230
         H            0.073805111754     1.203206755526    -0.648801179319     1.007825032230
         H           -1.352763888246    -1.321721244474    -1.844538179319     1.007825032230
         H           -0.325117888246    -2.328101244474    -0.795209179319     1.007825032230
         H           -2.080029888246    -2.229544244474    -0.496036179319     1.007825032230
         H            2.546765111754     0.923339755526    -1.432545179319     1.007825032230
         H            2.354260111754     1.805657755526     0.069702820681     1.007825032230
         H            4.176986111754    -0.640843244474    -0.310642179319     1.007825032230
         H            4.718233111754     1.047009755526    -0.208711179319     1.007825032230
         H            3.989114111754     0.247993755526     1.198029820681     1.007825032230
         H           -2.847426888246     2.104315755526    -0.127573179319     1.007825032230

  Basis Set: AUG-CC-PVTZ
    Blend: AUG-CC-PVTZ
  Basis Set: (AUG-CC-PVTZ AUX)
    Blend: AUG-CC-PVTZ-JKFIT
	 Reference Energy          =    -512.8780471412693487 [Eh]
	 Singles Energy            =      -0.0000000000000000 [Eh]
	 Same-Spin Energy          =      -0.5122232302945116 [Eh]
	 Opposite-Spin Energy      =      -1.6159154216473151 [Eh]
	 Correlation Energy        =      -2.1281386519418266 [Eh]
	 Total Energy              =    -515.0061857932112162 [Eh]

	 ================> DF-SCS-MP2 Energies <==================
	-----------------------------------------------------------
	 SCS Same-Spin Scale       =       0.3333333333333333 [-]
	 SCS Opposite-Spin Scale   =       1.2000000000000000 [-]
	 SCS Same-Spin Energy      =      -0.1707410767648372 [Eh]
	 SCS Opposite-Spin Energy  =      -1.9390985059767780 [Eh]
	 SCS Correlation Energy    =      -2.1098395827416150 [Eh]
	 SCS Total Energy          =    -514.9878867240109912 [Eh]
	-----------------------------------------------------------

  Dipole Moment: [D]
     X:     0.0227      Y:     3.4544      Z:    -1.8808     Total:     3.9333

*** Psi4 exiting successfully. Buy a developer a beer!
