                               Psi4 1.3.2 release

  ==> Input File <==

--------------------------------------------------------------------------
#psi4
#
memory 32 gb

molecule  {
0 1
  O       -1.9705880     1.6613530    -0.1848000
  O        1.6688240    -1.2224340     0.6437850
  O       -3.2831707    -0.0673423     0.4973373
  N        0.2140730     0.2683100    -0.2698780
  C       -0.9654783    -0.5178972     0.1249574
  C       -1.1968270    -1.6816620    -0.8184860
  C        2.5789920     0.8068070    -0.3378900
  C        1.4682490    -0.1481810     0.0706060
  C       -2.1908320     0.3658730     0.1844680
  C        3.9506640     0.3320720     0.1153760
  H       -0.7838570    -0.8897150     1.1288390
  H        0.0750270     1.1966100    -0.6451490
  H       -1.3515420    -1.3283180    -1.8408860
  H       -0.3238960    -2.3346980    -0.7915570
  H       -2.0788080    -2.2361410    -0.4923840
  H        2.5479870     0.9167430    -1.4288930
  H        2.3554820     1.7990610     0.0733550
  H        4.1782080    -0.6474400    -0.3069900
  H        4.7194550     1.0404130    -0.2050590
  H        3.9903360     0.2413970     1.2016820
  H       -2.8462050     2.0977190    -0.1239210
units angstrom
no_reorient  #important for SAPT in psi4, default
symmetry c1  #important for SAPT in psi4, default
}

set PROPERTIES_ORIGIN ["COM"]
properties('MP2/aug-cc-pvtz', properties = ['dipole'])
--------------------------------------------------------------------------

    Molecular point group: c1
  Charge       = 0
  Multiplicity = 1
  Basis Set: AUG-CC-PVTZ
    Blend: AUG-CC-PVTZ
  Basis Set: (AUG-CC-PVTZ AUX)
    Blend: AUG-CC-PVTZ-JKFIT

    Orbital Energies [Eh]
    ---------------------

    Doubly Occupied:

       1A    -20.639159     2A    -20.565182     3A    -20.522991
       4A    -15.589901     5A    -11.406156     6A    -11.354243
       7A    -11.296981     8A    -11.246197     9A    -11.226377
      10A    -11.218817    11A     -1.479210    12A     -1.378596
      13A     -1.375964    14A     -1.240041    15A     -1.075665
      16A     -1.036433    17A     -0.928119    18A     -0.884437
      19A     -0.817864    20A     -0.790099    21A     -0.729042
      22A     -0.715800    23A     -0.680800    24A     -0.666843
      25A     -0.640722    26A     -0.634129    27A     -0.612025
      28A     -0.601966    29A     -0.579819    30A     -0.548746
      31A     -0.544394    32A     -0.522787    33A     -0.521559
      34A     -0.519130    35A     -0.497826    36A     -0.489069
      37A     -0.468637    38A     -0.426478    39A     -0.400212

  @DF-RHF Final Energy:  -512.88528340344089

   => Energetics <=

    Nuclear Repulsion Energy =            547.8666361164207501
    One-Electron Energy =               -1787.7590055018742987
    Two-Electron Energy =                 727.0070859820126543
    Total Energy =                       -512.8852834034408943
  Basis Set: (AUG-CC-PVTZ AUX)
    Blend: AUG-CC-PVTZ-RI
    Molecular point group: c1

    Geometry (in Angstrom), charge = 0, multiplicity = 1:

       Center              X                  Y                   Z               Mass
    ------------   -----------------  -----------------  -----------------  -----------------
         O           -1.970301101166     1.665218993408    -0.185680505322    15.994914619570
         O            1.669110898834    -1.218568006592     0.642904494678    15.994914619570
         O           -3.282883801166    -0.063476306592     0.496456794678    15.994914619570
         N            0.214359898834     0.272175993408    -0.270758505322    14.003074004430
         C           -0.965191401166    -0.514031206592     0.124076894678    12.000000000000
         C           -1.196540101166    -1.677796006592    -0.819366505322    12.000000000000
         C            2.579278898834     0.810672993408    -0.338770505322    12.000000000000
         C            1.468535898834    -0.144315006592     0.069725494678    12.000000000000
         C           -2.190545101166     0.369738993408     0.183587494678    12.000000000000
         C            3.950950898834     0.335937993408     0.114495494678    12.000000000000
         H           -0.783570101166    -0.885849006592     1.127958494678     1.007825032230
         H            0.075313898834     1.200475993408    -0.646029505322     1.007825032230
         H           -1.351255101166    -1.324452006592    -1.841766505322     1.007825032230
         H           -0.323609101166    -2.330832006592    -0.792437505322     1.007825032230
         H           -2.078521101166    -2.232275006592    -0.493264505322     1.007825032230
         H            2.548273898834     0.920608993408    -1.429773505322     1.007825032230
         H            2.355768898834     1.802926993408     0.072474494678     1.007825032230
         H            4.178494898834    -0.643574006592    -0.307870505322     1.007825032230
         H            4.719741898834     1.044278993408    -0.205939505322     1.007825032230
         H            3.990622898834     0.245262993408     1.200801494678     1.007825032230
         H           -2.845918101166     2.101584993408    -0.124801505322     1.007825032230

  Basis Set: AUG-CC-PVTZ
    Blend: AUG-CC-PVTZ
  Basis Set: (AUG-CC-PVTZ AUX)
    Blend: AUG-CC-PVTZ-JKFIT
	 Reference Energy          =    -512.8852834034408943 [Eh]
	 Singles Energy            =      -0.0000000000000000 [Eh]
	 Same-Spin Energy          =      -0.5112250309860509 [Eh]
	 Opposite-Spin Energy      =      -1.6149897061536396 [Eh]
	 Correlation Energy        =      -2.1262147371396907 [Eh]
	 Total Energy              =    -515.0114981405805565 [Eh]

	 ================> DF-SCS-MP2 Energies <==================
	-----------------------------------------------------------
	 SCS Same-Spin Scale       =       0.3333333333333333 [-]
	 SCS Opposite-Spin Scale   =       1.2000000000000000 [-]
	 SCS Same-Spin Energy      =      -0.1704083436620170 [Eh]
	 SCS Opposite-Spin Energy  =      -1.9379876473843674 [Eh]
	 SCS Correlation Energy    =      -2.1083959910463843 [Eh]
	 SCS Total Energy          =    -514.9936793944872306 [Eh]
	-----------------------------------------------------------

  Dipole Moment: [D]
     X:    -0.2173      Y:     3.3904      Z:    -1.8613     Total:     3.8739

*** Psi4 exiting successfully. Buy a developer a beer!
