                               Psi4 1.4a3.dev225

  ==> Input File <==

--------------------------------------------------------------------------
#psi4
#
memory 32 gb

molecule  {
0 1
  O       -2.1439760    -1.5096120     0.4578230
  O        1.6019480     1.2946100    -0.5777250
  O       -3.1849820    -0.0999640    -0.9818910
  N        0.1649120    -0.2715720     0.2333030
  C       -1.0051050     0.5087660    -0.1211110
  C       -1.3212480     1.5963590     0.9125160
  C        2.5597860    -0.6480590     0.5035240
  C        1.4183570     0.2162400    -0.0039080
  C       -2.2185720    -0.3352322    -0.3288276
  C        3.7806550    -0.5458820    -0.4040570
  H       -0.8075500     0.9861290    -1.0847450
  H        0.0342290    -1.1271740     0.7572540
  H       -1.5188550     1.1449870     1.8886910
  H       -0.4592110     2.2615650     0.9886780
  H       -2.1947650     2.1753270     0.6002850
  H        2.8115640    -0.2961200     1.5118980
  H        2.2315720    -1.6889350     0.6045970
  H        4.0689510     0.4992230    -0.5227640
  H        4.6219880    -1.1034150     0.0157220
  H        3.5611410    -0.9492480    -1.3958190
  H       -2.9864200    -1.9858630     0.3018850
units angstrom
no_reorient  #important for SAPT in psi4, default
symmetry c1  #important for SAPT in psi4, default
}

set PROPERTIES_ORIGIN ["COM"]
properties('MP2/aug-cc-pvtz', properties = ['dipole'])
--------------------------------------------------------------------------

    Molecular point group: c1
  Charge       = 0
  Multiplicity = 1
  Basis Set: AUG-CC-PVTZ
    Blend: AUG-CC-PVTZ
  Basis Set: (AUG-CC-PVTZ AUX)
    Blend: AUG-CC-PVTZ-JKFIT

    Orbital Energies [Eh]
    ---------------------

    Doubly Occupied:

       1A    -20.619682     2A    -20.573065     3A    -20.523161
       4A    -15.596644     5A    -11.403457     6A    -11.357472
       7A    -11.297667     8A    -11.247912     9A    -11.235124
      10A    -11.221976    11A     -1.469047    12A     -1.380468
      13A     -1.373838    14A     -1.246473    15A     -1.078591
      16A     -1.039614    17A     -0.928494    18A     -0.885545
      19A     -0.813990    20A     -0.792005    21A     -0.727002
      22A     -0.711772    23A     -0.679872    24A     -0.657612
      25A     -0.642094    26A     -0.629087    27A     -0.612717
      28A     -0.600435    29A     -0.593189    30A     -0.553095
      31A     -0.543107    32A     -0.535344    33A     -0.523928
      34A     -0.514818    35A     -0.502713    36A     -0.490311
      37A     -0.470569    38A     -0.428141    39A     -0.401865

  @DF-RHF Final Energy:  -512.88407940045045

   => Energetics <=

    Nuclear Repulsion Energy =            547.7343616085260010
    One-Electron Energy =               -1787.4330805001468434
    Two-Electron Energy =                 726.8146394911705102
    Total Energy =                       -512.8840794004504460
  Basis Set: (AUG-CC-PVTZ AUX)
    Blend: AUG-CC-PVTZ-RI
    Molecular point group: c1

    Geometry (in Angstrom), charge = 0, multiplicity = 1:

       Center              X                  Y                   Z               Mass
    ------------   -----------------  -----------------  -----------------  -----------------
         O           -2.079860061572    -1.513619798492     0.485147853709    15.994914619570
         O            1.666063938428     1.290602201508    -0.550400146291    15.994914619570
         O           -3.120866061572    -0.103971798492    -0.954566146291    15.994914619570
         N            0.229027938428    -0.275579798492     0.260627853709    14.003074004430
         C           -0.940989061572     0.504758201508    -0.093786146291    12.000000000000
         C           -1.257132061572     1.592351201508     0.939840853709    12.000000000000
         C            2.623901938428    -0.652066798492     0.530848853709    12.000000000000
         C            1.482472938428     0.212232201508     0.023416853709    12.000000000000
         C           -2.154456061572    -0.339239998492    -0.301502746291    12.000000000000
         C            3.844770938428    -0.549889798492    -0.376732146291    12.000000000000
         H           -0.743434061572     0.982121201508    -1.057420146291     1.007825032230
         H            0.098344938428    -1.131181798492     0.784578853709     1.007825032230
         H           -1.454739061572     1.140979201508     1.916015853709     1.007825032230
         H           -0.395095061572     2.257557201508     1.016002853709     1.007825032230
         H           -2.130649061572     2.171319201508     0.627609853709     1.007825032230
         H            2.875679938428    -0.300127798492     1.539222853709     1.007825032230
         H            2.295687938428    -1.692942798492     0.631921853709     1.007825032230
         H            4.133066938428     0.495215201508    -0.495439146291     1.007825032230
         H            4.686103938428    -1.107422798492     0.043046853709     1.007825032230
         H            3.625256938428    -0.953255798492    -1.368494146291     1.007825032230
         H           -2.922304061572    -1.989870798492     0.329209853709     1.007825032230

  Basis Set: AUG-CC-PVTZ
    Blend: AUG-CC-PVTZ
  Basis Set: (AUG-CC-PVTZ AUX)
    Blend: AUG-CC-PVTZ-JKFIT
	 Reference Energy          =    -512.8840794004504460 [Eh]
	 Singles Energy            =      -0.0000000000000000 [Eh]
	 Same-Spin Energy          =      -0.5111131833812930 [Eh]
	 Opposite-Spin Energy      =      -1.6152680572210936 [Eh]
	 Correlation Energy        =      -2.1263812406023863 [Eh]
	 Total Energy              =    -515.0104606410528731 [Eh]

	 ================> DF-SCS-MP2 Energies <==================
	-----------------------------------------------------------
	 SCS Same-Spin Scale       =       0.3333333333333333 [-]
	 SCS Opposite-Spin Scale   =       1.2000000000000000 [-]
	 SCS Same-Spin Energy      =      -0.1703710611270977 [Eh]
	 SCS Opposite-Spin Energy  =      -1.9383216686653122 [Eh]
	 SCS Correlation Energy    =      -2.1086927297924096 [Eh]
	 SCS Total Energy          =    -514.9927721302428836 [Eh]
	-----------------------------------------------------------

  Dipole Moment: [D]
     X:    -0.2449      Y:    -2.7118      Z:     2.4305     Total:     3.6498

*** Psi4 exiting successfully. Buy a developer a beer!
