                               Psi4 1.3.2 release

  ==> Input File <==

--------------------------------------------------------------------------
#psi4
#
memory 32 gb

molecule  {
0 1
  O       -1.9705880     1.6613530    -0.1848000
  O        1.6688240    -1.2224340     0.6437850
  O       -3.2913740    -0.0479250     0.4948630
  N        0.2140730     0.2683100    -0.2698780
  C       -0.9510770    -0.4970410     0.1176100
  C       -1.2289574    -1.8365443    -0.9408751
  C        2.5789920     0.8068070    -0.3378900
  C        1.4682490    -0.1481810     0.0706060
  C       -2.1908320     0.3658730     0.1844680
  C        3.9506640     0.3320720     0.1153760
  H       -0.7838570    -0.8897150     1.1288390
  H        0.0750270     1.1966100    -0.6451490
  H       -1.3515420    -1.3283180    -1.8408860
  H       -0.3238960    -2.3346980    -0.7915570
  H       -2.0788080    -2.2361410    -0.4923840
  H        2.5479870     0.9167430    -1.4288930
  H        2.3554820     1.7990610     0.0733550
  H        4.1782080    -0.6474400    -0.3069900
  H        4.7194550     1.0404130    -0.2050590
  H        3.9903360     0.2413970     1.2016820
  H       -2.8462050     2.0977190    -0.1239210
units angstrom
no_reorient  #important for SAPT in psi4, default
symmetry c1  #important for SAPT in psi4, default
}

set PROPERTIES_ORIGIN ["COM"]
properties('MP2/aug-cc-pvtz', properties = ['dipole'])
--------------------------------------------------------------------------

    Molecular point group: c1
  Charge       = 0
  Multiplicity = 1
  Basis Set: AUG-CC-PVTZ
    Blend: AUG-CC-PVTZ
  Basis Set: (AUG-CC-PVTZ AUX)
    Blend: AUG-CC-PVTZ-JKFIT

    Orbital Energies [Eh]
    ---------------------

    Doubly Occupied:

       1A    -20.634896     2A    -20.561952     3A    -20.524738
       4A    -15.592664     5A    -11.403948     6A    -11.355608
       7A    -11.300284     8A    -11.247243     9A    -11.230656
      10A    -11.219603    11A     -1.476657    12A     -1.380301
      13A     -1.371667    14A     -1.242348    15A     -1.067302
      16A     -1.023463    17A     -0.936885    18A     -0.885139
      19A     -0.817760    20A     -0.791943    21A     -0.726882
      22A     -0.712830    23A     -0.679944    24A     -0.663126
      25A     -0.641282    26A     -0.630633    27A     -0.612640
      28A     -0.606116    29A     -0.581336    30A     -0.570403
      31A     -0.549452    32A     -0.528968    33A     -0.520129
      34A     -0.508848    35A     -0.498361    36A     -0.477535
      37A     -0.468014    38A     -0.428766    39A     -0.384220

  @DF-RHF Final Energy:  -512.86040880989356

   => Energetics <=

    Nuclear Repulsion Energy =            544.3563861035197533
    One-Electron Energy =               -1780.7245065460604110
    Two-Electron Energy =                 723.5077116326471014
    Total Energy =                       -512.8604088098935563
  Basis Set: (AUG-CC-PVTZ AUX)
    Blend: AUG-CC-PVTZ-RI
    Molecular point group: c1

    Geometry (in Angstrom), charge = 0, multiplicity = 1:

       Center              X                  Y                   Z               Mass
    ------------   -----------------  -----------------  -----------------  -----------------
         O           -1.967930169530     1.674164332335    -0.174676359905    15.994914619570
         O            1.671481830470    -1.209622667665     0.653908640095    15.994914619570
         O           -3.288716169530    -0.035113667665     0.504986640095    15.994914619570
         N            0.216730830470     0.281121332335    -0.259754359905    14.003074004430
         C           -0.948419169530    -0.484229667665     0.127733640095    12.000000000000
         C           -1.226299569530    -1.823732967665    -0.930751459905    12.000000000000
         C            2.581649830470     0.819618332335    -0.327766359905    12.000000000000
         C            1.470906830470    -0.135369667665     0.080729640095    12.000000000000
         C           -2.188174169530     0.378684332335     0.194591640095    12.000000000000
         C            3.953321830470     0.344883332335     0.125499640095    12.000000000000
         H           -0.781199169530    -0.876903667665     1.138962640095     1.007825032230
         H            0.077684830470     1.209421332335    -0.635025359905     1.007825032230
         H           -1.348884169530    -1.315506667665    -1.830762359905     1.007825032230
         H           -0.321238169530    -2.321886667665    -0.781433359905     1.007825032230
         H           -2.076150169530    -2.223329667665    -0.482260359905     1.007825032230
         H            2.550644830470     0.929554332335    -1.418769359905     1.007825032230
         H            2.358139830470     1.811872332335     0.083478640095     1.007825032230
         H            4.180865830470    -0.634628667665    -0.296866359905     1.007825032230
         H            4.722112830470     1.053224332335    -0.194935359905     1.007825032230
         H            3.992993830470     0.254208332335     1.211805640095     1.007825032230
         H           -2.843547169530     2.110530332335    -0.113797359905     1.007825032230

  Basis Set: AUG-CC-PVTZ
    Blend: AUG-CC-PVTZ
  Basis Set: (AUG-CC-PVTZ AUX)
    Blend: AUG-CC-PVTZ-JKFIT
	 Reference Energy          =    -512.8604088098935563 [Eh]
	 Singles Energy            =      -0.0000000000000000 [Eh]
	 Same-Spin Energy          =      -0.5114492707063901 [Eh]
	 Opposite-Spin Energy      =      -1.6161175560661631 [Eh]
	 Correlation Energy        =      -2.1275668267725534 [Eh]
	 Total Energy              =    -514.9879756366660786 [Eh]

	 ================> DF-SCS-MP2 Energies <==================
	-----------------------------------------------------------
	 SCS Same-Spin Scale       =       0.3333333333333333 [-]
	 SCS Opposite-Spin Scale   =       1.2000000000000000 [-]
	 SCS Same-Spin Energy      =      -0.1704830902354634 [Eh]
	 SCS Opposite-Spin Energy  =      -1.9393410672793956 [Eh]
	 SCS Correlation Energy    =      -2.1098241575148591 [Eh]
	 SCS Total Energy          =    -514.9702329674083785 [Eh]
	-----------------------------------------------------------

  Dipole Moment: [D]
     X:    -0.0062      Y:     3.3886      Z:    -1.8734     Total:     3.8720

*** Psi4 exiting successfully. Buy a developer a beer!
