                               Psi4 1.3.2 release

  ==> Input File <==

--------------------------------------------------------------------------
#psi4
#
memory 32 gb

molecule  {
0 1
  O       -1.9705880     1.6613530    -0.1848000
  O        1.6476300    -1.2262609     0.6436245
  O       -3.2913740    -0.0479250     0.4948630
  N        0.2051180     0.2483338    -0.2604946
  C       -0.9510770    -0.4970410     0.1176100
  C       -1.1968270    -1.6816620    -0.8184860
  C        2.5789920     0.8068070    -0.3378900
  C        1.4682490    -0.1481810     0.0706060
  C       -2.1908320     0.3658730     0.1844680
  C        3.9506640     0.3320720     0.1153760
  H       -0.7838570    -0.8897150     1.1288390
  H        0.0750270     1.1966100    -0.6451490
  H       -1.3515420    -1.3283180    -1.8408860
  H       -0.3238960    -2.3346980    -0.7915570
  H       -2.0788080    -2.2361410    -0.4923840
  H        2.5479870     0.9167430    -1.4288930
  H        2.3554820     1.7990610     0.0733550
  H        4.1782080    -0.6474400    -0.3069900
  H        4.7194550     1.0404130    -0.2050590
  H        3.9903360     0.2413970     1.2016820
  H       -2.8462050     2.0977190    -0.1239210
units angstrom
no_reorient  #important for SAPT in psi4, default
symmetry c1  #important for SAPT in psi4, default
}

set PROPERTIES_ORIGIN ["COM"]
properties('MP2/aug-cc-pvtz', properties = ['dipole'])
--------------------------------------------------------------------------

    Molecular point group: c1
  Charge       = 0
  Multiplicity = 1
  Basis Set: AUG-CC-PVTZ
    Blend: AUG-CC-PVTZ
  Basis Set: (AUG-CC-PVTZ AUX)
    Blend: AUG-CC-PVTZ-JKFIT

    Orbital Energies [Eh]
    ---------------------

    Doubly Occupied:

       1A    -20.636120     2A    -20.563971     3A    -20.523389
       4A    -15.591200     5A    -11.405164     6A    -11.355778
       7A    -11.294819     8A    -11.249646     9A    -11.225389
      10A    -11.221093    11A     -1.478153    12A     -1.381342
      13A     -1.373256    14A     -1.246297    15A     -1.075988
      16A     -1.035548    17A     -0.928042    18A     -0.887184
      19A     -0.816210    20A     -0.789256    21A     -0.732922
      22A     -0.713429    23A     -0.684433    24A     -0.665365
      25A     -0.642183    26A     -0.633398    27A     -0.610127
      28A     -0.601296    29A     -0.580921    30A     -0.546695
      31A     -0.544102    32A     -0.526100    33A     -0.521604
      34A     -0.520246    35A     -0.498086    36A     -0.488299
      37A     -0.467748    38A     -0.428694    39A     -0.397205

  @DF-RHF Final Energy:  -512.88453904981759

   => Energetics <=

    Nuclear Repulsion Energy =            548.4605628995175266
    One-Electron Energy =               -1788.9288083705955614
    Two-Electron Energy =                 727.5837064212604446
    Total Energy =                       -512.8845390498175902
  Basis Set: (AUG-CC-PVTZ AUX)
    Blend: AUG-CC-PVTZ-RI
    Molecular point group: c1

    Geometry (in Angstrom), charge = 0, multiplicity = 1:

       Center              X                  Y                   Z               Mass
    ------------   -----------------  -----------------  -----------------  -----------------
         O           -1.967386798518     1.663703122391    -0.185687979055    15.994914619570
         O            1.650831201482    -1.223910777609     0.642736520945    15.994914619570
         O           -3.288172798518    -0.045574877609     0.493975020945    15.994914619570
         N            0.208319201482     0.250683922391    -0.261382579055    14.003074004430
         C           -0.947875798518    -0.494690877609     0.116722020945    12.000000000000
         C           -1.193625798518    -1.679311877609    -0.819373979055    12.000000000000
         C            2.582193201482     0.809157122391    -0.338777979055    12.000000000000
         C            1.471450201482    -0.145830877609     0.069718020945    12.000000000000
         C           -2.187630798518     0.368223122391     0.183580020945    12.000000000000
         C            3.953865201482     0.334422122391     0.114488020945    12.000000000000
         H           -0.780655798518    -0.887364877609     1.127951020945     1.007825032230
         H            0.078228201482     1.198960122391    -0.646036979055     1.007825032230
         H           -1.348340798518    -1.325967877609    -1.841773979055     1.007825032230
         H           -0.320694798518    -2.332347877609    -0.792444979055     1.007825032230
         H           -2.075606798518    -2.233790877609    -0.493271979055     1.007825032230
         H            2.551188201482     0.919093122391    -1.429780979055     1.007825032230
         H            2.358683201482     1.801411122391     0.072467020945     1.007825032230
         H            4.181409201482    -0.645089877609    -0.307877979055     1.007825032230
         H            4.722656201482     1.042763122391    -0.205946979055     1.007825032230
         H            3.993537201482     0.243747122391     1.200794020945     1.007825032230
         H           -2.843003798518     2.100069122391    -0.124808979055     1.007825032230

  Basis Set: AUG-CC-PVTZ
    Blend: AUG-CC-PVTZ
  Basis Set: (AUG-CC-PVTZ AUX)
    Blend: AUG-CC-PVTZ-JKFIT
	 Reference Energy          =    -512.8845390498175902 [Eh]
	 Singles Energy            =      -0.0000000000000000 [Eh]
	 Same-Spin Energy          =      -0.5116159767832742 [Eh]
	 Opposite-Spin Energy      =      -1.6152525224294521 [Eh]
	 Correlation Energy        =      -2.1268684992127262 [Eh]
	 Total Energy              =    -515.0114075490303094 [Eh]

	 ================> DF-SCS-MP2 Energies <==================
	-----------------------------------------------------------
	 SCS Same-Spin Scale       =       0.3333333333333333 [-]
	 SCS Opposite-Spin Scale   =       1.2000000000000000 [-]
	 SCS Same-Spin Energy      =      -0.1705386589277580 [Eh]
	 SCS Opposite-Spin Energy  =      -1.9383030269153423 [Eh]
	 SCS Correlation Energy    =      -2.1088416858431005 [Eh]
	 SCS Total Energy          =    -514.9933807356607076 [Eh]
	-----------------------------------------------------------

  Dipole Moment: [D]
     X:     0.0258      Y:     3.4317      Z:    -1.8735     Total:     3.9099

*** Psi4 exiting successfully. Buy a developer a beer!
