                               Psi4 1.3.2 release

  ==> Input File <==

--------------------------------------------------------------------------
#psi4
#
memory 32 gb

molecule  {
0 1
  O       -1.9705880     1.6613530    -0.1848000
  O        1.7110222    -1.2137998     0.6435822
  O       -3.2913740    -0.0479250     0.4948630
  N        0.2331263     0.3078758    -0.2883308
  C       -0.9510770    -0.4970410     0.1176100
  C       -1.1968270    -1.6816620    -0.8184860
  C        2.5789920     0.8068070    -0.3378900
  C        1.4682490    -0.1481810     0.0706060
  C       -2.1908320     0.3658730     0.1844680
  C        3.9506640     0.3320720     0.1153760
  H       -0.7838570    -0.8897150     1.1288390
  H        0.0750270     1.1966100    -0.6451490
  H       -1.3515420    -1.3283180    -1.8408860
  H       -0.3238960    -2.3346980    -0.7915570
  H       -2.0788080    -2.2361410    -0.4923840
  H        2.5479870     0.9167430    -1.4288930
  H        2.3554820     1.7990610     0.0733550
  H        4.1782080    -0.6474400    -0.3069900
  H        4.7194550     1.0404130    -0.2050590
  H        3.9903360     0.2413970     1.2016820
  H       -2.8462050     2.0977190    -0.1239210
units angstrom
no_reorient  #important for SAPT in psi4, default
symmetry c1  #important for SAPT in psi4, default
}

set PROPERTIES_ORIGIN ["COM"]
properties('MP2/aug-cc-pvtz', properties = ['dipole'])
--------------------------------------------------------------------------

    Molecular point group: c1
  Charge       = 0
  Multiplicity = 1
  Basis Set: AUG-CC-PVTZ
    Blend: AUG-CC-PVTZ
  Basis Set: (AUG-CC-PVTZ AUX)
    Blend: AUG-CC-PVTZ-JKFIT

    Orbital Energies [Eh]
    ---------------------

    Doubly Occupied:

       1A    -20.637592     2A    -20.565865     3A    -20.527111
       4A    -15.592374     5A    -11.406962     6A    -11.356616
       7A    -11.301866     8A    -11.242484     9A    -11.229750
      10A    -11.216551    11A     -1.479682    12A     -1.379599
      13A     -1.375002    14A     -1.246493    15A     -1.074959
      16A     -1.035742    17A     -0.928851    18A     -0.883945
      19A     -0.821339    20A     -0.798046    21A     -0.726752
      22A     -0.717223    23A     -0.679728    24A     -0.667811
      25A     -0.640091    26A     -0.634665    27A     -0.612660
      28A     -0.605237    29A     -0.579762    30A     -0.548734
      31A     -0.545308    32A     -0.522302    33A     -0.520646
      34A     -0.517186    35A     -0.497350    36A     -0.488690
      37A     -0.469645    38A     -0.426544    39A     -0.405763

  @DF-RHF Final Energy:  -512.88282228754986

   => Energetics <=

    Nuclear Repulsion Energy =            547.2274858616378879
    One-Electron Energy =               -1786.4067634743871622
    Two-Electron Energy =                 726.2964553251994175
    Total Energy =                       -512.8828222875498568
  Basis Set: (AUG-CC-PVTZ AUX)
    Blend: AUG-CC-PVTZ-RI
    Molecular point group: c1

    Geometry (in Angstrom), charge = 0, multiplicity = 1:

       Center              X                  Y                   Z               Mass
    ------------   -----------------  -----------------  -----------------  -----------------
         O           -1.977079480592     1.656582025411    -0.182996461341    15.994914619570
         O            1.704530719408    -1.218570774589     0.645385738659    15.994914619570
         O           -3.297865480592    -0.052695974589     0.496666538659    15.994914619570
         N            0.226634819408     0.303104825411    -0.286527261341    14.003074004430
         C           -0.957568480592    -0.501811974589     0.119413538659    12.000000000000
         C           -1.203318480592    -1.686432974589    -0.816682461341    12.000000000000
         C            2.572500519408     0.802036025411    -0.336086461341    12.000000000000
         C            1.461757519408    -0.152951974589     0.072409538659    12.000000000000
         C           -2.197323480592     0.361102025411     0.186271538659    12.000000000000
         C            3.944172519408     0.327301025411     0.117179538659    12.000000000000
         H           -0.790348480592    -0.894485974589     1.130642538659     1.007825032230
         H            0.068535519408     1.191839025411    -0.643345461341     1.007825032230
         H           -1.358033480592    -1.333088974589    -1.839082461341     1.007825032230
         H           -0.330387480592    -2.339468974589    -0.789753461341     1.007825032230
         H           -2.085299480592    -2.240911974589    -0.490580461341     1.007825032230
         H            2.541495519408     0.911972025411    -1.427089461341     1.007825032230
         H            2.348990519408     1.794290025411     0.075158538659     1.007825032230
         H            4.171716519408    -0.652210974589    -0.305186461341     1.007825032230
         H            4.712963519408     1.035642025411    -0.203255461341     1.007825032230
         H            3.983844519408     0.236626025411     1.203485538659     1.007825032230
         H           -2.852696480592     2.092948025411    -0.122117461341     1.007825032230

  Basis Set: AUG-CC-PVTZ
    Blend: AUG-CC-PVTZ
  Basis Set: (AUG-CC-PVTZ AUX)
    Blend: AUG-CC-PVTZ-JKFIT
	 Reference Energy          =    -512.8828222875498568 [Eh]
	 Singles Energy            =      -0.0000000000000000 [Eh]
	 Same-Spin Energy          =      -0.5109384815207414 [Eh]
	 Opposite-Spin Energy      =      -1.6147517163487199 [Eh]
	 Correlation Energy        =      -2.1256901978694613 [Eh]
	 Total Energy              =    -515.0085124854193737 [Eh]

	 ================> DF-SCS-MP2 Energies <==================
	-----------------------------------------------------------
	 SCS Same-Spin Scale       =       0.3333333333333333 [-]
	 SCS Opposite-Spin Scale   =       1.2000000000000000 [-]
	 SCS Same-Spin Energy      =      -0.1703128271735805 [Eh]
	 SCS Opposite-Spin Energy  =      -1.9377020596184638 [Eh]
	 SCS Correlation Energy    =      -2.1080148867920441 [Eh]
	 SCS Total Energy          =    -514.9908371743418911 [Eh]
	-----------------------------------------------------------

  Dipole Moment: [D]
     X:    -0.3260      Y:     3.2357      Z:    -1.8289     Total:     3.7311

*** Psi4 exiting successfully. Buy a developer a beer!
