                               Psi4 1.3.2 release

  ==> Input File <==

--------------------------------------------------------------------------
#psi4
#
memory 32 gb

molecule  {
0 1
  O       -1.9705880     1.6613530    -0.1848000
  O        1.6688240    -1.2224340     0.6437850
  O       -3.2913740    -0.0479250     0.4948630
  N        0.2056592     0.2992198    -0.2308347
  C       -0.9510770    -0.4970410     0.1176100
  C       -1.2395839    -1.6946739    -0.7892719
  C        2.5789920     0.8068070    -0.3378900
  C        1.4682490    -0.1481810     0.0706060
  C       -2.1908320     0.3658730     0.1844680
  C        3.9506640     0.3320720     0.1153760
  H       -0.7838570    -0.8897150     1.1288390
  H        0.0750270     1.1966100    -0.6451490
  H       -1.3515420    -1.3283180    -1.8408860
  H       -0.3238960    -2.3346980    -0.7915570
  H       -2.0788080    -2.2361410    -0.4923840
  H        2.5479870     0.9167430    -1.4288930
  H        2.3554820     1.7990610     0.0733550
  H        4.1782080    -0.6474400    -0.3069900
  H        4.7194550     1.0404130    -0.2050590
  H        3.9903360     0.2413970     1.2016820
  H       -2.8462050     2.0977190    -0.1239210
units angstrom
no_reorient  #important for SAPT in psi4, default
symmetry c1  #important for SAPT in psi4, default
}

set PROPERTIES_ORIGIN ["COM"]
properties('MP2/aug-cc-pvtz', properties = ['dipole'])
--------------------------------------------------------------------------

    Molecular point group: c1
  Charge       = 0
  Multiplicity = 1
  Basis Set: AUG-CC-PVTZ
    Blend: AUG-CC-PVTZ
  Basis Set: (AUG-CC-PVTZ AUX)
    Blend: AUG-CC-PVTZ-JKFIT

    Orbital Energies [Eh]
    ---------------------

    Doubly Occupied:

       1A    -20.635210     2A    -20.563003     3A    -20.526591
       4A    -15.591723     5A    -11.403843     6A    -11.357781
       7A    -11.297233     8A    -11.247713     9A    -11.228453
      10A    -11.219976    11A     -1.477417    12A     -1.380929
      13A     -1.372593    14A     -1.246258    15A     -1.075663
      16A     -1.036728    17A     -0.928798    18A     -0.885521
      19A     -0.818411    20A     -0.793105    21A     -0.730191
      22A     -0.714012    23A     -0.682492    24A     -0.665374
      25A     -0.641219    26A     -0.633141    27A     -0.608569
      28A     -0.606028    29A     -0.586592    30A     -0.553529
      31A     -0.539265    32A     -0.528722    33A     -0.520723
      34A     -0.514060    35A     -0.497545    36A     -0.487616
      37A     -0.466284    38A     -0.429176    39A     -0.400618

  @DF-RHF Final Energy:  -512.88236420033604

   => Energetics <=

    Nuclear Repulsion Energy =            547.8395606686044630
    One-Electron Energy =               -1787.6596407128515693
    Two-Electron Energy =                 726.9377158439110644
    Total Energy =                       -512.8823642003360419
  Basis Set: (AUG-CC-PVTZ AUX)
    Blend: AUG-CC-PVTZ-RI
    Molecular point group: c1

    Geometry (in Angstrom), charge = 0, multiplicity = 1:

       Center              X                  Y                   Z               Mass
    ------------   -----------------  -----------------  -----------------  -----------------
         O           -1.966239051585     1.659445784639    -0.190985046235    15.994914619570
         O            1.673172948415    -1.224341215361     0.637599953765    15.994914619570
         O           -3.287025051585    -0.049832215361     0.488677953765    15.994914619570
         N            0.210008148415     0.297312584639    -0.237019746235    14.003074004430
         C           -0.946728051585    -0.498948215361     0.111424953765    12.000000000000
         C           -1.235234951585    -1.696581115361    -0.795456946235    12.000000000000
         C            2.583340948415     0.804899784639    -0.344075046235    12.000000000000
         C            1.472597948415    -0.150088215361     0.064420953765    12.000000000000
         C           -2.186483051585     0.363965784639     0.178282953765    12.000000000000
         C            3.955012948415     0.330164784639     0.109190953765    12.000000000000
         H           -0.779508051585    -0.891622215361     1.122653953765     1.007825032230
         H            0.079375948415     1.194702784639    -0.651334046235     1.007825032230
         H           -1.347193051585    -1.330225215361    -1.847071046235     1.007825032230
         H           -0.319547051585    -2.336605215361    -0.797742046235     1.007825032230
         H           -2.074459051585    -2.238048215361    -0.498569046235     1.007825032230
         H            2.552335948415     0.914835784639    -1.435078046235     1.007825032230
         H            2.359830948415     1.797153784639     0.067169953765     1.007825032230
         H            4.182556948415    -0.649347215361    -0.313175046235     1.007825032230
         H            4.723803948415     1.038505784639    -0.211244046235     1.007825032230
         H            3.994684948415     0.239489784639     1.195496953765     1.007825032230
         H           -2.841856051585     2.095811784639    -0.130106046235     1.007825032230

  Basis Set: AUG-CC-PVTZ
    Blend: AUG-CC-PVTZ
  Basis Set: (AUG-CC-PVTZ AUX)
    Blend: AUG-CC-PVTZ-JKFIT
	 Reference Energy          =    -512.8823642003360419 [Eh]
	 Singles Energy            =      -0.0000000000000000 [Eh]
	 Same-Spin Energy          =      -0.5112850777513689 [Eh]
	 Opposite-Spin Energy      =      -1.6148874315690485 [Eh]
	 Correlation Energy        =      -2.1261725093204173 [Eh]
	 Total Energy              =    -515.0085367096564823 [Eh]

	 ================> DF-SCS-MP2 Energies <==================
	-----------------------------------------------------------
	 SCS Same-Spin Scale       =       0.3333333333333333 [-]
	 SCS Opposite-Spin Scale   =       1.2000000000000000 [-]
	 SCS Same-Spin Energy      =      -0.1704283592504563 [Eh]
	 SCS Opposite-Spin Energy  =      -1.9378649178828580 [Eh]
	 SCS Correlation Energy    =      -2.1082932771333143 [Eh]
	 SCS Total Energy          =    -514.9906574774693127 [Eh]
	-----------------------------------------------------------

  Dipole Moment: [D]
     X:    -0.0083      Y:     3.2868      Z:    -1.9102     Total:     3.8015

*** Psi4 exiting successfully. Buy a developer a beer!
