                               Psi4 1.3.2 release

  ==> Input File <==

--------------------------------------------------------------------------
#psi4
#
memory 32 gb

molecule  {
0 1
  O       -1.9705880     1.6613530    -0.1848000
  O        1.6688240    -1.2224340     0.6437850
  O       -3.2913740    -0.0479250     0.4948630
  N        0.2140730     0.2683100    -0.2698780
  C       -0.9510770    -0.4970410     0.1176100
  C       -1.1968270    -1.6816620    -0.8184860
  C        2.5789920     0.8068070    -0.3378900
  C        1.4682490    -0.1481810     0.0706060
  C       -2.1908320     0.3658730     0.1844680
  C        3.9506640     0.3320720     0.1153760
  H       -0.7838570    -0.8897150     1.1288390
  H        0.0750270     1.1966100    -0.6451490
  H       -1.3515420    -1.3283180    -1.8408860
  H       -0.3238960    -2.3346980    -0.7915570
  H       -2.0788080    -2.2361410    -0.4923840
  H        2.5479870     0.9167430    -1.4288930
  H        2.3554820     1.7990610     0.0733550
  H        4.1782080    -0.6474400    -0.3069900
  H        4.7194550     1.0404130    -0.2050590
  H        3.9903360     0.2413970     1.2016820
  H       -3.0248627     2.1867535    -0.1114995
units angstrom
no_reorient  #important for SAPT in psi4, default
symmetry c1  #important for SAPT in psi4, default
}

set PROPERTIES_ORIGIN ["COM"]
properties('MP2/aug-cc-pvtz', properties = ['dipole'])
--------------------------------------------------------------------------

    Molecular point group: c1
  Charge       = 0
  Multiplicity = 1
  Basis Set: AUG-CC-PVTZ
    Blend: AUG-CC-PVTZ
  Basis Set: (AUG-CC-PVTZ AUX)
    Blend: AUG-CC-PVTZ-JKFIT

    Orbital Energies [Eh]
    ---------------------

    Doubly Occupied:

       1A    -20.644168     2A    -20.560781     3A    -20.523640
       4A    -15.590366     5A    -11.401846     6A    -11.354884
       7A    -11.296354     8A    -11.246459     9A    -11.225746
      10A    -11.218949    11A     -1.457484    12A     -1.379553
      13A     -1.357264    14A     -1.243967    15A     -1.073633
      16A     -1.034094    17A     -0.920254    18A     -0.880622
      19A     -0.798882    20A     -0.787710    21A     -0.726735
      22A     -0.694393    23A     -0.677514    24A     -0.662590
      25A     -0.639543    26A     -0.629740    27A     -0.601306
      28A     -0.596082    29A     -0.579401    30A     -0.545147
      31A     -0.539327    32A     -0.523498    33A     -0.519857
      34A     -0.518261    35A     -0.494862    36A     -0.486233
      37A     -0.465256    38A     -0.427134    39A     -0.398871

  @DF-RHF Final Energy:  -512.85116426984962

   => Energetics <=

    Nuclear Repulsion Energy =            546.8825552455351726
    One-Electron Energy =               -1786.0226215776158369
    Two-Electron Energy =                 726.2889020622309317
    Total Energy =                       -512.8511642698496189
  Basis Set: (AUG-CC-PVTZ AUX)
    Blend: AUG-CC-PVTZ-RI
    Molecular point group: c1

    Geometry (in Angstrom), charge = 0, multiplicity = 1:

       Center              X                  Y                   Z               Mass
    ------------   -----------------  -----------------  -----------------  -----------------
         O           -1.969346751750     1.660734494929    -0.184886245817    15.994914619570
         O            1.670065248250    -1.223052505071     0.643698754183    15.994914619570
         O           -3.290132751750    -0.048543505071     0.494776754183    15.994914619570
         N            0.215314248250     0.267691494929    -0.269964245817    14.003074004430
         C           -0.949835751750    -0.497659505071     0.117523754183    12.000000000000
         C           -1.195585751750    -1.682280505071    -0.818572245817    12.000000000000
         C            2.580233248250     0.806188494929    -0.337976245817    12.000000000000
         C            1.469490248250    -0.148799505071     0.070519754183    12.000000000000
         C           -2.189590751750     0.365254494929     0.184381754183    12.000000000000
         C            3.951905248250     0.331453494929     0.115289754183    12.000000000000
         H           -0.782615751750    -0.890333505071     1.128752754183     1.007825032230
         H            0.076268248250     1.195991494929    -0.645235245817     1.007825032230
         H           -1.350300751750    -1.328936505071    -1.840972245817     1.007825032230
         H           -0.322654751750    -2.335316505071    -0.791643245817     1.007825032230
         H           -2.077566751750    -2.236759505071    -0.492470245817     1.007825032230
         H            2.549228248250     0.916124494929    -1.428979245817     1.007825032230
         H            2.356723248250     1.798442494929     0.073268754183     1.007825032230
         H            4.179449248250    -0.648058505071    -0.307076245817     1.007825032230
         H            4.720696248250     1.039794494929    -0.205145245817     1.007825032230
         H            3.991577248250     0.240778494929     1.201595754183     1.007825032230
         H           -3.023621451750     2.186134994929    -0.111585745817     1.007825032230

  Basis Set: AUG-CC-PVTZ
    Blend: AUG-CC-PVTZ
  Basis Set: (AUG-CC-PVTZ AUX)
    Blend: AUG-CC-PVTZ-JKFIT
	 Reference Energy          =    -512.8511642698496189 [Eh]
	 Singles Energy            =      -0.0000000000000000 [Eh]
	 Same-Spin Energy          =      -0.5139249606066301 [Eh]
	 Opposite-Spin Energy      =      -1.6214311755420616 [Eh]
	 Correlation Energy        =      -2.1353561361486917 [Eh]
	 Total Energy              =    -514.9865204059983625 [Eh]

	 ================> DF-SCS-MP2 Energies <==================
	-----------------------------------------------------------
	 SCS Same-Spin Scale       =       0.3333333333333333 [-]
	 SCS Opposite-Spin Scale   =       1.2000000000000000 [-]
	 SCS Same-Spin Energy      =      -0.1713083202022100 [Eh]
	 SCS Opposite-Spin Energy  =      -1.9457174106504738 [Eh]
	 SCS Correlation Energy    =      -2.1170257308526836 [Eh]
	 SCS Total Energy          =    -514.9681900007022932 [Eh]
	-----------------------------------------------------------

  Dipole Moment: [D]
     X:    -0.2983      Y:     3.5230      Z:    -1.8607     Total:     3.9953

*** Psi4 exiting successfully. Buy a developer a beer!
