                               Psi4 1.3.2 release

  ==> Input File <==

--------------------------------------------------------------------------
#psi4
#
memory 32 gb

molecule  {
0 1
  O       -1.9705880     1.6613530    -0.1848000
  O        1.6688240    -1.2224340     0.6437850
  O       -3.2913740    -0.0479250     0.4948630
  N        0.2140730     0.2683100    -0.2698780
  C       -0.9510770    -0.4970410     0.1176100
  C       -1.2024270    -1.6473045    -0.8589721
  C        2.5789920     0.8068070    -0.3378900
  C        1.4682490    -0.1481810     0.0706060
  C       -2.1908320     0.3658730     0.1844680
  C        3.9506640     0.3320720     0.1153760
  H       -0.7793945    -0.8537734     1.1413319
  H        0.0750270     1.1966100    -0.6451490
  H       -1.3515420    -1.3283180    -1.8408860
  H       -0.3238960    -2.3346980    -0.7915570
  H       -2.0788080    -2.2361410    -0.4923840
  H        2.5479870     0.9167430    -1.4288930
  H        2.3554820     1.7990610     0.0733550
  H        4.1782080    -0.6474400    -0.3069900
  H        4.7194550     1.0404130    -0.2050590
  H        3.9903360     0.2413970     1.2016820
  H       -2.8462050     2.0977190    -0.1239210
units angstrom
no_reorient  #important for SAPT in psi4, default
symmetry c1  #important for SAPT in psi4, default
}

set PROPERTIES_ORIGIN ["COM"]
properties('MP2/aug-cc-pvtz', properties = ['dipole'])
--------------------------------------------------------------------------

    Molecular point group: c1
  Charge       = 0
  Multiplicity = 1
  Basis Set: AUG-CC-PVTZ
    Blend: AUG-CC-PVTZ
  Basis Set: (AUG-CC-PVTZ AUX)
    Blend: AUG-CC-PVTZ-JKFIT

    Orbital Energies [Eh]
    ---------------------

    Doubly Occupied:

       1A    -20.636318     2A    -20.564315     3A    -20.524217
       4A    -15.590687     5A    -11.405034     6A    -11.355541
       7A    -11.297733     8A    -11.247043     9A    -11.227351
      10A    -11.219418    11A     -1.478444    12A     -1.380225
      13A     -1.373594    14A     -1.246148    15A     -1.075479
      16A     -1.035548    17A     -0.928384    18A     -0.885764
      19A     -0.818254    20A     -0.792294    21A     -0.730553
      22A     -0.714490    23A     -0.682523    24A     -0.665887
      25A     -0.641239    26A     -0.634670    27A     -0.611465
      28A     -0.601887    29A     -0.584389    30A     -0.546915
      31A     -0.539056    32A     -0.525543    33A     -0.520392
      34A     -0.519883    35A     -0.496288    36A     -0.489774
      37A     -0.468026    38A     -0.427610    39A     -0.399926

  @DF-RHF Final Energy:  -512.88215368494730

   => Energetics <=

    Nuclear Repulsion Energy =            548.1815714527988348
    One-Electron Energy =               -1788.3628373911415110
    Two-Electron Energy =                 727.2991122533953785
    Total Energy =                       -512.8821536849472977
  Basis Set: (AUG-CC-PVTZ AUX)
    Blend: AUG-CC-PVTZ-RI
    Molecular point group: c1

    Geometry (in Angstrom), charge = 0, multiplicity = 1:

       Center              X                  Y                   Z               Mass
    ------------   -----------------  -----------------  -----------------  -----------------
         O           -1.970155671390     1.658261399058    -0.181537874649    15.994914619570
         O            1.669256328610    -1.225525600942     0.647047125351    15.994914619570
         O           -3.290941671390    -0.051016600942     0.498125125351    15.994914619570
         N            0.214505328610     0.265218399058    -0.266615874649    14.003074004430
         C           -0.950644671390    -0.500132600942     0.120872125351    12.000000000000
         C           -1.201994671390    -1.650396100942    -0.855709974649    12.000000000000
         C            2.579424328610     0.803715399058    -0.334627874649    12.000000000000
         C            1.468681328610    -0.151272600942     0.073868125351    12.000000000000
         C           -2.190399671390     0.362781399058     0.187730125351    12.000000000000
         C            3.951096328610     0.328980399058     0.118638125351    12.000000000000
         H           -0.778962171390    -0.856865000942     1.144594025351     1.007825032230
         H            0.075459328610     1.193518399058    -0.641886874649     1.007825032230
         H           -1.351109671390    -1.331409600942    -1.837623874649     1.007825032230
         H           -0.323463671390    -2.337789600942    -0.788294874649     1.007825032230
         H           -2.078375671390    -2.239232600942    -0.489121874649     1.007825032230
         H            2.548419328610     0.913651399058    -1.425630874649     1.007825032230
         H            2.355914328610     1.795969399058     0.076617125351     1.007825032230
         H            4.178640328610    -0.650531600942    -0.303727874649     1.007825032230
         H            4.719887328610     1.037321399058    -0.201796874649     1.007825032230
         H            3.990768328610     0.238305399058     1.204944125351     1.007825032230
         H           -2.845772671390     2.094627399058    -0.120658874649     1.007825032230

  Basis Set: AUG-CC-PVTZ
    Blend: AUG-CC-PVTZ
  Basis Set: (AUG-CC-PVTZ AUX)
    Blend: AUG-CC-PVTZ-JKFIT
	 Reference Energy          =    -512.8821536849472977 [Eh]
	 Singles Energy            =      -0.0000000000000000 [Eh]
	 Same-Spin Energy          =      -0.5114614545298176 [Eh]
	 Opposite-Spin Energy      =      -1.6152199263561078 [Eh]
	 Correlation Energy        =      -2.1266813808859255 [Eh]
	 Total Energy              =    -515.0088350658331819 [Eh]

	 ================> DF-SCS-MP2 Energies <==================
	-----------------------------------------------------------
	 SCS Same-Spin Scale       =       0.3333333333333333 [-]
	 SCS Opposite-Spin Scale   =       1.2000000000000000 [-]
	 SCS Same-Spin Energy      =      -0.1704871515099392 [Eh]
	 SCS Opposite-Spin Energy  =      -1.9382639116273293 [Eh]
	 SCS Correlation Energy    =      -2.1087510631372686 [Eh]
	 SCS Total Energy          =    -514.9909047480845175 [Eh]
	-----------------------------------------------------------

  Dipole Moment: [D]
     X:    -0.1087      Y:     3.3849      Z:    -1.8778     Total:     3.8724

*** Psi4 exiting successfully. Buy a developer a beer!
