                               Psi4 1.3.2 release

  ==> Input File <==

--------------------------------------------------------------------------
#psi4
#
memory 32 gb

molecule  {
0 1
  O       -1.9705880     1.6613530    -0.1848000
  O        1.6688240    -1.2224340     0.6437850
  O       -3.2953501    -0.0381687     0.4935903
  N        0.2140730     0.2683100    -0.2698780
  C       -0.9440177    -0.4865139     0.1139438
  C       -1.1968270    -1.6816620    -0.8184860
  C        2.5789920     0.8068070    -0.3378900
  C        1.4682490    -0.1481810     0.0706060
  C       -2.1908320     0.3658730     0.1844680
  C        3.9506640     0.3320720     0.1153760
  H       -0.7838570    -0.8897150     1.1288390
  H        0.0750270     1.1966100    -0.6451490
  H       -1.3515420    -1.3283180    -1.8408860
  H       -0.3238960    -2.3346980    -0.7915570
  H       -2.0788080    -2.2361410    -0.4923840
  H        2.5479870     0.9167430    -1.4288930
  H        2.3554820     1.7990610     0.0733550
  H        4.1782080    -0.6474400    -0.3069900
  H        4.7194550     1.0404130    -0.2050590
  H        3.9903360     0.2413970     1.2016820
  H       -2.8462050     2.0977190    -0.1239210
units angstrom
no_reorient  #important for SAPT in psi4, default
symmetry c1  #important for SAPT in psi4, default
}

set PROPERTIES_ORIGIN ["COM"]
properties('MP2/aug-cc-pvtz', properties = ['dipole'])
--------------------------------------------------------------------------

    Molecular point group: c1
  Charge       = 0
  Multiplicity = 1
  Basis Set: AUG-CC-PVTZ
    Blend: AUG-CC-PVTZ
  Basis Set: (AUG-CC-PVTZ AUX)
    Blend: AUG-CC-PVTZ-JKFIT

    Orbital Energies [Eh]
    ---------------------

    Doubly Occupied:

       1A    -20.635358     2A    -20.564327     3A    -20.525420
       4A    -15.592414     5A    -11.405593     6A    -11.356730
       7A    -11.297367     8A    -11.247786     9A    -11.227096
      10A    -11.219949    11A     -1.478442    12A     -1.381580
      13A     -1.372797    14A     -1.249216    15A     -1.075517
      16A     -1.035375    17A     -0.928381    18A     -0.886678
      19A     -0.816562    20A     -0.793973    21A     -0.732120
      22A     -0.714293    23A     -0.683828    24A     -0.665731
      25A     -0.641806    26A     -0.633787    27A     -0.609962
      28A     -0.603102    29A     -0.581627    30A     -0.546932
      31A     -0.544176    32A     -0.525672    33A     -0.520986
      34A     -0.519684    35A     -0.497844    36A     -0.488216
      37A     -0.468257    38A     -0.429078    39A     -0.399961

  @DF-RHF Final Energy:  -512.88577836993670

   => Energetics <=

    Nuclear Repulsion Energy =            548.1223691290599618
    One-Electron Energy =               -1788.2210474306414199
    Two-Electron Energy =                 727.2128999316447562
    Total Energy =                       -512.8857783699367019
  Basis Set: (AUG-CC-PVTZ AUX)
    Blend: AUG-CC-PVTZ-RI
    Molecular point group: c1

    Geometry (in Angstrom), charge = 0, multiplicity = 1:

       Center              X                  Y                   Z               Mass
    ------------   -----------------  -----------------  -----------------  -----------------
         O           -1.970733423864     1.659406584142    -0.184356379107    15.994914619570
         O            1.668678576136    -1.224380415858     0.644228620893    15.994914619570
         O           -3.295495523864    -0.040115115858     0.494033920893    15.994914619570
         N            0.213927576136     0.266363584142    -0.269434379107    14.003074004430
         C           -0.944163123864    -0.488460315858     0.114387420893    12.000000000000
         C           -1.196972423864    -1.683608415858    -0.818042379107    12.000000000000
         C            2.578846576136     0.804860584142    -0.337446379107    12.000000000000
         C            1.468103576136    -0.150127415858     0.071049620893    12.000000000000
         C           -2.190977423864     0.363926584142     0.184911620893    12.000000000000
         C            3.950518576136     0.330125584142     0.115819620893    12.000000000000
         H           -0.784002423864    -0.891661415858     1.129282620893     1.007825032230
         H            0.074881576136     1.194663584142    -0.644705379107     1.007825032230
         H           -1.351687423864    -1.330264415858    -1.840442379107     1.007825032230
         H           -0.324041423864    -2.336644415858    -0.791113379107     1.007825032230
         H           -2.078953423864    -2.238087415858    -0.491940379107     1.007825032230
         H            2.547841576136     0.914796584142    -1.428449379107     1.007825032230
         H            2.355336576136     1.797114584142     0.073798620893     1.007825032230
         H            4.178062576136    -0.649386415858    -0.306546379107     1.007825032230
         H            4.719309576136     1.038466584142    -0.204615379107     1.007825032230
         H            3.990190576136     0.239450584142     1.202125620893     1.007825032230
         H           -2.846350423864     2.095772584142    -0.123477379107     1.007825032230

  Basis Set: AUG-CC-PVTZ
    Blend: AUG-CC-PVTZ
  Basis Set: (AUG-CC-PVTZ AUX)
    Blend: AUG-CC-PVTZ-JKFIT
	 Reference Energy          =    -512.8857783699367019 [Eh]
	 Singles Energy            =      -0.0000000000000000 [Eh]
	 Same-Spin Energy          =      -0.5114012311230360 [Eh]
	 Opposite-Spin Energy      =      -1.6149567584780042 [Eh]
	 Correlation Energy        =      -2.1263579896010403 [Eh]
	 Total Energy              =    -515.0121363595377488 [Eh]

	 ================> DF-SCS-MP2 Energies <==================
	-----------------------------------------------------------
	 SCS Same-Spin Scale       =       0.3333333333333333 [-]
	 SCS Opposite-Spin Scale   =       1.2000000000000000 [-]
	 SCS Same-Spin Energy      =      -0.1704670770410120 [Eh]
	 SCS Opposite-Spin Energy  =      -1.9379481101736049 [Eh]
	 SCS Correlation Energy    =      -2.1084151872146171 [Eh]
	 SCS Total Energy          =    -514.9941935571513341 [Eh]
	-----------------------------------------------------------

  Dipole Moment: [D]
     X:    -0.0310      Y:     3.3569      Z:    -1.8592     Total:     3.8375

*** Psi4 exiting successfully. Buy a developer a beer!
