                               Psi4 1.3.2 release

  ==> Input File <==

--------------------------------------------------------------------------
#psi4
#
memory 32 gb

molecule  {
0 1
  O       -1.9705880     1.6613530    -0.1848000
  O        1.6688240    -1.2224340     0.6437850
  O       -3.2913740    -0.0479250     0.4948630
  N        0.2140730     0.2683100    -0.2698780
  C       -0.9510770    -0.4970410     0.1176100
  C       -1.1968270    -1.6816620    -0.8184860
  C        2.5789920     0.8068070    -0.3378900
  C        1.4682490    -0.1481810     0.0706060
  C       -2.1908320     0.3658730     0.1844680
  C        3.9506640     0.3320720     0.1153760
  H       -0.7838570    -0.8897150     1.1288390
  H        0.0475174     1.3802695    -0.7193945
  H       -1.3515420    -1.3283180    -1.8408860
  H       -0.3238960    -2.3346980    -0.7915570
  H       -2.0788080    -2.2361410    -0.4923840
  H        2.5479870     0.9167430    -1.4288930
  H        2.3554820     1.7990610     0.0733550
  H        4.1782080    -0.6474400    -0.3069900
  H        4.7194550     1.0404130    -0.2050590
  H        3.9903360     0.2413970     1.2016820
  H       -2.8462050     2.0977190    -0.1239210
units angstrom
no_reorient  #important for SAPT in psi4, default
symmetry c1  #important for SAPT in psi4, default
}

set PROPERTIES_ORIGIN ["COM"]
properties('MP2/aug-cc-pvtz', properties = ['dipole'])
--------------------------------------------------------------------------

    Molecular point group: c1
  Charge       = 0
  Multiplicity = 1
  Basis Set: AUG-CC-PVTZ
    Blend: AUG-CC-PVTZ
  Basis Set: (AUG-CC-PVTZ AUX)
    Blend: AUG-CC-PVTZ-JKFIT

    Orbital Energies [Eh]
    ---------------------

    Doubly Occupied:

       1A    -20.637576     2A    -20.564740     3A    -20.522819
       4A    -15.603804     5A    -11.405832     6A    -11.354095
       7A    -11.296901     8A    -11.245568     9A    -11.226146
      10A    -11.218258    11A     -1.479302    12A     -1.377735
      13A     -1.374278    14A     -1.229491    15A     -1.072793
      16A     -1.031337    17A     -0.927005    18A     -0.883736
      19A     -0.811575    20A     -0.769857    21A     -0.727428
      22A     -0.706104    23A     -0.681164    24A     -0.659617
      25A     -0.640087    26A     -0.631404    27A     -0.611260
      28A     -0.595093    29A     -0.573086    30A     -0.546432
      31A     -0.543605    32A     -0.520659    33A     -0.518573
      34A     -0.518103    35A     -0.497047    36A     -0.487715
      37A     -0.467950    38A     -0.425683    39A     -0.395774

  @DF-RHF Final Energy:  -512.85526203131576

   => Energetics <=

    Nuclear Repulsion Energy =            546.9908088151623815
    One-Electron Energy =               -1786.1328785303373934
    Two-Electron Energy =                 726.2868076838592515
    Total Energy =                       -512.8552620313157604
  Basis Set: (AUG-CC-PVTZ AUX)
    Blend: AUG-CC-PVTZ-RI
    Molecular point group: c1

    Geometry (in Angstrom), charge = 0, multiplicity = 1:

       Center              X                  Y                   Z               Mass
    ------------   -----------------  -----------------  -----------------  -----------------
         O           -1.970396774158     1.660077137209    -0.184284172142    15.994914619570
         O            1.669015225842    -1.223709862791     0.644300827858    15.994914619570
         O           -3.291182774158    -0.049200862791     0.495378827858    15.994914619570
         N            0.214264225842     0.267034137209    -0.269362172142    14.003074004430
         C           -0.950885774158    -0.498316862791     0.118125827858    12.000000000000
         C           -1.196635774158    -1.682937862791    -0.817970172142    12.000000000000
         C            2.579183225842     0.805531137209    -0.337374172142    12.000000000000
         C            1.468440225842    -0.149456862791     0.071121827858    12.000000000000
         C           -2.190640774158     0.364597137209     0.184983827858    12.000000000000
         C            3.950855225842     0.330796137209     0.115891827858    12.000000000000
         H           -0.783665774158    -0.890990862791     1.129354827858     1.007825032230
         H            0.047708625842     1.378993637209    -0.718878672142     1.007825032230
         H           -1.351350774158    -1.329593862791    -1.840370172142     1.007825032230
         H           -0.323704774158    -2.335973862791    -0.791041172142     1.007825032230
         H           -2.078616774158    -2.237416862791    -0.491868172142     1.007825032230
         H            2.548178225842     0.915467137209    -1.428377172142     1.007825032230
         H            2.355673225842     1.797785137209     0.073870827858     1.007825032230
         H            4.178399225842    -0.648715862791    -0.306474172142     1.007825032230
         H            4.719646225842     1.039137137209    -0.204543172142     1.007825032230
         H            3.990527225842     0.240121137209     1.202197827858     1.007825032230
         H           -2.846013774158     2.096443137209    -0.123405172142     1.007825032230

  Basis Set: AUG-CC-PVTZ
    Blend: AUG-CC-PVTZ
  Basis Set: (AUG-CC-PVTZ AUX)
    Blend: AUG-CC-PVTZ-JKFIT
	 Reference Energy          =    -512.8552620313157604 [Eh]
	 Singles Energy            =      -0.0000000000000000 [Eh]
	 Same-Spin Energy          =      -0.5132747407532602 [Eh]
	 Opposite-Spin Energy      =      -1.6194028957835731 [Eh]
	 Correlation Energy        =      -2.1326776365368332 [Eh]
	 Total Energy              =    -514.9879396678526291 [Eh]

	 ================> DF-SCS-MP2 Energies <==================
	-----------------------------------------------------------
	 SCS Same-Spin Scale       =       0.3333333333333333 [-]
	 SCS Opposite-Spin Scale   =       1.2000000000000000 [-]
	 SCS Same-Spin Energy      =      -0.1710915802510867 [Eh]
	 SCS Opposite-Spin Energy  =      -1.9432834749402876 [Eh]
	 SCS Correlation Energy    =      -2.1143750551913745 [Eh]
	 SCS Total Energy          =    -514.9696370865071913 [Eh]
	-----------------------------------------------------------

  Dipole Moment: [D]
     X:    -0.2244      Y:     3.5488      Z:    -1.9255     Total:     4.0437

*** Psi4 exiting successfully. Buy a developer a beer!
