                               Psi4 1.3.2 release

  ==> Input File <==

--------------------------------------------------------------------------
#psi4
#
memory 32 gb

molecule  {
0 1
  O       -1.9705880     1.6613530    -0.1848000
  O        1.6688240    -1.2224340     0.6437850
  O       -3.2913740    -0.0479250     0.4948630
  N        0.2140730     0.2683100    -0.2698780
  C       -0.9510770    -0.4970410     0.1176100
  C       -1.1968270    -1.6816620    -0.8184860
  C        2.5789920     0.8068070    -0.3378900
  C        1.4682490    -0.1481810     0.0706060
  C       -2.1908320     0.3658730     0.1844680
  C        3.9506640     0.3320720     0.1153760
  H       -0.7838570    -0.8897150     1.1288390
  H        0.0750270     1.1966100    -0.6451490
  H       -1.3515420    -1.3283180    -1.8408860
  H       -0.3238960    -2.3346980    -0.7915570
  H       -2.0788080    -2.2361410    -0.4923840
  H        2.5479870     0.9167430    -1.4288930
  H        2.3554820     1.7990610     0.0733550
  H        4.1782080    -0.6474400    -0.3069900
  H        4.7194550     1.0404130    -0.2050590
  H        3.9903360     0.2413970     1.2016820
  H       -2.6675473     2.0086845    -0.1363425
units angstrom
no_reorient  #important for SAPT in psi4, default
symmetry c1  #important for SAPT in psi4, default
}

set PROPERTIES_ORIGIN ["COM"]
properties('MP2/aug-cc-pvtz', properties = ['dipole'])
--------------------------------------------------------------------------

    Molecular point group: c1
  Charge       = 0
  Multiplicity = 1
  Basis Set: AUG-CC-PVTZ
    Blend: AUG-CC-PVTZ
  Basis Set: (AUG-CC-PVTZ AUX)
    Blend: AUG-CC-PVTZ-JKFIT

    Orbital Energies [Eh]
    ---------------------

    Doubly Occupied:

       1A    -20.620358     2A    -20.568964     3A    -20.525623
       4A    -15.592922     5A    -11.409943     6A    -11.356960
       7A    -11.298378     8A    -11.248052     9A    -11.228090
      10A    -11.220193    11A     -1.524938    12A     -1.393085
      13A     -1.381597    14A     -1.248512    15A     -1.078301
      16A     -1.038094    17A     -0.948006    18A     -0.893901
      19A     -0.841283    20A     -0.795200    21A     -0.736427
      22A     -0.731622    23A     -0.685530    24A     -0.670199
      25A     -0.644225    26A     -0.637682    27A     -0.620427
      28A     -0.604744    29A     -0.582579    30A     -0.550998
      31A     -0.546664    32A     -0.525365    33A     -0.523421
      34A     -0.520737    35A     -0.501432    36A     -0.490337
      37A     -0.471824    38A     -0.429330    39A     -0.401518

  @DF-RHF Final Energy:  -512.84240535986385

   => Energetics <=

    Nuclear Repulsion Energy =            549.5800761264803214
    One-Electron Energy =               -1790.6700375777461431
    Two-Electron Energy =                 728.2475560914020889
    Total Energy =                       -512.8424053598638466
  Basis Set: (AUG-CC-PVTZ AUX)
    Blend: AUG-CC-PVTZ-RI
    Molecular point group: c1

    Geometry (in Angstrom), charge = 0, multiplicity = 1:

       Center              X                  Y                   Z               Mass
    ------------   -----------------  -----------------  -----------------  -----------------
         O           -1.971829013696     1.661971536216    -0.184713662062    15.994914619570
         O            1.667582986304    -1.221815463784     0.643871337938    15.994914619570
         O           -3.292615013696    -0.047306463784     0.494949337938    15.994914619570
         N            0.212831986304     0.268928536216    -0.269791662062    14.003074004430
         C           -0.952318013696    -0.496422463784     0.117696337938    12.000000000000
         C           -1.198068013696    -1.681043463784    -0.818399662062    12.000000000000
         C            2.577750986304     0.807425536216    -0.337803662062    12.000000000000
         C            1.467007986304    -0.147562463784     0.070692337938    12.000000000000
         C           -2.192073013696     0.366491536216     0.184554337938    12.000000000000
         C            3.949422986304     0.332690536216     0.115462337938    12.000000000000
         H           -0.785098013696    -0.889096463784     1.128925337938     1.007825032230
         H            0.073785986304     1.197228536216    -0.645062662062     1.007825032230
         H           -1.352783013696    -1.327699463784    -1.840799662062     1.007825032230
         H           -0.325137013696    -2.334079463784    -0.791470662062     1.007825032230
         H           -2.080049013696    -2.235522463784    -0.492297662062     1.007825032230
         H            2.546745986304     0.917361536216    -1.428806662062     1.007825032230
         H            2.354240986304     1.799679536216     0.073441337938     1.007825032230
         H            4.176966986304    -0.646821463784    -0.306903662062     1.007825032230
         H            4.718213986304     1.041031536216    -0.204972662062     1.007825032230
         H            3.989094986304     0.242015536216     1.201768337938     1.007825032230
         H           -2.668788313696     2.009303036216    -0.136256162062     1.007825032230

  Basis Set: AUG-CC-PVTZ
    Blend: AUG-CC-PVTZ
  Basis Set: (AUG-CC-PVTZ AUX)
    Blend: AUG-CC-PVTZ-JKFIT
	 Reference Energy          =    -512.8424053598638466 [Eh]
	 Singles Energy            =      -0.0000000000000000 [Eh]
	 Same-Spin Energy          =      -0.5088281215463457 [Eh]
	 Opposite-Spin Energy      =      -1.6097057103640648 [Eh]
	 Correlation Energy        =      -2.1185338319104106 [Eh]
	 Total Energy              =    -514.9609391917742869 [Eh]

	 ================> DF-SCS-MP2 Energies <==================
	-----------------------------------------------------------
	 SCS Same-Spin Scale       =       0.3333333333333333 [-]
	 SCS Opposite-Spin Scale   =       1.2000000000000000 [-]
	 SCS Same-Spin Energy      =      -0.1696093738487819 [Eh]
	 SCS Opposite-Spin Energy  =      -1.9316468524368777 [Eh]
	 SCS Correlation Energy    =      -2.1012562262856598 [Eh]
	 SCS Total Energy          =    -514.9436615861494602 [Eh]
	-----------------------------------------------------------

  Dipole Moment: [D]
     X:     0.1051      Y:     3.1738      Z:    -1.8497     Total:     3.6750

*** Psi4 exiting successfully. Buy a developer a beer!
