                               Psi4 1.4a3.dev225

  ==> Input File <==

--------------------------------------------------------------------------
#psi4
#
memory 32 gb

molecule  {
0 1
  O       -2.1439760    -1.5096120     0.4578230
  O        1.6019480     1.2946100    -0.5777250
  O       -3.1849820    -0.0999640    -0.9818910
  N        0.1649120    -0.2715720     0.2333030
  C       -1.0051050     0.5087660    -0.1211110
  C       -1.3212480     1.5963590     0.9125160
  C        2.5597860    -0.6480590     0.5035240
  C        1.4183570     0.2162400    -0.0039080
  C       -2.2159370    -0.3767160    -0.3010400
  C        3.7806550    -0.5458820    -0.4040570
  H       -0.8075500     0.9861290    -1.0847450
  H        0.0342290    -1.1271740     0.7572540
  H       -1.5188550     1.1449870     1.8886910
  H       -0.4592110     2.2615650     0.9886780
  H       -2.1947650     2.1753270     0.6002850
  H        2.8115640    -0.2961200     1.5118980
  H        2.2315720    -1.6889350     0.6045970
  H        4.0689510     0.4992230    -0.5227640
  H        4.6219880    -1.1034150     0.0157220
  H        3.5611410    -0.9492480    -1.3958190
  H       -2.9692312    -1.9761458     0.3050667
units angstrom
no_reorient  #important for SAPT in psi4, default
symmetry c1  #important for SAPT in psi4, default
}

set PROPERTIES_ORIGIN ["COM"]
properties('MP2/aug-cc-pvtz', properties = ['dipole'])
--------------------------------------------------------------------------

    Molecular point group: c1
  Charge       = 0
  Multiplicity = 1
  Basis Set: AUG-CC-PVTZ
    Blend: AUG-CC-PVTZ
  Basis Set: (AUG-CC-PVTZ AUX)
    Blend: AUG-CC-PVTZ-JKFIT

    Orbital Energies [Eh]
    ---------------------

    Doubly Occupied:

       1A    -20.633150     2A    -20.565535     3A    -20.522921
       4A    -15.595974     5A    -11.404335     6A    -11.357061
       7A    -11.296585     8A    -11.247856     9A    -11.233502
      10A    -11.221932    11A     -1.479541    12A     -1.379699
      13A     -1.374535    14A     -1.246226    15A     -1.076369
      16A     -1.037640    17A     -0.929547    18A     -0.886695
      19A     -0.824344    20A     -0.794883    21A     -0.728504
      22A     -0.716320    23A     -0.680899    24A     -0.661562
      25A     -0.642949    26A     -0.629481    27A     -0.610359
      28A     -0.601426    29A     -0.593876    30A     -0.552965
      31A     -0.541970    32A     -0.534643    33A     -0.523628
      34A     -0.514269    35A     -0.498209    36A     -0.488162
      37A     -0.469219    38A     -0.427635    39A     -0.400666

  @DF-RHF Final Energy:  -512.88726652421576

   => Energetics <=

    Nuclear Repulsion Energy =            547.8754544254571783
    One-Electron Energy =               -1787.6752992020951751
    Two-Electron Energy =                 726.9125782524223496
    Total Energy =                       -512.8872665242157609
  Basis Set: (AUG-CC-PVTZ AUX)
    Blend: AUG-CC-PVTZ-RI
    Molecular point group: c1

    Geometry (in Angstrom), charge = 0, multiplicity = 1:

       Center              X                  Y                   Z               Mass
    ------------   -----------------  -----------------  -----------------  -----------------
         O           -2.080197429667    -1.510255910257     0.482827258394    15.994914619570
         O            1.665726570333     1.293966089743    -0.552720741606    15.994914619570
         O           -3.121203429667    -0.100607910257    -0.956886741606    15.994914619570
         N            0.228690570333    -0.272215910257     0.258307258394    14.003074004430
         C           -0.941326429667     0.508122089743    -0.096106741606    12.000000000000
         C           -1.257469429667     1.595715089743     0.937520258394    12.000000000000
         C            2.623564570333    -0.648702910257     0.528528258394    12.000000000000
         C            1.482135570333     0.215596089743     0.021096258394    12.000000000000
         C           -2.152158429667    -0.377359910257    -0.276035741606    12.000000000000
         C            3.844433570333    -0.546525910257    -0.379052741606    12.000000000000
         H           -0.743771429667     0.985485089743    -1.059740741606     1.007825032230
         H            0.098007570333    -1.127817910257     0.782258258394     1.007825032230
         H           -1.455076429667     1.144343089743     1.913695258394     1.007825032230
         H           -0.395432429667     2.260921089743     1.013682258394     1.007825032230
         H           -2.130986429667     2.174683089743     0.625289258394     1.007825032230
         H            2.875342570333    -0.296763910257     1.536902258394     1.007825032230
         H            2.295350570333    -1.689578910257     0.629601258394     1.007825032230
         H            4.132729570333     0.498579089743    -0.497759741606     1.007825032230
         H            4.685766570333    -1.104058910257     0.040726258394     1.007825032230
         H            3.624919570333    -0.949891910257    -1.370814741606     1.007825032230
         H           -2.905452629667    -1.976789710257     0.330070958394     1.007825032230

  Basis Set: AUG-CC-PVTZ
    Blend: AUG-CC-PVTZ
  Basis Set: (AUG-CC-PVTZ AUX)
    Blend: AUG-CC-PVTZ-JKFIT
	 Reference Energy          =    -512.8872665242157609 [Eh]
	 Singles Energy            =      -0.0000000000000000 [Eh]
	 Same-Spin Energy          =      -0.5109152997306960 [Eh]
	 Opposite-Spin Energy      =      -1.6145207992000288 [Eh]
	 Correlation Energy        =      -2.1254360989307246 [Eh]
	 Total Energy              =    -515.0127026231465379 [Eh]

	 ================> DF-SCS-MP2 Energies <==================
	-----------------------------------------------------------
	 SCS Same-Spin Scale       =       0.3333333333333333 [-]
	 SCS Opposite-Spin Scale   =       1.2000000000000000 [-]
	 SCS Same-Spin Energy      =      -0.1703050999102320 [Eh]
	 SCS Opposite-Spin Energy  =      -1.9374249590400345 [Eh]
	 SCS Correlation Energy    =      -2.1077300589502665 [Eh]
	 SCS Total Energy          =    -514.9949965831659711 [Eh]
	-----------------------------------------------------------

  Dipole Moment: [D]
     X:    -0.1950      Y:    -3.0209      Z:     2.6484     Total:     4.0222

*** Psi4 exiting successfully. Buy a developer a beer!
