                               Psi4 1.3.2 release

  ==> Input File <==

--------------------------------------------------------------------------
#psi4
#
memory 32 gb

molecule  {
0 1
  O       -1.9705880     1.6613530    -0.1848000
  O        1.6688240    -1.2224340     0.6437850
  O       -3.2913740    -0.0479250     0.4948630
  N        0.2140730     0.2683100    -0.2698780
  C       -0.9630897    -0.4921405     0.1144669
  C       -1.1968270    -1.6816620    -0.8184860
  C        2.5789920     0.8068070    -0.3378900
  C        1.4682490    -0.1481810     0.0706060
  C       -2.1908320     0.3658730     0.1844680
  C        3.9506640     0.3320720     0.1153760
  H       -0.7838570    -0.8897150     1.1288390
  H        0.0750270     1.1966100    -0.6451490
  H       -1.3515420    -1.3283180    -1.8408860
  H       -0.3281162    -2.3405267    -0.7977841
  H       -2.0788080    -2.2361410    -0.4923840
  H        2.5479870     0.9167430    -1.4288930
  H        2.3554820     1.7990610     0.0733550
  H        4.1782080    -0.6474400    -0.3069900
  H        4.7194550     1.0404130    -0.2050590
  H        3.9903360     0.2413970     1.2016820
  H       -2.8462050     2.0977190    -0.1239210
units angstrom
no_reorient  #important for SAPT in psi4, default
symmetry c1  #important for SAPT in psi4, default
}

set PROPERTIES_ORIGIN ["COM"]
properties('MP2/aug-cc-pvtz', properties = ['dipole'])
--------------------------------------------------------------------------

    Molecular point group: c1
  Charge       = 0
  Multiplicity = 1
  Basis Set: AUG-CC-PVTZ
    Blend: AUG-CC-PVTZ
  Basis Set: (AUG-CC-PVTZ AUX)
    Blend: AUG-CC-PVTZ-JKFIT

    Orbital Energies [Eh]
    ---------------------

    Doubly Occupied:

       1A    -20.636899     2A    -20.564798     3A    -20.524270
       4A    -15.591417     5A    -11.405950     6A    -11.355773
       7A    -11.297479     8A    -11.247139     9A    -11.227331
      10A    -11.219465    11A     -1.479237    12A     -1.380004
      13A     -1.374274    14A     -1.244723    15A     -1.076030
      16A     -1.036367    17A     -0.929615    18A     -0.886297
      19A     -0.816137    20A     -0.792287    21A     -0.731531
      22A     -0.715055    23A     -0.682353    24A     -0.666506
      25A     -0.641348    26A     -0.633278    27A     -0.611272
      28A     -0.602225    29A     -0.579834    30A     -0.548573
      31A     -0.544845    32A     -0.523789    33A     -0.520656
      34A     -0.519485    35A     -0.497871    36A     -0.488134
      37A     -0.469751    38A     -0.427971    39A     -0.399941

  @DF-RHF Final Energy:  -512.88566005366681

   => Energetics <=

    Nuclear Repulsion Energy =            548.0262149937888125
    One-Electron Energy =               -1788.0439320024993322
    Two-Electron Energy =                 727.1320569550435948
    Total Energy =                       -512.8856600536668111
  Basis Set: (AUG-CC-PVTZ AUX)
    Blend: AUG-CC-PVTZ-RI
    Molecular point group: c1

    Geometry (in Angstrom), charge = 0, multiplicity = 1:

       Center              X                  Y                   Z               Mass
    ------------   -----------------  -----------------  -----------------  -----------------
         O           -1.969564916978     1.660988155369    -0.184496708288    15.994914619570
         O            1.669847083022    -1.222798844631     0.644088291712    15.994914619570
         O           -3.290350916978    -0.048289844631     0.495166291712    15.994914619570
         N            0.215096083022     0.267945155369    -0.269574708288    14.003074004430
         C           -0.962066616978    -0.492505344631     0.114770191712    12.000000000000
         C           -1.195803916978    -1.682026844631    -0.818182708288    12.000000000000
         C            2.580015083022     0.806442155369    -0.337586708288    12.000000000000
         C            1.469272083022    -0.148545844631     0.070909291712    12.000000000000
         C           -2.189808916978     0.365508155369     0.184771291712    12.000000000000
         C            3.951687083022     0.331707155369     0.115679291712    12.000000000000
         H           -0.782833916978    -0.890079844631     1.129142291712     1.007825032230
         H            0.076050083022     1.196245155369    -0.644845708288     1.007825032230
         H           -1.350518916978    -1.328682844631    -1.840582708288     1.007825032230
         H           -0.327093116978    -2.340891544631    -0.797480808288     1.007825032230
         H           -2.077784916978    -2.236505844631    -0.492080708288     1.007825032230
         H            2.549010083022     0.916378155369    -1.428589708288     1.007825032230
         H            2.356505083022     1.798696155369     0.073658291712     1.007825032230
         H            4.179231083022    -0.647804844631    -0.306686708288     1.007825032230
         H            4.720478083022     1.040048155369    -0.204755708288     1.007825032230
         H            3.991359083022     0.241032155369     1.201985291712     1.007825032230
         H           -2.845181916978     2.097354155369    -0.123617708288     1.007825032230

  Basis Set: AUG-CC-PVTZ
    Blend: AUG-CC-PVTZ
  Basis Set: (AUG-CC-PVTZ AUX)
    Blend: AUG-CC-PVTZ-JKFIT
	 Reference Energy          =    -512.8856600536668111 [Eh]
	 Singles Energy            =      -0.0000000000000000 [Eh]
	 Same-Spin Energy          =      -0.5113773503281348 [Eh]
	 Opposite-Spin Energy      =      -1.6150558519610776 [Eh]
	 Correlation Energy        =      -2.1264332022892125 [Eh]
	 Total Energy              =    -515.0120932559560742 [Eh]

	 ================> DF-SCS-MP2 Energies <==================
	-----------------------------------------------------------
	 SCS Same-Spin Scale       =       0.3333333333333333 [-]
	 SCS Opposite-Spin Scale   =       1.2000000000000000 [-]
	 SCS Same-Spin Energy      =      -0.1704591167760449 [Eh]
	 SCS Opposite-Spin Energy  =      -1.9380670223532930 [Eh]
	 SCS Correlation Energy    =      -2.1085261391293377 [Eh]
	 SCS Total Energy          =    -514.9941861927961781 [Eh]
	-----------------------------------------------------------

  Dipole Moment: [D]
     X:    -0.1077      Y:     3.3572      Z:    -1.8640     Total:     3.8415

*** Psi4 exiting successfully. Buy a developer a beer!
