                               Psi4 1.3.2 release

  ==> Input File <==

--------------------------------------------------------------------------
#psi4
#
memory 32 gb

molecule  {
0 1
  O       -1.9705880     1.6613530    -0.1848000
  O        1.6688240    -1.2224340     0.6437850
  O       -3.2913740    -0.0479250     0.4948630
  N        0.2140730     0.2683100    -0.2698780
  C       -0.9510770    -0.4970410     0.1176100
  C       -1.1968270    -1.6816620    -0.8184860
  C        2.5789920     0.8068070    -0.3378900
  C        1.4682490    -0.1481810     0.0706060
  C       -2.1908320     0.3658730     0.1844680
  C        3.9734857     0.3318666     0.0391067
  H       -0.7838570    -0.8897150     1.1288390
  H        0.0750270     1.1966100    -0.6451490
  H       -1.3515420    -1.3283180    -1.8408860
  H       -0.3238960    -2.3346980    -0.7915570
  H       -2.0788080    -2.2361410    -0.4923840
  H        2.6027725     0.8996062    -1.4306652
  H        2.3554820     1.7990610     0.0733550
  H        4.1782080    -0.6474400    -0.3069900
  H        4.7194550     1.0404130    -0.2050590
  H        3.9903360     0.2413970     1.2016820
  H       -2.8462050     2.0977190    -0.1239210
units angstrom
no_reorient  #important for SAPT in psi4, default
symmetry c1  #important for SAPT in psi4, default
}

set PROPERTIES_ORIGIN ["COM"]
properties('MP2/aug-cc-pvtz', properties = ['dipole'])
--------------------------------------------------------------------------

    Molecular point group: c1
  Charge       = 0
  Multiplicity = 1
  Basis Set: AUG-CC-PVTZ
    Blend: AUG-CC-PVTZ
  Basis Set: (AUG-CC-PVTZ AUX)
    Blend: AUG-CC-PVTZ-JKFIT

    Orbital Energies [Eh]
    ---------------------

    Doubly Occupied:

       1A    -20.636770     2A    -20.564774     3A    -20.525179
       4A    -15.592274     5A    -11.405954     6A    -11.357248
       7A    -11.297515     8A    -11.247429     9A    -11.227062
      10A    -11.220106    11A     -1.478832    12A     -1.380968
      13A     -1.374011    14A     -1.246525    15A     -1.075718
      16A     -1.036585    17A     -0.928538    18A     -0.886045
      19A     -0.817169    20A     -0.792996    21A     -0.731567
      22A     -0.714952    23A     -0.683818    24A     -0.666517
      25A     -0.641571    26A     -0.634624    27A     -0.611204
      28A     -0.602410    29A     -0.584785    30A     -0.549124
      31A     -0.544500    32A     -0.535158    33A     -0.525102
      34A     -0.512729    35A     -0.493203    36A     -0.477533
      37A     -0.468640    38A     -0.429247    39A     -0.400309

  @DF-RHF Final Energy:  -512.87872433007851

   => Energetics <=

    Nuclear Repulsion Energy =            547.7328611047095137
    One-Electron Energy =               -1787.4257952571952046
    Two-Electron Energy =                 726.8142098224070651
    Total Energy =                       -512.8787243300785121
  Basis Set: (AUG-CC-PVTZ AUX)
    Blend: AUG-CC-PVTZ-RI
    Molecular point group: c1

    Geometry (in Angstrom), charge = 0, multiplicity = 1:

       Center              X                  Y                   Z               Mass
    ------------   -----------------  -----------------  -----------------  -----------------
         O           -1.972856206754     1.661489054494    -0.178478915418    15.994914619570
         O            1.666555793246    -1.222297945506     0.650106084582    15.994914619570
         O           -3.293642206754    -0.047788945506     0.501184084582    15.994914619570
         N            0.211804793246     0.268446054494    -0.263556915418    14.003074004430
         C           -0.953345206754    -0.496904945506     0.123931084582    12.000000000000
         C           -1.199095206754    -1.681525945506    -0.812164915418    12.000000000000
         C            2.576723793246     0.806943054494    -0.331568915418    12.000000000000
         C            1.465980793246    -0.148044945506     0.076927084582    12.000000000000
         C           -2.193100206754     0.366009054494     0.190789084582    12.000000000000
         C            3.971217493246     0.332002654494     0.045427784582    12.000000000000
         H           -0.786125206754    -0.889578945506     1.135160084582     1.007825032230
         H            0.072758793246     1.196746054494    -0.638827915418     1.007825032230
         H           -1.353810206754    -1.328181945506    -1.834564915418     1.007825032230
         H           -0.326164206754    -2.334561945506    -0.785235915418     1.007825032230
         H           -2.081076206754    -2.236004945506    -0.486062915418     1.007825032230
         H            2.600504293246     0.899742254494    -1.424344115418     1.007825032230
         H            2.353213793246     1.799197054494     0.079676084582     1.007825032230
         H            4.175939793246    -0.647303945506    -0.300668915418     1.007825032230
         H            4.717186793246     1.040549054494    -0.198737915418     1.007825032230
         H            3.988067793246     0.241533054494     1.208003084582     1.007825032230
         H           -2.848473206754     2.097855054494    -0.117599915418     1.007825032230

  Basis Set: AUG-CC-PVTZ
    Blend: AUG-CC-PVTZ
  Basis Set: (AUG-CC-PVTZ AUX)
    Blend: AUG-CC-PVTZ-JKFIT
	 Reference Energy          =    -512.8787243300785121 [Eh]
	 Singles Energy            =      -0.0000000000000000 [Eh]
	 Same-Spin Energy          =      -0.5114464355010265 [Eh]
	 Opposite-Spin Energy      =      -1.6153377464649252 [Eh]
	 Correlation Energy        =      -2.1267841819659519 [Eh]
	 Total Energy              =    -515.0055085120444573 [Eh]

	 ================> DF-SCS-MP2 Energies <==================
	-----------------------------------------------------------
	 SCS Same-Spin Scale       =       0.3333333333333333 [-]
	 SCS Opposite-Spin Scale   =       1.2000000000000000 [-]
	 SCS Same-Spin Energy      =      -0.1704821451670088 [Eh]
	 SCS Opposite-Spin Energy  =      -1.9384052957579101 [Eh]
	 SCS Correlation Energy    =      -2.1088874409249190 [Eh]
	 SCS Total Energy          =    -514.9876117710034578 [Eh]
	-----------------------------------------------------------

  Dipole Moment: [D]
     X:    -0.1022      Y:     3.3636      Z:    -1.8986     Total:     3.8638

*** Psi4 exiting successfully. Buy a developer a beer!
