                               Psi4 1.3.2 release

  ==> Input File <==

--------------------------------------------------------------------------
#psi4
#
memory 32 gb

molecule  {
0 1
  O       -1.9705880     1.6613530    -0.1848000
  O        1.6582343    -1.2243884     0.6437266
  O       -3.2913740    -0.0479250     0.4948630
  N        0.2095476     0.2583374    -0.2651991
  C       -0.9510770    -0.4970410     0.1176100
  C       -1.1968270    -1.6816620    -0.8184860
  C        2.5789920     0.8068070    -0.3378900
  C        1.4682490    -0.1481810     0.0706060
  C       -2.1908320     0.3658730     0.1844680
  C        3.9506640     0.3320720     0.1153760
  H       -0.7838570    -0.8897150     1.1288390
  H        0.0750270     1.1966100    -0.6451490
  H       -1.3515420    -1.3283180    -1.8408860
  H       -0.3238960    -2.3346980    -0.7915570
  H       -2.0788080    -2.2361410    -0.4923840
  H        2.5479870     0.9167430    -1.4288930
  H        2.3554820     1.7990610     0.0733550
  H        4.1782080    -0.6474400    -0.3069900
  H        4.7194550     1.0404130    -0.2050590
  H        3.9903360     0.2413970     1.2016820
  H       -2.8462050     2.0977190    -0.1239210
units angstrom
no_reorient  #important for SAPT in psi4, default
symmetry c1  #important for SAPT in psi4, default
}

set PROPERTIES_ORIGIN ["COM"]
properties('MP2/aug-cc-pvtz', properties = ['dipole'])
--------------------------------------------------------------------------

    Molecular point group: c1
  Charge       = 0
  Multiplicity = 1
  Basis Set: AUG-CC-PVTZ
    Blend: AUG-CC-PVTZ
  Basis Set: (AUG-CC-PVTZ AUX)
    Blend: AUG-CC-PVTZ-JKFIT

    Orbital Energies [Eh]
    ---------------------

    Doubly Occupied:

       1A    -20.636377     2A    -20.564288     3A    -20.523998
       4A    -15.591414     5A    -11.405459     6A    -11.355825
       7A    -11.296000     8A    -11.248455     9A    -11.226118
      10A    -11.220335    11A     -1.478418    12A     -1.380927
      13A     -1.373555    14A     -1.246164    15A     -1.075741
      16A     -1.035674    17A     -0.928154    18A     -0.886536
      19A     -0.816466    20A     -0.790983    21A     -0.732020
      22A     -0.714118    23A     -0.683617    24A     -0.665714
      25A     -0.641809    26A     -0.633664    27A     -0.610352
      28A     -0.602017    29A     -0.581014    30A     -0.546990
      31A     -0.544287    32A     -0.525283    33A     -0.521273
      34A     -0.520181    35A     -0.497952    36A     -0.488424
      37A     -0.468106    38A     -0.428492    39A     -0.398696

  @DF-RHF Final Energy:  -512.88555588505369

   => Energetics <=

    Nuclear Repulsion Energy =            548.2454113809349110
    One-Electron Energy =               -1788.4921466666953620
    Two-Electron Energy =                 727.3611794007067601
    Total Energy =                       -512.8855558850536909
  Basis Set: (AUG-CC-PVTZ AUX)
    Blend: AUG-CC-PVTZ-RI
    Molecular point group: c1

    Geometry (in Angstrom), charge = 0, multiplicity = 1:

       Center              X                  Y                   Z               Mass
    ------------   -----------------  -----------------  -----------------  -----------------
         O           -1.968983521984     1.662531087748    -0.185245140034    15.994914619570
         O            1.659838778016    -1.223210312252     0.643281459966    15.994914619570
         O           -3.289769521984    -0.046746912252     0.494417859966    15.994914619570
         N            0.211152078016     0.259515487748    -0.265644240034    14.003074004430
         C           -0.949472521984    -0.495862912252     0.117164859966    12.000000000000
         C           -1.195222521984    -1.680483912252    -0.818931140034    12.000000000000
         C            2.580596478016     0.807985087748    -0.338335140034    12.000000000000
         C            1.469853478016    -0.147002912252     0.070160859966    12.000000000000
         C           -2.189227521984     0.367051087748     0.184022859966    12.000000000000
         C            3.952268478016     0.333250087748     0.114930859966    12.000000000000
         H           -0.782252521984    -0.888536912252     1.128393859966     1.007825032230
         H            0.076631478016     1.197788087748    -0.645594140034     1.007825032230
         H           -1.349937521984    -1.327139912252    -1.841331140034     1.007825032230
         H           -0.322291521984    -2.333519912252    -0.792002140034     1.007825032230
         H           -2.077203521984    -2.234962912252    -0.492829140034     1.007825032230
         H            2.549591478016     0.917921087748    -1.429338140034     1.007825032230
         H            2.357086478016     1.800239087748     0.072909859966     1.007825032230
         H            4.179812478016    -0.646261912252    -0.307435140034     1.007825032230
         H            4.721059478016     1.041591087748    -0.205504140034     1.007825032230
         H            3.991940478016     0.242575087748     1.201236859966     1.007825032230
         H           -2.844600521984     2.098897087748    -0.124366140034     1.007825032230

  Basis Set: AUG-CC-PVTZ
    Blend: AUG-CC-PVTZ
  Basis Set: (AUG-CC-PVTZ AUX)
    Blend: AUG-CC-PVTZ-JKFIT
	 Reference Energy          =    -512.8855558850536909 [Eh]
	 Singles Energy            =      -0.0000000000000000 [Eh]
	 Same-Spin Energy          =      -0.5114608949958823 [Eh]
	 Opposite-Spin Energy      =      -1.6150736778037396 [Eh]
	 Correlation Energy        =      -2.1265345727996219 [Eh]
	 Total Energy              =    -515.0120904578533327 [Eh]

	 ================> DF-SCS-MP2 Energies <==================
	-----------------------------------------------------------
	 SCS Same-Spin Scale       =       0.3333333333333333 [-]
	 SCS Opposite-Spin Scale   =       1.2000000000000000 [-]
	 SCS Same-Spin Energy      =      -0.1704869649986274 [Eh]
	 SCS Opposite-Spin Energy  =      -1.9380884133644873 [Eh]
	 SCS Correlation Energy    =      -2.1085753783631147 [Eh]
	 SCS Total Energy          =    -514.9941312634167616 [Eh]
	-----------------------------------------------------------

  Dipole Moment: [D]
     X:    -0.0336      Y:     3.4003      Z:    -1.8669     Total:     3.8792

*** Psi4 exiting successfully. Buy a developer a beer!
