                               Psi4 1.3.2 release

  ==> Input File <==

--------------------------------------------------------------------------
#psi4
#
memory 32 gb

molecule  {
0 1
  O       -1.9705880     1.6613530    -0.1848000
  O        1.6688240    -1.2224340     0.6437850
  O       -3.2913740    -0.0479250     0.4948630
  N        0.2140730     0.2683100    -0.2698780
  C       -0.9435804    -0.5065838     0.1210975
  C       -1.1968270    -1.6816620    -0.8184860
  C        2.5789920     0.8068070    -0.3378900
  C        1.4682490    -0.1481810     0.0706060
  C       -2.1908320     0.3658730     0.1844680
  C        3.9506640     0.3320720     0.1153760
  H       -0.7838570    -0.8897150     1.1288390
  H        0.0837559     1.1975099    -0.6460536
  H       -1.3515420    -1.3283180    -1.8408860
  H       -0.3238960    -2.3346980    -0.7915570
  H       -2.0788080    -2.2361410    -0.4923840
  H        2.5479870     0.9167430    -1.4288930
  H        2.3554820     1.7990610     0.0733550
  H        4.1782080    -0.6474400    -0.3069900
  H        4.7194550     1.0404130    -0.2050590
  H        3.9903360     0.2413970     1.2016820
  H       -2.8462050     2.0977190    -0.1239210
units angstrom
no_reorient  #important for SAPT in psi4, default
symmetry c1  #important for SAPT in psi4, default
}

set PROPERTIES_ORIGIN ["COM"]
properties('MP2/aug-cc-pvtz', properties = ['dipole'])
--------------------------------------------------------------------------

    Molecular point group: c1
  Charge       = 0
  Multiplicity = 1
  Basis Set: AUG-CC-PVTZ
    Blend: AUG-CC-PVTZ
  Basis Set: (AUG-CC-PVTZ AUX)
    Blend: AUG-CC-PVTZ-JKFIT

    Orbital Energies [Eh]
    ---------------------

    Doubly Occupied:

       1A    -20.636419     2A    -20.564432     3A    -20.524497
       4A    -15.591572     5A    -11.405593     6A    -11.355537
       7A    -11.297436     8A    -11.247241     9A    -11.226476
      10A    -11.219579    11A     -1.478129    12A     -1.380597
      13A     -1.373499    14A     -1.246019    15A     -1.075379
      16A     -1.035641    17A     -0.927144    18A     -0.885220
      19A     -0.817842    20A     -0.791880    21A     -0.730256
      22A     -0.714556    23A     -0.682911    24A     -0.665831
      25A     -0.641381    26A     -0.634561    27A     -0.610092
      28A     -0.603063    29A     -0.581959    30A     -0.547068
      31A     -0.543986    32A     -0.524583    33A     -0.521998
      34A     -0.519930    35A     -0.497664    36A     -0.488979
      37A     -0.467230    38A     -0.428015    39A     -0.400541

  @DF-RHF Final Energy:  -512.88611232071355

   => Energetics <=

    Nuclear Repulsion Energy =            547.9591556689898653
    One-Electron Energy =               -1787.9210643790011090
    Two-Electron Energy =                 727.0757963892978069
    Total Energy =                       -512.8861123207135506
  Basis Set: (AUG-CC-PVTZ AUX)
    Blend: AUG-CC-PVTZ-RI
    Molecular point group: c1

    Geometry (in Angstrom), charge = 0, multiplicity = 1:

       Center              X                  Y                   Z               Mass
    ------------   -----------------  -----------------  -----------------  -----------------
         O           -1.971268614464     1.662136110696    -0.185082143385    15.994914619570
         O            1.668143385536    -1.221650889304     0.643502856615    15.994914619570
         O           -3.292054614464    -0.047141889304     0.494580856615    15.994914619570
         N            0.213392385536     0.269093110696    -0.270160143385    14.003074004430
         C           -0.944261014464    -0.505800689304     0.120815356615    12.000000000000
         C           -1.197507614464    -1.680878889304    -0.818768143385    12.000000000000
         C            2.578311385536     0.807590110696    -0.338172143385    12.000000000000
         C            1.467568385536    -0.147397889304     0.070323856615    12.000000000000
         C           -2.191512614464     0.366656110696     0.184185856615    12.000000000000
         C            3.949983385536     0.332855110696     0.115093856615    12.000000000000
         H           -0.784537614464    -0.888931889304     1.128556856615     1.007825032230
         H            0.083075285536     1.198293010696    -0.646335743385     1.007825032230
         H           -1.352222614464    -1.327534889304    -1.841168143385     1.007825032230
         H           -0.324576614464    -2.333914889304    -0.791839143385     1.007825032230
         H           -2.079488614464    -2.235357889304    -0.492666143385     1.007825032230
         H            2.547306385536     0.917526110696    -1.429175143385     1.007825032230
         H            2.354801385536     1.799844110696     0.073072856615     1.007825032230
         H            4.177527385536    -0.646656889304    -0.307272143385     1.007825032230
         H            4.718774385536     1.041196110696    -0.205341143385     1.007825032230
         H            3.989655385536     0.242180110696     1.201399856615     1.007825032230
         H           -2.846885614464     2.098502110696    -0.124203143385     1.007825032230

  Basis Set: AUG-CC-PVTZ
    Blend: AUG-CC-PVTZ
  Basis Set: (AUG-CC-PVTZ AUX)
    Blend: AUG-CC-PVTZ-JKFIT
	 Reference Energy          =    -512.8861123207135506 [Eh]
	 Singles Energy            =      -0.0000000000000000 [Eh]
	 Same-Spin Energy          =      -0.5112302363048593 [Eh]
	 Opposite-Spin Energy      =      -1.6148027005269348 [Eh]
	 Correlation Energy        =      -2.1260329368317938 [Eh]
	 Total Energy              =    -515.0121452575453986 [Eh]

	 ================> DF-SCS-MP2 Energies <==================
	-----------------------------------------------------------
	 SCS Same-Spin Scale       =       0.3333333333333333 [-]
	 SCS Opposite-Spin Scale   =       1.2000000000000000 [-]
	 SCS Same-Spin Energy      =      -0.1704100787682864 [Eh]
	 SCS Opposite-Spin Energy  =      -1.9377632406323215 [Eh]
	 SCS Correlation Energy    =      -2.1081733194006080 [Eh]
	 SCS Total Energy          =    -514.9942856401141853 [Eh]
	-----------------------------------------------------------

  Dipole Moment: [D]
     X:    -0.0915      Y:     3.3674      Z:    -1.8602     Total:     3.8482

*** Psi4 exiting successfully. Buy a developer a beer!
