                               Psi4 1.3.2 release

  ==> Input File <==

--------------------------------------------------------------------------
#psi4
#
memory 32 gb

molecule  {
0 1
  O       -1.9705880     1.6613530    -0.1848000
  O        1.6688240    -1.2224340     0.6437850
  O       -3.2913740    -0.0479250     0.4948630
  N        0.2140730     0.2683100    -0.2698780
  C       -0.9205639    -0.5348552     0.1313804
  C       -1.1968270    -1.6816620    -0.8184860
  C        2.5789920     0.8068070    -0.3378900
  C        1.4682490    -0.1481810     0.0706060
  C       -2.1908320     0.3658730     0.1844680
  C        3.9506640     0.3320720     0.1153760
  H       -0.7838570    -0.8897150     1.1288390
  H        0.1099995     1.1997846    -0.6485953
  H       -1.3515420    -1.3283180    -1.8408860
  H       -0.3238960    -2.3346980    -0.7915570
  H       -2.0788080    -2.2361410    -0.4923840
  H        2.5479870     0.9167430    -1.4288930
  H        2.3554820     1.7990610     0.0733550
  H        4.1782080    -0.6474400    -0.3069900
  H        4.7194550     1.0404130    -0.2050590
  H        3.9903360     0.2413970     1.2016820
  H       -2.8462050     2.0977190    -0.1239210
units angstrom
no_reorient  #important for SAPT in psi4, default
symmetry c1  #important for SAPT in psi4, default
}

set PROPERTIES_ORIGIN ["COM"]
properties('MP2/aug-cc-pvtz', properties = ['dipole'])
--------------------------------------------------------------------------

    Molecular point group: c1
  Charge       = 0
  Multiplicity = 1
  Basis Set: AUG-CC-PVTZ
    Blend: AUG-CC-PVTZ
  Basis Set: (AUG-CC-PVTZ AUX)
    Blend: AUG-CC-PVTZ-JKFIT

    Orbital Energies [Eh]
    ---------------------

    Doubly Occupied:

       1A    -20.635625     2A    -20.563722     3A    -20.524246
       4A    -15.591534     5A    -11.404780     6A    -11.354511
       7A    -11.298456     8A    -11.247234     9A    -11.225604
      10A    -11.219632    11A     -1.476382    12A     -1.380815
      13A     -1.372281    14A     -1.245924    15A     -1.075178
      16A     -1.035517    17A     -0.923952    18A     -0.883093
      19A     -0.820570    20A     -0.789650    21A     -0.727974
      22A     -0.713719    23A     -0.683618    24A     -0.665099
      25A     -0.641346    26A     -0.636203    27A     -0.608213
      28A     -0.603923    29A     -0.584951    30A     -0.547375
      31A     -0.541612    32A     -0.525103    33A     -0.524445
      34A     -0.520127    35A     -0.497137    36A     -0.490113
      37A     -0.463054    38A     -0.427444    39A     -0.401470

  @DF-RHF Final Energy:  -512.88399324226850

   => Energetics <=

    Nuclear Repulsion Energy =            547.7430882711147433
    One-Electron Energy =               -1787.5109009349973803
    Two-Electron Energy =                 726.8838194216140209
    Total Energy =                       -512.8839932422685024
  Basis Set: (AUG-CC-PVTZ AUX)
    Blend: AUG-CC-PVTZ-RI
    Molecular point group: c1

    Geometry (in Angstrom), charge = 0, multiplicity = 1:

       Center              X                  Y                   Z               Mass
    ------------   -----------------  -----------------  -----------------  -----------------
         O           -1.973354771734     1.664458818751    -0.185915051418    15.994914619570
         O            1.666057228266    -1.219328181249     0.642669948582    15.994914619570
         O           -3.294140771734    -0.044819181249     0.493747948582    15.994914619570
         N            0.211306228266     0.271415818751    -0.270993051418    14.003074004430
         C           -0.923330671734    -0.531749381249     0.130265348582    12.000000000000
         C           -1.199593771734    -1.678556181249    -0.819601051418    12.000000000000
         C            2.576225228266     0.809912818751    -0.339005051418    12.000000000000
         C            1.465482228266    -0.145075181249     0.069490948582    12.000000000000
         C           -2.193598771734     0.368978818751     0.183352948582    12.000000000000
         C            3.947897228266     0.335177818751     0.114260948582    12.000000000000
         H           -0.786623771734    -0.886609181249     1.127723948582     1.007825032230
         H            0.107232728266     1.202890418751    -0.649710351418     1.007825032230
         H           -1.354308771734    -1.325212181249    -1.842001051418     1.007825032230
         H           -0.326662771734    -2.331592181249    -0.792672051418     1.007825032230
         H           -2.081574771734    -2.233035181249    -0.493499051418     1.007825032230
         H            2.545220228266     0.919848818751    -1.430008051418     1.007825032230
         H            2.352715228266     1.802166818751     0.072239948582     1.007825032230
         H            4.175441228266    -0.644334181249    -0.308105051418     1.007825032230
         H            4.716688228266     1.043518818751    -0.206174051418     1.007825032230
         H            3.987569228266     0.244502818751     1.200566948582     1.007825032230
         H           -2.848971771734     2.100824818751    -0.125036051418     1.007825032230

  Basis Set: AUG-CC-PVTZ
    Blend: AUG-CC-PVTZ
  Basis Set: (AUG-CC-PVTZ AUX)
    Blend: AUG-CC-PVTZ-JKFIT
	 Reference Energy          =    -512.8839932422685024 [Eh]
	 Singles Energy            =      -0.0000000000000000 [Eh]
	 Same-Spin Energy          =      -0.5110568846029866 [Eh]
	 Opposite-Spin Energy      =      -1.6146045545426415 [Eh]
	 Correlation Energy        =      -2.1256614391456283 [Eh]
	 Total Energy              =    -515.0096546814140765 [Eh]

	 ================> DF-SCS-MP2 Energies <==================
	-----------------------------------------------------------
	 SCS Same-Spin Scale       =       0.3333333333333333 [-]
	 SCS Opposite-Spin Scale   =       1.2000000000000000 [-]
	 SCS Same-Spin Energy      =      -0.1703522948676622 [Eh]
	 SCS Opposite-Spin Energy  =      -1.9375254654511698 [Eh]
	 SCS Correlation Energy    =      -2.1078777603188321 [Eh]
	 SCS Total Energy          =    -514.9918710025873452 [Eh]
	-----------------------------------------------------------

  Dipole Moment: [D]
     X:    -0.0798      Y:     3.3592      Z:    -1.8621     Total:     3.8416

*** Psi4 exiting successfully. Buy a developer a beer!
