                               Psi4 1.4a3.dev225

  ==> Input File <==

--------------------------------------------------------------------------
#psi4
#
memory 32 gb

molecule  {
0 1
  O       -2.1439760    -1.5096120     0.4578230
  O        1.6019480     1.2946100    -0.5777250
  O       -3.1849820    -0.0999640    -0.9818910
  N        0.1649120    -0.2715720     0.2333030
  C       -1.0051050     0.5087660    -0.1211110
  C       -1.3212480     1.5963590     0.9125160
  C        2.5597860    -0.6480590     0.5035240
  C        1.4183570     0.2162400    -0.0039080
  C       -2.1999082    -0.3649941    -0.2986581
  C        3.7806550    -0.5458820    -0.4040570
  H       -0.8075500     0.9861290    -1.0847450
  H        0.0342290    -1.1271740     0.7572540
  H       -1.5188550     1.1449870     1.8886910
  H       -0.4592110     2.2615650     0.9886780
  H       -2.1947650     2.1753270     0.6002850
  H        2.8115640    -0.2961200     1.5118980
  H        2.2315720    -1.6889350     0.6045970
  H        4.0689510     0.4992230    -0.5227640
  H        4.6219880    -1.1034150     0.0157220
  H        3.5611410    -0.9492480    -1.3958190
  H       -2.9864200    -1.9858630     0.3018850
units angstrom
no_reorient  #important for SAPT in psi4, default
symmetry c1  #important for SAPT in psi4, default
}

set PROPERTIES_ORIGIN ["COM"]
properties('MP2/aug-cc-pvtz', properties = ['dipole'])
--------------------------------------------------------------------------

    Molecular point group: c1
  Charge       = 0
  Multiplicity = 1
  Basis Set: AUG-CC-PVTZ
    Blend: AUG-CC-PVTZ
  Basis Set: (AUG-CC-PVTZ AUX)
    Blend: AUG-CC-PVTZ-JKFIT

    Orbital Energies [Eh]
    ---------------------

    Doubly Occupied:

       1A    -20.632543     2A    -20.564213     3A    -20.523692
       4A    -15.596962     5A    -11.405569     6A    -11.357815
       7A    -11.297385     8A    -11.248341     9A    -11.234904
      10A    -11.222298    11A     -1.471090    12A     -1.380460
      13A     -1.365100    14A     -1.247726    15A     -1.078780
      16A     -1.039580    17A     -0.931222    18A     -0.887043
      19A     -0.822228    20A     -0.794849    21A     -0.728758
      22A     -0.711583    23A     -0.680889    24A     -0.660291
      25A     -0.640497    26A     -0.629862    27A     -0.608750
      28A     -0.601372    29A     -0.594230    30A     -0.553027
      31A     -0.542676    32A     -0.534852    33A     -0.524200
      34A     -0.514686    35A     -0.496605    36A     -0.486280
      37A     -0.469682    38A     -0.428391    39A     -0.401898

  @DF-RHF Final Energy:  -512.88426479875704

   => Energetics <=

    Nuclear Repulsion Energy =            547.8240774536775461
    One-Electron Energy =               -1787.5960242903020117
    Two-Electron Energy =                 726.8876820378674211
    Total Energy =                       -512.8842647987570444
  Basis Set: (AUG-CC-PVTZ AUX)
    Blend: AUG-CC-PVTZ-RI
    Molecular point group: c1

    Geometry (in Angstrom), charge = 0, multiplicity = 1:

       Center              X                  Y                   Z               Mass
    ------------   -----------------  -----------------  -----------------  -----------------
         O           -2.081403865182    -1.511157999252     0.482652339237    15.994914619570
         O            1.664520134818     1.293064000748    -0.552895660763    15.994914619570
         O           -3.122409865182    -0.101509999252    -0.957061660763    15.994914619570
         N            0.227484134818    -0.273117999252     0.258132339237    14.003074004430
         C           -0.942532865182     0.507220000748    -0.096281660763    12.000000000000
         C           -1.258675865182     1.594813000748     0.937345339237    12.000000000000
         C            2.622358134818    -0.649604999252     0.528353339237    12.000000000000
         C            1.480929134818     0.214694000748     0.020921339237    12.000000000000
         C           -2.137336065182    -0.366540099252    -0.273828760763    12.000000000000
         C            3.843227134818    -0.547427999252    -0.379227660763    12.000000000000
         H           -0.744977865182     0.984583000748    -1.059915660763     1.007825032230
         H            0.096801134818    -1.128719999252     0.782083339237     1.007825032230
         H           -1.456282865182     1.143441000748     1.913520339237     1.007825032230
         H           -0.396638865182     2.260019000748     1.013507339237     1.007825032230
         H           -2.132192865182     2.173781000748     0.625114339237     1.007825032230
         H            2.874136134818    -0.297665999252     1.536727339237     1.007825032230
         H            2.294144134818    -1.690480999252     0.629426339237     1.007825032230
         H            4.131523134818     0.497677000748    -0.497934660763     1.007825032230
         H            4.684560134818    -1.104960999252     0.040551339237     1.007825032230
         H            3.623713134818    -0.950793999252    -1.370989660763     1.007825032230
         H           -2.923847865182    -1.987408999252     0.326714339237     1.007825032230

  Basis Set: AUG-CC-PVTZ
    Blend: AUG-CC-PVTZ
  Basis Set: (AUG-CC-PVTZ AUX)
    Blend: AUG-CC-PVTZ-JKFIT
	 Reference Energy          =    -512.8842647987570444 [Eh]
	 Singles Energy            =      -0.0000000000000000 [Eh]
	 Same-Spin Energy          =      -0.5115894556031892 [Eh]
	 Opposite-Spin Energy      =      -1.6159341623268832 [Eh]
	 Correlation Energy        =      -2.1275236179300725 [Eh]
	 Total Energy              =    -515.0117884166870681 [Eh]

	 ================> DF-SCS-MP2 Energies <==================
	-----------------------------------------------------------
	 SCS Same-Spin Scale       =       0.3333333333333333 [-]
	 SCS Opposite-Spin Scale   =       1.2000000000000000 [-]
	 SCS Same-Spin Energy      =      -0.1705298185343964 [Eh]
	 SCS Opposite-Spin Energy  =      -1.9391209947922599 [Eh]
	 SCS Correlation Energy    =      -2.1096508133266560 [Eh]
	 SCS Total Energy          =    -514.9939156120836969 [Eh]
	-----------------------------------------------------------

  Dipole Moment: [D]
     X:    -0.1146      Y:    -2.9650      Z:     2.6654     Total:     3.9885

*** Psi4 exiting successfully. Buy a developer a beer!
