                               Psi4 1.4a3.dev225

  ==> Input File <==

--------------------------------------------------------------------------
#psi4
#
memory 32 gb

molecule  {
0 1
  O       -2.1439760    -1.5096120     0.4578230
  O        1.6019480     1.2946100    -0.5777250
  O       -3.1849820    -0.0999640    -0.9818910
  N        0.1649120    -0.2715720     0.2333030
  C       -1.0051050     0.5087660    -0.1211110
  C       -1.3212480     1.5963590     0.9125160
  C        2.5597860    -0.6480590     0.5035240
  C        1.4183570     0.2162400    -0.0039080
  C       -2.1760987    -0.3880935    -0.2730496
  C        3.7806550    -0.5458820    -0.4040570
  H       -0.8075500     0.9861290    -1.0847450
  H        0.0342290    -1.1271740     0.7572540
  H       -1.5188550     1.1449870     1.8886910
  H       -0.4592110     2.2615650     0.9886780
  H       -2.1947650     2.1753270     0.6002850
  H        2.8115640    -0.2961200     1.5118980
  H        2.2315720    -1.6889350     0.6045970
  H        4.0689510     0.4992230    -0.5227640
  H        4.6219880    -1.1034150     0.0157220
  H        3.5611410    -0.9492480    -1.3958190
  H       -2.9864200    -1.9858630     0.3018850
units angstrom
no_reorient  #important for SAPT in psi4, default
symmetry c1  #important for SAPT in psi4, default
}

set PROPERTIES_ORIGIN ["COM"]
properties('MP2/aug-cc-pvtz', properties = ['dipole'])
--------------------------------------------------------------------------

    Molecular point group: c1
  Charge       = 0
  Multiplicity = 1
  Basis Set: AUG-CC-PVTZ
    Blend: AUG-CC-PVTZ
  Basis Set: (AUG-CC-PVTZ AUX)
    Blend: AUG-CC-PVTZ-JKFIT

    Orbital Energies [Eh]
    ---------------------

    Doubly Occupied:

       1A    -20.642725     2A    -20.555828     3A    -20.524520
       4A    -15.597680     5A    -11.407829     6A    -11.358453
       7A    -11.297811     8A    -11.248945     9A    -11.235368
      10A    -11.222755    11A     -1.482014    12A     -1.381266
      13A     -1.345157    14A     -1.249503    15A     -1.079966
      16A     -1.040303    17A     -0.935334    18A     -0.889193
      19A     -0.830694    20A     -0.797428    21A     -0.731091
      22A     -0.713103    23A     -0.681902    24A     -0.664590
      25A     -0.640024    26A     -0.631356    27A     -0.603279
      28A     -0.601535    29A     -0.595440    30A     -0.552610
      31A     -0.542922    32A     -0.534023    33A     -0.524777
      34A     -0.515120    35A     -0.494965    36A     -0.475599
      37A     -0.466394    38A     -0.428892    39A     -0.402364

  @DF-RHF Final Energy:  -512.87851311977147

   => Energetics <=

    Nuclear Repulsion Energy =            547.9741173830459502
    One-Electron Energy =               -1787.8597457088515057
    Two-Electron Energy =                 727.0071152060340864
    Total Energy =                       -512.8785131197714691
  Basis Set: (AUG-CC-PVTZ AUX)
    Blend: AUG-CC-PVTZ-RI
    Molecular point group: c1

    Geometry (in Angstrom), charge = 0, multiplicity = 1:

       Center              X                  Y                   Z               Mass
    ------------   -----------------  -----------------  -----------------  -----------------
         O           -2.083373302919    -1.509247298478     0.480534094575    15.994914619570
         O            1.662550697081     1.294974701522    -0.555013905425    15.994914619570
         O           -3.124379302919    -0.099599298478    -0.959179905425    15.994914619570
         N            0.225514697081    -0.271207298478     0.256014094575    14.003074004430
         C           -0.944502302919     0.509130701522    -0.098399905425    12.000000000000
         C           -1.260645302919     1.596723701522     0.935227094575    12.000000000000
         C            2.620388697081    -0.647694298478     0.526235094575    12.000000000000
         C            1.478959697081     0.216604701522     0.018803094575    12.000000000000
         C           -2.115496002919    -0.387728798478    -0.250338505425    12.000000000000
         C            3.841257697081    -0.545517298478    -0.381345905425    12.000000000000
         H           -0.746947302919     0.986493701522    -1.062033905425     1.007825032230
         H            0.094831697081    -1.126809298478     0.779965094575     1.007825032230
         H           -1.458252302919     1.145351701522     1.911402094575     1.007825032230
         H           -0.398608302919     2.261929701522     1.011389094575     1.007825032230
         H           -2.134162302919     2.175691701522     0.622996094575     1.007825032230
         H            2.872166697081    -0.295755298478     1.534609094575     1.007825032230
         H            2.292174697081    -1.688570298478     0.627308094575     1.007825032230
         H            4.129553697081     0.499587701522    -0.500052905425     1.007825032230
         H            4.682590697081    -1.103050298478     0.038433094575     1.007825032230
         H            3.621743697081    -0.948883298478    -1.373107905425     1.007825032230
         H           -2.925817302919    -1.985498298478     0.324596094575     1.007825032230

  Basis Set: AUG-CC-PVTZ
    Blend: AUG-CC-PVTZ
  Basis Set: (AUG-CC-PVTZ AUX)
    Blend: AUG-CC-PVTZ-JKFIT
	 Reference Energy          =    -512.8785131197714691 [Eh]
	 Singles Energy            =      -0.0000000000000000 [Eh]
	 Same-Spin Energy          =      -0.5122379677584777 [Eh]
	 Opposite-Spin Energy      =      -1.6169455466236629 [Eh]
	 Correlation Energy        =      -2.1291835143821407 [Eh]
	 Total Energy              =    -515.0076966341536036 [Eh]

	 ================> DF-SCS-MP2 Energies <==================
	-----------------------------------------------------------
	 SCS Same-Spin Scale       =       0.3333333333333333 [-]
	 SCS Opposite-Spin Scale   =       1.2000000000000000 [-]
	 SCS Same-Spin Energy      =      -0.1707459892528259 [Eh]
	 SCS Opposite-Spin Energy  =      -1.9403346559483954 [Eh]
	 SCS Correlation Energy    =      -2.1110806452012212 [Eh]
	 SCS Total Energy          =    -514.9895937649727102 [Eh]
	-----------------------------------------------------------

  Dipole Moment: [D]
     X:     0.0375      Y:    -3.1501      Z:     2.8691     Total:     4.2610

*** Psi4 exiting successfully. Buy a developer a beer!
