                               Psi4 1.3.2 release

  ==> Input File <==

--------------------------------------------------------------------------
#psi4
#
memory 32 gb

molecule  {
0 1
  O       -1.9705880     1.6613530    -0.1848000
  O        1.6688240    -1.2224340     0.6437850
  O       -3.2913740    -0.0479250     0.4948630
  N        0.2140730     0.2683100    -0.2698780
  C       -0.9510770    -0.4970410     0.1176100
  C       -1.1968270    -1.6816620    -0.8184860
  C        2.5789920     0.8068070    -0.3378900
  C        1.4682490    -0.1481810     0.0706060
  C       -2.3548229     0.4800166     0.1933118
  C        3.9506640     0.3320720     0.1153760
  H       -0.7838570    -0.8897150     1.1288390
  H        0.0750270     1.1966100    -0.6451490
  H       -1.3515420    -1.3283180    -1.8408860
  H       -0.3238960    -2.3346980    -0.7915570
  H       -2.0788080    -2.2361410    -0.4923840
  H        2.5479870     0.9167430    -1.4288930
  H        2.3554820     1.7990610     0.0733550
  H        4.1782080    -0.6474400    -0.3069900
  H        4.7194550     1.0404130    -0.2050590
  H        3.9903360     0.2413970     1.2016820
  H       -2.8462050     2.0977190    -0.1239210
units angstrom
no_reorient  #important for SAPT in psi4, default
symmetry c1  #important for SAPT in psi4, default
}

set PROPERTIES_ORIGIN ["COM"]
properties('MP2/aug-cc-pvtz', properties = ['dipole'])
--------------------------------------------------------------------------

    Molecular point group: c1
  Charge       = 0
  Multiplicity = 1
  Basis Set: AUG-CC-PVTZ
    Blend: AUG-CC-PVTZ
  Basis Set: (AUG-CC-PVTZ AUX)
    Blend: AUG-CC-PVTZ-JKFIT

    Orbital Energies [Eh]
    ---------------------

    Doubly Occupied:

       1A    -20.658567     2A    -20.579548     3A    -20.515289
       4A    -15.579854     5A    -11.399932     6A    -11.346433
       7A    -11.278211     8A    -11.241185     9A    -11.214884
      10A    -11.212801    11A     -1.533965    12A     -1.451693
      13A     -1.370736    14A     -1.229731    15A     -1.058930
      16A     -1.012472    17A     -0.907232    18A     -0.876961
      19A     -0.812583    20A     -0.791122    21A     -0.749850
      22A     -0.730010    23A     -0.692727    24A     -0.676380
      25A     -0.653531    26A     -0.635816    27A     -0.613005
      28A     -0.595523    29A     -0.570774    30A     -0.553073
      31A     -0.542775    32A     -0.530955    33A     -0.516054
      34A     -0.514852    35A     -0.506936    36A     -0.483620
      37A     -0.431485    38A     -0.414957    39A     -0.384261

  @DF-RHF Final Energy:  -512.84636281847770

   => Energetics <=

    Nuclear Repulsion Energy =            547.3633053617994619
    One-Electron Energy =               -1786.6819097147008506
    Two-Electron Energy =                 726.4722415344235742
    Total Energy =                       -512.8463628184777008
  Basis Set: (AUG-CC-PVTZ AUX)
    Blend: AUG-CC-PVTZ-RI
    Molecular point group: c1

    Geometry (in Angstrom), charge = 0, multiplicity = 1:

       Center              X                  Y                   Z               Mass
    ------------   -----------------  -----------------  -----------------  -----------------
         O           -1.957023134743     1.651911460172    -0.185531481836    15.994914619570
         O            1.682388865257    -1.231875539828     0.643053518164    15.994914619570
         O           -3.277809134743    -0.057366539828     0.494131518164    15.994914619570
         N            0.227637865257     0.258868460172    -0.270609481836    14.003074004430
         C           -0.937512134743    -0.506482539828     0.116878518164    12.000000000000
         C           -1.183262134743    -1.691103539828    -0.819217481836    12.000000000000
         C            2.592556865257     0.797365460172    -0.338621481836    12.000000000000
         C            1.481813865257    -0.157622539828     0.069874518164    12.000000000000
         C           -2.341258034743     0.470575060172     0.192580318164    12.000000000000
         C            3.964228865257     0.322630460172     0.114644518164    12.000000000000
         H           -0.770292134743    -0.899156539828     1.128107518164     1.007825032230
         H            0.088591865257     1.187168460172    -0.645880481836     1.007825032230
         H           -1.337977134743    -1.337759539828    -1.841617481836     1.007825032230
         H           -0.310331134743    -2.344139539828    -0.792288481836     1.007825032230
         H           -2.065243134743    -2.245582539828    -0.493115481836     1.007825032230
         H            2.561551865257     0.907301460172    -1.429624481836     1.007825032230
         H            2.369046865257     1.789619460172     0.072623518164     1.007825032230
         H            4.191772865257    -0.656881539828    -0.307721481836     1.007825032230
         H            4.733019865257     1.030971460172    -0.205790481836     1.007825032230
         H            4.003900865257     0.231955460172     1.200950518164     1.007825032230
         H           -2.832640134743     2.088277460172    -0.124652481836     1.007825032230

  Basis Set: AUG-CC-PVTZ
    Blend: AUG-CC-PVTZ
  Basis Set: (AUG-CC-PVTZ AUX)
    Blend: AUG-CC-PVTZ-JKFIT
	 Reference Energy          =    -512.8463628184777008 [Eh]
	 Singles Energy            =      -0.0000000000000000 [Eh]
	 Same-Spin Energy          =      -0.5100373079723929 [Eh]
	 Opposite-Spin Energy      =      -1.6119861505718356 [Eh]
	 Correlation Energy        =      -2.1220234585442284 [Eh]
	 Total Energy              =    -514.9683862770219775 [Eh]

	 ================> DF-SCS-MP2 Energies <==================
	-----------------------------------------------------------
	 SCS Same-Spin Scale       =       0.3333333333333333 [-]
	 SCS Opposite-Spin Scale   =       1.2000000000000000 [-]
	 SCS Same-Spin Energy      =      -0.1700124359907976 [Eh]
	 SCS Opposite-Spin Energy  =      -1.9343833806862025 [Eh]
	 SCS Correlation Energy    =      -2.1043958166770000 [Eh]
	 SCS Total Energy          =    -514.9507586351546706 [Eh]
	-----------------------------------------------------------

  Dipole Moment: [D]
     X:    -1.2751      Y:     4.1213      Z:    -1.7474     Total:     4.6545

*** Psi4 exiting successfully. Buy a developer a beer!
