                               Psi4 1.3.2 release

  ==> Input File <==

--------------------------------------------------------------------------
#psi4
#
memory 32 gb

molecule  {
0 1
  O       -1.9705880     1.6613530    -0.1848000
  O        1.6688240    -1.2224340     0.6437850
  O       -3.2913740    -0.0479250     0.4948630
  N        0.2140730     0.2683100    -0.2698780
  C       -0.9510770    -0.4970410     0.1176100
  C       -1.1968270    -1.6816620    -0.8184860
  C        2.5789920     0.8068070    -0.3378900
  C        1.5412891    -0.0853830     0.0437442
  C       -2.1908320     0.3658730     0.1844680
  C        3.9506640     0.3320720     0.1153760
  H       -0.7838570    -0.8897150     1.1288390
  H        0.0750270     1.1966100    -0.6451490
  H       -1.3515420    -1.3283180    -1.8408860
  H       -0.3238960    -2.3346980    -0.7915570
  H       -2.0788080    -2.2361410    -0.4923840
  H        2.5479870     0.9167430    -1.4288930
  H        2.3554820     1.7990610     0.0733550
  H        4.1782080    -0.6474400    -0.3069900
  H        4.7194550     1.0404130    -0.2050590
  H        3.9903360     0.2413970     1.2016820
  H       -2.8462050     2.0977190    -0.1239210
units angstrom
no_reorient  #important for SAPT in psi4, default
symmetry c1  #important for SAPT in psi4, default
}

set PROPERTIES_ORIGIN ["COM"]
properties('MP2/aug-cc-pvtz', properties = ['dipole'])
--------------------------------------------------------------------------

    Molecular point group: c1
  Charge       = 0
  Multiplicity = 1
  Basis Set: AUG-CC-PVTZ
    Blend: AUG-CC-PVTZ
  Basis Set: (AUG-CC-PVTZ AUX)
    Blend: AUG-CC-PVTZ-JKFIT

    Orbital Energies [Eh]
    ---------------------

    Doubly Occupied:

       1A    -20.634185     2A    -20.562632     3A    -20.521889
       4A    -15.589298     5A    -11.403834     6A    -11.364966
       7A    -11.295495     8A    -11.251758     9A    -11.225871
      10A    -11.223624    11A     -1.476359    12A     -1.371837
      13A     -1.349457    14A     -1.227722    15A     -1.093252
      16A     -1.037444    17A     -0.928150    18A     -0.900569
      19A     -0.813911    20A     -0.779809    21A     -0.730321
      22A     -0.712076    23A     -0.688140    24A     -0.665499
      25A     -0.650500    26A     -0.629479    27A     -0.609079
      28A     -0.593692    29A     -0.572006    30A     -0.546108
      31A     -0.541025    32A     -0.528764    33A     -0.523541
      34A     -0.521484    35A     -0.496597    36A     -0.478045
      37A     -0.465411    38A     -0.432390    39A     -0.390759

  @DF-RHF Final Energy:  -512.86580757194326

   => Energetics <=

    Nuclear Repulsion Energy =            547.1950308371768870
    One-Electron Energy =               -1786.4677145363245927
    Two-Electron Energy =                 726.4068761272045549
    Total Energy =                       -512.8658075719432645
  Basis Set: (AUG-CC-PVTZ AUX)
    Blend: AUG-CC-PVTZ-RI
    Molecular point group: c1

    Geometry (in Angstrom), charge = 0, multiplicity = 1:

       Center              X                  Y                   Z               Mass
    ------------   -----------------  -----------------  -----------------  -----------------
         O           -1.976629501794     1.656158586835    -0.182578040728    15.994914619570
         O            1.662782498206    -1.227628413165     0.646006959272    15.994914619570
         O           -3.297415501794    -0.053119413165     0.497084959272    15.994914619570
         N            0.208031498206     0.263115586835    -0.267656040728    14.003074004430
         C           -0.957118501794    -0.502235413165     0.119831959272    12.000000000000
         C           -1.202868501794    -1.686856413165    -0.816264040728    12.000000000000
         C            2.572950498206     0.801612586835    -0.335668040728    12.000000000000
         C            1.535247598206    -0.090577413165     0.045966159272    12.000000000000
         C           -2.196873501794     0.360678586835     0.186689959272    12.000000000000
         C            3.944622498206     0.326877586835     0.117597959272    12.000000000000
         H           -0.789898501794    -0.894909413165     1.131060959272     1.007825032230
         H            0.068985498206     1.191415586835    -0.642927040728     1.007825032230
         H           -1.357583501794    -1.333512413165    -1.838664040728     1.007825032230
         H           -0.329937501794    -2.339892413165    -0.789335040728     1.007825032230
         H           -2.084849501794    -2.241335413165    -0.490162040728     1.007825032230
         H            2.541945498206     0.911548586835    -1.426671040728     1.007825032230
         H            2.349440498206     1.793866586835     0.075576959272     1.007825032230
         H            4.172166498206    -0.652634413165    -0.304768040728     1.007825032230
         H            4.713413498206     1.035218586835    -0.202837040728     1.007825032230
         H            3.984294498206     0.236202586835     1.203903959272     1.007825032230
         H           -2.852246501794     2.092524586835    -0.121699040728     1.007825032230

  Basis Set: AUG-CC-PVTZ
    Blend: AUG-CC-PVTZ
  Basis Set: (AUG-CC-PVTZ AUX)
    Blend: AUG-CC-PVTZ-JKFIT
	 Reference Energy          =    -512.8658075719432645 [Eh]
	 Singles Energy            =      -0.0000000000000000 [Eh]
	 Same-Spin Energy          =      -0.5135946981712386 [Eh]
	 Opposite-Spin Energy      =      -1.6192483221132279 [Eh]
	 Correlation Energy        =      -2.1328430202844664 [Eh]
	 Total Energy              =    -514.9986505922277047 [Eh]

	 ================> DF-SCS-MP2 Energies <==================
	-----------------------------------------------------------
	 SCS Same-Spin Scale       =       0.3333333333333333 [-]
	 SCS Opposite-Spin Scale   =       1.2000000000000000 [-]
	 SCS Same-Spin Energy      =      -0.1711982327237462 [Eh]
	 SCS Opposite-Spin Energy  =      -1.9430979865358733 [Eh]
	 SCS Correlation Energy    =      -2.1142962192596193 [Eh]
	 SCS Total Energy          =    -514.9801037912028505 [Eh]
	-----------------------------------------------------------

  Dipole Moment: [D]
     X:     0.3665      Y:     3.6279      Z:    -1.9487     Total:     4.1344

*** Psi4 exiting successfully. Buy a developer a beer!
