                               Psi4 1.3.2 release

  ==> Input File <==

--------------------------------------------------------------------------
#psi4
#
memory 32 gb

molecule  {
0 1
  O       -2.0402319     1.6740163    -0.1749976
  O        1.6688240    -1.2224340     0.6437850
  O       -3.3144481     0.0104779     0.4843808
  N        0.2140730     0.2683100    -0.2698780
  C       -0.9510770    -0.4970410     0.1176100
  C       -1.1968270    -1.6816620    -0.8184860
  C        2.5789920     0.8068070    -0.3378900
  C        1.4682490    -0.1481810     0.0706060
  C       -2.1908320     0.3658730     0.1844680
  C        3.9506640     0.3320720     0.1153760
  H       -0.7838570    -0.8897150     1.1288390
  H        0.0750270     1.1966100    -0.6451490
  H       -1.3515420    -1.3283180    -1.8408860
  H       -0.3238960    -2.3346980    -0.7915570
  H       -2.0788080    -2.2361410    -0.4923840
  H        2.5479870     0.9167430    -1.4288930
  H        2.3554820     1.7990610     0.0733550
  H        4.1782080    -0.6474400    -0.3069900
  H        4.7194550     1.0404130    -0.2050590
  H        3.9903360     0.2413970     1.2016820
  H       -2.8462050     2.0977190    -0.1239210
units angstrom
no_reorient  #important for SAPT in psi4, default
symmetry c1  #important for SAPT in psi4, default
}

set PROPERTIES_ORIGIN ["COM"]
properties('MP2/aug-cc-pvtz', properties = ['dipole'])
--------------------------------------------------------------------------

    Molecular point group: c1
  Charge       = 0
  Multiplicity = 1
  Basis Set: AUG-CC-PVTZ
    Blend: AUG-CC-PVTZ
  Basis Set: (AUG-CC-PVTZ AUX)
    Blend: AUG-CC-PVTZ-JKFIT

    Orbital Energies [Eh]
    ---------------------

    Doubly Occupied:

       1A    -20.621031     2A    -20.559965     3A    -20.527063
       4A    -15.595226     5A    -11.405335     6A    -11.358438
       7A    -11.303761     8A    -11.248826     9A    -11.230114
      10A    -11.220779    11A     -1.485464    12A     -1.383058
      13A     -1.369035    14A     -1.249789    15A     -1.078771
      16A     -1.038631    17A     -0.934362    18A     -0.889703
      19A     -0.828806    20A     -0.794480    21A     -0.734511
      22A     -0.712948    23A     -0.684888    24A     -0.666902
      25A     -0.642595    26A     -0.633325    27A     -0.610086
      28A     -0.605026    29A     -0.583881    30A     -0.550157
      31A     -0.545748    32A     -0.526374    33A     -0.522794
      34A     -0.521223    35A     -0.496513    36A     -0.487354
      37A     -0.467504    38A     -0.430592    39A     -0.403304

  @DF-RHF Final Energy:  -512.88448392952500

   => Energetics <=

    Nuclear Repulsion Energy =            547.3867249763281961
    One-Electron Energy =               -1786.6456895185710891
    Two-Electron Energy =                 726.3744806127178890
    Total Energy =                       -512.8844839295250040
  Basis Set: (AUG-CC-PVTZ AUX)
    Blend: AUG-CC-PVTZ-RI
    Molecular point group: c1

    Geometry (in Angstrom), charge = 0, multiplicity = 1:

       Center              X                  Y                   Z               Mass
    ------------   -----------------  -----------------  -----------------  -----------------
         O           -2.030009292233     1.666181013327    -0.174922603563    15.994914619570
         O            1.679046607767    -1.230269286673     0.643859996437    15.994914619570
         O           -3.304225492233     0.002642613327     0.484455796437    15.994914619570
         N            0.224295607767     0.260474713327    -0.269803003563    14.003074004430
         C           -0.940854392233    -0.504876286673     0.117684996437    12.000000000000
         C           -1.186604392233    -1.689497286673    -0.818411003563    12.000000000000
         C            2.589214607767     0.798971713327    -0.337815003563    12.000000000000
         C            1.478471607767    -0.156016286673     0.070680996437    12.000000000000
         C           -2.180609392233     0.358037713327     0.184542996437    12.000000000000
         C            3.960886607767     0.324236713327     0.115450996437    12.000000000000
         H           -0.773634392233    -0.897550286673     1.128913996437     1.007825032230
         H            0.085249607767     1.188774713327    -0.645074003563     1.007825032230
         H           -1.341319392233    -1.336153286673    -1.840811003563     1.007825032230
         H           -0.313673392233    -2.342533286673    -0.791482003563     1.007825032230
         H           -2.068585392233    -2.243976286673    -0.492309003563     1.007825032230
         H            2.558209607767     0.908907713327    -1.428818003563     1.007825032230
         H            2.365704607767     1.791225713327     0.073429996437     1.007825032230
         H            4.188430607767    -0.655275286673    -0.306915003563     1.007825032230
         H            4.729677607767     1.032577713327    -0.204984003563     1.007825032230
         H            4.000558607767     0.233561713327     1.201756996437     1.007825032230
         H           -2.835982392233     2.089883713327    -0.123846003563     1.007825032230

  Basis Set: AUG-CC-PVTZ
    Blend: AUG-CC-PVTZ
  Basis Set: (AUG-CC-PVTZ AUX)
    Blend: AUG-CC-PVTZ-JKFIT
	 Reference Energy          =    -512.8844839295250040 [Eh]
	 Singles Energy            =      -0.0000000000000000 [Eh]
	 Same-Spin Energy          =      -0.5098098853074784 [Eh]
	 Opposite-Spin Energy      =      -1.6119342399426819 [Eh]
	 Correlation Energy        =      -2.1217441252501601 [Eh]
	 Total Energy              =    -515.0062280547751925 [Eh]

	 ================> DF-SCS-MP2 Energies <==================
	-----------------------------------------------------------
	 SCS Same-Spin Scale       =       0.3333333333333333 [-]
	 SCS Opposite-Spin Scale   =       1.2000000000000000 [-]
	 SCS Same-Spin Energy      =      -0.1699366284358261 [Eh]
	 SCS Opposite-Spin Energy  =      -1.9343210879312183 [Eh]
	 SCS Correlation Energy    =      -2.1042577163670444 [Eh]
	 SCS Total Energy          =    -514.9887416458921052 [Eh]
	-----------------------------------------------------------

  Dipole Moment: [D]
     X:     0.1941      Y:     3.1103      Z:    -1.8624     Total:     3.6304

*** Psi4 exiting successfully. Buy a developer a beer!
