                               Psi4 1.3.2 release

  ==> Input File <==

--------------------------------------------------------------------------
#psi4
#
memory 32 gb

molecule  {
0 1
  O       -1.9705880     1.6613530    -0.1848000
  O        1.6263814    -1.2297594     0.6432894
  O       -3.2913740    -0.0479250     0.4948630
  N        0.1965477     0.2282367    -0.2510104
  C       -0.9510770    -0.4970410     0.1176100
  C       -1.1968270    -1.6816620    -0.8184860
  C        2.5789920     0.8068070    -0.3378900
  C        1.4682490    -0.1481810     0.0706060
  C       -2.1908320     0.3658730     0.1844680
  C        3.9506640     0.3320720     0.1153760
  H       -0.7838570    -0.8897150     1.1288390
  H        0.0750270     1.1966100    -0.6451490
  H       -1.3515420    -1.3283180    -1.8408860
  H       -0.3238960    -2.3346980    -0.7915570
  H       -2.0788080    -2.2361410    -0.4923840
  H        2.5479870     0.9167430    -1.4288930
  H        2.3554820     1.7990610     0.0733550
  H        4.1782080    -0.6474400    -0.3069900
  H        4.7194550     1.0404130    -0.2050590
  H        3.9903360     0.2413970     1.2016820
  H       -2.8462050     2.0977190    -0.1239210
units angstrom
no_reorient  #important for SAPT in psi4, default
symmetry c1  #important for SAPT in psi4, default
}

set PROPERTIES_ORIGIN ["COM"]
properties('MP2/aug-cc-pvtz', properties = ['dipole'])
--------------------------------------------------------------------------

    Molecular point group: c1
  Charge       = 0
  Multiplicity = 1
  Basis Set: AUG-CC-PVTZ
    Blend: AUG-CC-PVTZ
  Basis Set: (AUG-CC-PVTZ AUX)
    Blend: AUG-CC-PVTZ-JKFIT

    Orbital Energies [Eh]
    ---------------------

    Doubly Occupied:

       1A    -20.635593     2A    -20.563338     3A    -20.522187
       4A    -15.590752     5A    -11.404579     6A    -11.355801
       7A    -11.292465     8A    -11.252022     9A    -11.223932
      10A    -11.222611    11A     -1.477613    12A     -1.382336
      13A     -1.372651    14A     -1.246764    15A     -1.076567
      16A     -1.035183    17A     -0.927846    18A     -0.888555
      19A     -0.816270    20A     -0.785761    21A     -0.734503
      22A     -0.711991    23A     -0.686096    24A     -0.664750
      25A     -0.642937    26A     -0.632820    27A     -0.609833
      28A     -0.600095    29A     -0.580198    30A     -0.546234
      31A     -0.543743    32A     -0.527560    33A     -0.522654
      34A     -0.519994    35A     -0.498334    36A     -0.488002
      37A     -0.466976    38A     -0.428896    39A     -0.394152

  @DF-RHF Final Energy:  -512.88094803724300

   => Energetics <=

    Nuclear Repulsion Energy =            548.9022963704987887
    One-Electron Energy =               -1789.8213028408943046
    Two-Electron Energy =                 728.0380584331525142
    Total Energy =                       -512.8809480372430016
  Basis Set: (AUG-CC-PVTZ AUX)
    Blend: AUG-CC-PVTZ-RI
    Molecular point group: c1

    Geometry (in Angstrom), charge = 0, multiplicity = 1:

       Center              X                  Y                   Z               Mass
    ------------   -----------------  -----------------  -----------------  -----------------
         O           -1.964216827148     1.666028691658    -0.186566483490    15.994914619570
         O            1.632752572852    -1.225083708342     0.641522916510    15.994914619570
         O           -3.285002827148    -0.043249308342     0.493096516510    15.994914619570
         N            0.202918872852     0.232912391658    -0.252776883490    14.003074004430
         C           -0.944705827148    -0.492365308342     0.115843516510    12.000000000000
         C           -1.190455827148    -1.676986308342    -0.820252483490    12.000000000000
         C            2.585363172852     0.811482691658    -0.339656483490    12.000000000000
         C            1.474620172852    -0.143505308342     0.068839516510    12.000000000000
         C           -2.184460827148     0.370548691658     0.182701516510    12.000000000000
         C            3.957035172852     0.336747691658     0.113609516510    12.000000000000
         H           -0.777485827148    -0.885039308342     1.127072516510     1.007825032230
         H            0.081398172852     1.201285691658    -0.646915483490     1.007825032230
         H           -1.345170827148    -1.323642308342    -1.842652483490     1.007825032230
         H           -0.317524827148    -2.330022308342    -0.793323483490     1.007825032230
         H           -2.072436827148    -2.231465308342    -0.494150483490     1.007825032230
         H            2.554358172852     0.921418691658    -1.430659483490     1.007825032230
         H            2.361853172852     1.803736691658     0.071588516510     1.007825032230
         H            4.184579172852    -0.642764308342    -0.308756483490     1.007825032230
         H            4.725826172852     1.045088691658    -0.206825483490     1.007825032230
         H            3.996707172852     0.246072691658     1.199915516510     1.007825032230
         H           -2.839833827148     2.102394691658    -0.125687483490     1.007825032230

  Basis Set: AUG-CC-PVTZ
    Blend: AUG-CC-PVTZ
  Basis Set: (AUG-CC-PVTZ AUX)
    Blend: AUG-CC-PVTZ-JKFIT
	 Reference Energy          =    -512.8809480372430016 [Eh]
	 Singles Energy            =      -0.0000000000000000 [Eh]
	 Same-Spin Energy          =      -0.5119766016705688 [Eh]
	 Opposite-Spin Energy      =      -1.6157242602502442 [Eh]
	 Correlation Energy        =      -2.1277008619208129 [Eh]
	 Total Energy              =    -515.0086488991638589 [Eh]

	 ================> DF-SCS-MP2 Energies <==================
	-----------------------------------------------------------
	 SCS Same-Spin Scale       =       0.3333333333333333 [-]
	 SCS Opposite-Spin Scale   =       1.2000000000000000 [-]
	 SCS Same-Spin Energy      =      -0.1706588672235229 [Eh]
	 SCS Opposite-Spin Energy  =      -1.9388691123002930 [Eh]
	 SCS Correlation Energy    =      -2.1095279795238158 [Eh]
	 SCS Total Energy          =    -514.9904760167668201 [Eh]
	-----------------------------------------------------------

  Dipole Moment: [D]
     X:     0.1453      Y:     3.4925      Z:    -1.8856     Total:     3.9717

*** Psi4 exiting successfully. Buy a developer a beer!
