                               Psi4 1.3.2 release

  ==> Input File <==

--------------------------------------------------------------------------
#psi4
#
memory 32 gb

molecule  {
0 1
  O       -1.9705880     1.6613530    -0.1848000
  O        1.6688240    -1.2224340     0.6437850
  O       -3.2913740    -0.0479250     0.4948630
  N        0.2140730     0.2683100    -0.2698780
  C       -0.9510770    -0.4970410     0.1176100
  C       -1.1221510    -1.7063597    -0.8034099
  C        2.5789920     0.8068070    -0.3378900
  C        1.4682490    -0.1481810     0.0706060
  C       -2.1523812     0.4136037     0.2345609
  C        3.9506640     0.3320720     0.1153760
  H       -0.7838570    -0.8897150     1.1288390
  H        0.0750270     1.1966100    -0.6451490
  H       -1.3515420    -1.3283180    -1.8408860
  H       -0.3238960    -2.3346980    -0.7915570
  H       -2.0788080    -2.2361410    -0.4923840
  H        2.5479870     0.9167430    -1.4288930
  H        2.3554820     1.7990610     0.0733550
  H        4.1782080    -0.6474400    -0.3069900
  H        4.7194550     1.0404130    -0.2050590
  H        3.9903360     0.2413970     1.2016820
  H       -2.8462050     2.0977190    -0.1239210
units angstrom
no_reorient  #important for SAPT in psi4, default
symmetry c1  #important for SAPT in psi4, default
}

set PROPERTIES_ORIGIN ["COM"]
properties('MP2/aug-cc-pvtz', properties = ['dipole'])
--------------------------------------------------------------------------

    Molecular point group: c1
  Charge       = 0
  Multiplicity = 1
  Basis Set: AUG-CC-PVTZ
    Blend: AUG-CC-PVTZ
  Basis Set: (AUG-CC-PVTZ AUX)
    Blend: AUG-CC-PVTZ-JKFIT

    Orbital Energies [Eh]
    ---------------------

    Doubly Occupied:

       1A    -20.648655     2A    -20.558076     3A    -20.525006
       4A    -15.590980     5A    -11.410816     6A    -11.355944
       7A    -11.297973     8A    -11.247564     9A    -11.228376
      10A    -11.219874    11A     -1.491697    12A     -1.380966
      13A     -1.354335    14A     -1.247270    15A     -1.075012
      16A     -1.034127    17A     -0.936053    18A     -0.888099
      19A     -0.825879    20A     -0.795286    21A     -0.732307
      22A     -0.717474    23A     -0.684126    24A     -0.668833
      25A     -0.642892    26A     -0.632512    27A     -0.609529
      28A     -0.601213    29A     -0.580723    30A     -0.563672
      31A     -0.536422    32A     -0.520607    33A     -0.519519
      34A     -0.513195    35A     -0.494065    36A     -0.480197
      37A     -0.464029    38A     -0.428469    39A     -0.399902

  @DF-RHF Final Energy:  -512.86947175796649

   => Energetics <=

    Nuclear Repulsion Energy =            548.0798452440941446
    One-Electron Energy =               -1788.0952830400754010
    Two-Electron Energy =                 727.1459660380146488
    Total Energy =                       -512.8694717579664939
  Basis Set: (AUG-CC-PVTZ AUX)
    Blend: AUG-CC-PVTZ-RI
    Molecular point group: c1

    Geometry (in Angstrom), charge = 0, multiplicity = 1:

       Center              X                  Y                   Z               Mass
    ------------   -----------------  -----------------  -----------------  -----------------
         O           -1.979945332019     1.659447807173    -0.190190503422    15.994914619570
         O            1.659466667981    -1.224339192827     0.638394496578    15.994914619570
         O           -3.300731332019    -0.049830192827     0.489472496578    15.994914619570
         N            0.204715667981     0.266404807173    -0.275268503422    14.003074004430
         C           -0.960434332019    -0.498946192827     0.112219496578    12.000000000000
         C           -1.131508332019    -1.708264892827    -0.808800403422    12.000000000000
         C            2.569634667981     0.804901807173    -0.343280503422    12.000000000000
         C            1.458891667981    -0.150086192827     0.065215496578    12.000000000000
         C           -2.161738532019     0.411698507173     0.229170396578    12.000000000000
         C            3.941306667981     0.330166807173     0.109985496578    12.000000000000
         H           -0.793214332019    -0.891620192827     1.123448496578     1.007825032230
         H            0.065669667981     1.194704807173    -0.650539503422     1.007825032230
         H           -1.360899332019    -1.330223192827    -1.846276503422     1.007825032230
         H           -0.333253332019    -2.336603192827    -0.796947503422     1.007825032230
         H           -2.088165332019    -2.238046192827    -0.497774503422     1.007825032230
         H            2.538629667981     0.914837807173    -1.434283503422     1.007825032230
         H            2.346124667981     1.797155807173     0.067964496578     1.007825032230
         H            4.168850667981    -0.649345192827    -0.312380503422     1.007825032230
         H            4.710097667981     1.038507807173    -0.210449503422     1.007825032230
         H            3.980978667981     0.239491807173     1.196291496578     1.007825032230
         H           -2.855562332019     2.095813807173    -0.129311503422     1.007825032230

  Basis Set: AUG-CC-PVTZ
    Blend: AUG-CC-PVTZ
  Basis Set: (AUG-CC-PVTZ AUX)
    Blend: AUG-CC-PVTZ-JKFIT
	 Reference Energy          =    -512.8694717579664939 [Eh]
	 Singles Energy            =      -0.0000000000000000 [Eh]
	 Same-Spin Energy          =      -0.5121673248320646 [Eh]
	 Opposite-Spin Energy      =      -1.6167600333352152 [Eh]
	 Correlation Energy        =      -2.1289273581672798 [Eh]
	 Total Energy              =    -514.9983991161337826 [Eh]

	 ================> DF-SCS-MP2 Energies <==================
	-----------------------------------------------------------
	 SCS Same-Spin Scale       =       0.3333333333333333 [-]
	 SCS Opposite-Spin Scale   =       1.2000000000000000 [-]
	 SCS Same-Spin Energy      =      -0.1707224416106882 [Eh]
	 SCS Opposite-Spin Energy  =      -1.9401120400022582 [Eh]
	 SCS Correlation Energy    =      -2.1108344816129465 [Eh]
	 SCS Total Energy          =    -514.9803062395794768 [Eh]
	-----------------------------------------------------------

  Dipole Moment: [D]
     X:     0.0553      Y:     3.6512      Z:    -1.8854     Total:     4.1096

*** Psi4 exiting successfully. Buy a developer a beer!
