                               Psi4 1.4a3.dev225

  ==> Input File <==

--------------------------------------------------------------------------
#psi4
#
memory 32 gb

molecule  {
0 1
  O       -2.1439760    -1.5096120     0.4578230
  O        1.6019480     1.2946100    -0.5777250
  O       -3.1849820    -0.0999640    -0.9818910
  N        0.1649120    -0.2715720     0.2333030
  C       -1.0051050     0.5087660    -0.1211110
  C       -1.3212480     1.5963590     0.9125160
  C        2.5597860    -0.6480590     0.5035240
  C        1.4183570     0.2162400    -0.0039080
  C       -2.2159370    -0.3767160    -0.3010400
  C        3.7806550    -0.5458820    -0.4040570
  H       -0.8075500     0.9861290    -1.0847450
  H        0.0342290    -1.1271740     0.7572540
  H       -1.5188550     1.1449870     1.8886910
  H       -0.4592110     2.2615650     0.9886780
  H       -2.1947650     2.1753270     0.6002850
  H        2.8115640    -0.2961200     1.5118980
  H        2.2315720    -1.6889350     0.6045970
  H        4.0689510     0.4992230    -0.5227640
  H        4.6219880    -1.1034150     0.0157220
  H        3.5611410    -0.9492480    -1.3958190
  H       -2.9434481    -1.9615701     0.3098392
units angstrom
no_reorient  #important for SAPT in psi4, default
symmetry c1  #important for SAPT in psi4, default
}

set PROPERTIES_ORIGIN ["COM"]
properties('MP2/aug-cc-pvtz', properties = ['dipole'])
--------------------------------------------------------------------------

    Molecular point group: c1
  Charge       = 0
  Multiplicity = 1
  Basis Set: AUG-CC-PVTZ
    Blend: AUG-CC-PVTZ
  Basis Set: (AUG-CC-PVTZ AUX)
    Blend: AUG-CC-PVTZ-JKFIT

    Orbital Energies [Eh]
    ---------------------

    Doubly Occupied:

       1A    -20.631141     2A    -20.566156     3A    -20.523068
       4A    -15.596165     5A    -11.404942     6A    -11.357216
       7A    -11.296741     8A    -11.247972     9A    -11.233691
      10A    -11.222024    11A     -1.484694    12A     -1.379854
      13A     -1.377439    14A     -1.246567    15A     -1.076762
      16A     -1.037973    17A     -0.931422    18A     -0.887870
      19A     -0.828217    20A     -0.795301    21A     -0.729286
      22A     -0.719090    23A     -0.681384    24A     -0.662324
      25A     -0.643563    26A     -0.629695    27A     -0.611967
      28A     -0.601777    29A     -0.594104    30A     -0.553653
      31A     -0.542188    32A     -0.534948    33A     -0.523780
      34A     -0.514462    35A     -0.498712    36A     -0.488493
      37A     -0.469712    38A     -0.427796    39A     -0.400864

  @DF-RHF Final Energy:  -512.88713774709538

   => Energetics <=

    Nuclear Repulsion Energy =            548.0828067821416880
    One-Electron Energy =               -1788.0338606182658623
    Two-Electron Energy =                 727.0639160890287940
    Total Energy =                       -512.8871377470953803
  Basis Set: (AUG-CC-PVTZ AUX)
    Blend: AUG-CC-PVTZ-RI
    Molecular point group: c1

    Geometry (in Angstrom), charge = 0, multiplicity = 1:

       Center              X                  Y                   Z               Mass
    ------------   -----------------  -----------------  -----------------  -----------------
         O           -2.080376544275    -1.510357167313     0.482794103946    15.994914619570
         O            1.665547455725     1.293864832687    -0.552753896054    15.994914619570
         O           -3.121382544275    -0.100709167313    -0.956919896054    15.994914619570
         N            0.228511455725    -0.272317167313     0.258274103946    14.003074004430
         C           -0.941505544275     0.508020832687    -0.096139896054    12.000000000000
         C           -1.257648544275     1.595613832687     0.937487103946    12.000000000000
         C            2.623385455725    -0.648804167313     0.528495103946    12.000000000000
         C            1.481956455725     0.215494832687     0.021063103946    12.000000000000
         C           -2.152337544275    -0.377461167313    -0.276068896054    12.000000000000
         C            3.844254455725    -0.546627167313    -0.379085896054    12.000000000000
         H           -0.743950544275     0.985383832687    -1.059773896054     1.007825032230
         H            0.097828455725    -1.127919167313     0.782225103946     1.007825032230
         H           -1.455255544275     1.144241832687     1.913662103946     1.007825032230
         H           -0.395611544275     2.260819832687     1.013649103946     1.007825032230
         H           -2.131165544275     2.174581832687     0.625256103946     1.007825032230
         H            2.875163455725    -0.296865167313     1.536869103946     1.007825032230
         H            2.295171455725    -1.689680167313     0.629568103946     1.007825032230
         H            4.132550455725     0.498477832687    -0.497792896054     1.007825032230
         H            4.685587455725    -1.104160167313     0.040693103946     1.007825032230
         H            3.624740455725    -0.949993167313    -1.370847896054     1.007825032230
         H           -2.879848644275    -1.962315267313     0.334810303946     1.007825032230

  Basis Set: AUG-CC-PVTZ
    Blend: AUG-CC-PVTZ
  Basis Set: (AUG-CC-PVTZ AUX)
    Blend: AUG-CC-PVTZ-JKFIT
	 Reference Energy          =    -512.8871377470953803 [Eh]
	 Singles Energy            =      -0.0000000000000000 [Eh]
	 Same-Spin Energy          =      -0.5105245533325871 [Eh]
	 Opposite-Spin Energy      =      -1.6136598752590658 [Eh]
	 Correlation Energy        =      -2.1241844285916529 [Eh]
	 Total Energy              =    -515.0113221756870416 [Eh]

	 ================> DF-SCS-MP2 Energies <==================
	-----------------------------------------------------------
	 SCS Same-Spin Scale       =       0.3333333333333333 [-]
	 SCS Opposite-Spin Scale   =       1.2000000000000000 [-]
	 SCS Same-Spin Energy      =      -0.1701748511108623 [Eh]
	 SCS Opposite-Spin Energy  =      -1.9363918503108790 [Eh]
	 SCS Correlation Energy    =      -2.1065667014217415 [Eh]
	 SCS Total Energy          =    -514.9937044485171782 [Eh]
	-----------------------------------------------------------

  Dipole Moment: [D]
     X:    -0.1643      Y:    -2.9934      Z:     2.6473     Total:     3.9995

*** Psi4 exiting successfully. Buy a developer a beer!
