                               Psi4 1.3.2 release

  ==> Input File <==

--------------------------------------------------------------------------
#psi4
#
memory 32 gb

molecule  {
0 1
  O       -1.9705880     1.6613530    -0.1848000
  O        1.6688240    -1.2224340     0.6437850
  O       -3.2913740    -0.0479250     0.4948630
  N        0.2140730     0.2683100    -0.2698780
  C       -0.9510770    -0.4970410     0.1176100
  C       -1.1968270    -1.6816620    -0.8184860
  C        2.5789920     0.8068070    -0.3378900
  C        1.4682490    -0.1481810     0.0706060
  C       -2.2231030     0.1760545     0.2385745
  C        3.9506640     0.3320720     0.1153760
  H       -0.7838570    -0.8897150     1.1288390
  H        0.0750270     1.1966100    -0.6451490
  H       -1.3515420    -1.3283180    -1.8408860
  H       -0.3238960    -2.3346980    -0.7915570
  H       -2.0788080    -2.2361410    -0.4923840
  H        2.5479870     0.9167430    -1.4288930
  H        2.3554820     1.7990610     0.0733550
  H        4.1782080    -0.6474400    -0.3069900
  H        4.7194550     1.0404130    -0.2050590
  H        3.9903360     0.2413970     1.2016820
  H       -2.8462050     2.0977190    -0.1239210
units angstrom
no_reorient  #important for SAPT in psi4, default
symmetry c1  #important for SAPT in psi4, default
}

set PROPERTIES_ORIGIN ["COM"]
properties('MP2/aug-cc-pvtz', properties = ['dipole'])
--------------------------------------------------------------------------

    Molecular point group: c1
  Charge       = 0
  Multiplicity = 1
  Basis Set: AUG-CC-PVTZ
    Blend: AUG-CC-PVTZ
  Basis Set: (AUG-CC-PVTZ AUX)
    Blend: AUG-CC-PVTZ-JKFIT

    Orbital Energies [Eh]
    ---------------------

    Doubly Occupied:

       1A    -20.596476     2A    -20.573532     3A    -20.526625
       4A    -15.595740     5A    -11.406793     6A    -11.358630
       7A    -11.305630     8A    -11.247926     9A    -11.236738
      10A    -11.220089    11A     -1.507900    12A     -1.383267
      13A     -1.329592    14A     -1.248129    15A     -1.090890
      16A     -1.045663    17A     -0.930800    18A     -0.888948
      19A     -0.800679    20A     -0.785002    21A     -0.733507
      22A     -0.710758    23A     -0.680822    24A     -0.671842
      25A     -0.642462    26A     -0.636769    27A     -0.611633
      28A     -0.603771    29A     -0.585321    30A     -0.551239
      31A     -0.549580    32A     -0.527570    33A     -0.522787
      34A     -0.520208    35A     -0.497498    36A     -0.493138
      37A     -0.457889    38A     -0.431211    39A     -0.404225

  @DF-RHF Final Energy:  -512.84903085227461

   => Energetics <=

    Nuclear Repulsion Energy =            548.2092810729633356
    One-Electron Energy =               -1788.2940660338574617
    Two-Electron Energy =                 727.2357541086194033
    Total Energy =                       -512.8490308522746091
  Basis Set: (AUG-CC-PVTZ AUX)
    Blend: AUG-CC-PVTZ-RI
    Molecular point group: c1

    Geometry (in Angstrom), charge = 0, multiplicity = 1:

       Center              X                  Y                   Z               Mass
    ------------   -----------------  -----------------  -----------------  -----------------
         O           -1.967918539594     1.677054131394    -0.189275452498    15.994914619570
         O            1.671493460406    -1.206732868606     0.639309547502    15.994914619570
         O           -3.288704539594    -0.032223868606     0.490387547502    15.994914619570
         N            0.216742460406     0.284011131394    -0.274353452498    14.003074004430
         C           -0.948407539594    -0.481339868606     0.113134547502    12.000000000000
         C           -1.194157539594    -1.665960868606    -0.822961452498    12.000000000000
         C            2.581661460406     0.822508131394    -0.342365452498    12.000000000000
         C            1.470918460406    -0.132479868606     0.066130547502    12.000000000000
         C           -2.220433539594     0.191755631394     0.234099047502    12.000000000000
         C            3.953333460406     0.347773131394     0.110900547502    12.000000000000
         H           -0.781187539594    -0.874013868606     1.124363547502     1.007825032230
         H            0.077696460406     1.212311131394    -0.649624452498     1.007825032230
         H           -1.348872539594    -1.312616868606    -1.845361452498     1.007825032230
         H           -0.321226539594    -2.318996868606    -0.796032452498     1.007825032230
         H           -2.076138539594    -2.220439868606    -0.496859452498     1.007825032230
         H            2.550656460406     0.932444131394    -1.433368452498     1.007825032230
         H            2.358151460406     1.814762131394     0.068879547502     1.007825032230
         H            4.180877460406    -0.631738868606    -0.311465452498     1.007825032230
         H            4.722124460406     1.056114131394    -0.209534452498     1.007825032230
         H            3.993005460406     0.257098131394     1.197206547502     1.007825032230
         H           -2.843535539594     2.113420131394    -0.128396452498     1.007825032230

  Basis Set: AUG-CC-PVTZ
    Blend: AUG-CC-PVTZ
  Basis Set: (AUG-CC-PVTZ AUX)
    Blend: AUG-CC-PVTZ-JKFIT
	 Reference Energy          =    -512.8490308522746091 [Eh]
	 Singles Energy            =      -0.0000000000000000 [Eh]
	 Same-Spin Energy          =      -0.5120457766615906 [Eh]
	 Opposite-Spin Energy      =      -1.6170375248598190 [Eh]
	 Correlation Energy        =      -2.1290833015214097 [Eh]
	 Total Energy              =    -514.9781141537960139 [Eh]

	 ================> DF-SCS-MP2 Energies <==================
	-----------------------------------------------------------
	 SCS Same-Spin Scale       =       0.3333333333333333 [-]
	 SCS Opposite-Spin Scale   =       1.2000000000000000 [-]
	 SCS Same-Spin Energy      =      -0.1706819255538635 [Eh]
	 SCS Opposite-Spin Energy  =      -1.9404450298317828 [Eh]
	 SCS Correlation Energy    =      -2.1111269553856462 [Eh]
	 SCS Total Energy          =    -514.9601578076602664 [Eh]
	-----------------------------------------------------------

  Dipole Moment: [D]
     X:    -0.3129      Y:     1.7464      Z:    -1.4487     Total:     2.2906

*** Psi4 exiting successfully. Buy a developer a beer!
