                               Psi4 1.3.2 release

  ==> Input File <==

--------------------------------------------------------------------------
#psi4
#
memory 32 gb

molecule  {
0 1
  O       -1.9705880     1.6613530    -0.1848000
  O        1.6688240    -1.2224340     0.6437850
  O       -3.2913740    -0.0479250     0.4948630
  N        0.2140730     0.2683100    -0.2698780
  C       -0.9510770    -0.4970410     0.1176100
  C       -1.1968270    -1.6816620    -0.8184860
  C        2.5789920     0.8068070    -0.3378900
  C        1.4682490    -0.1481810     0.0706060
  C       -2.1585610     0.5556915     0.1303615
  C        3.9506640     0.3320720     0.1153760
  H       -0.7838570    -0.8897150     1.1288390
  H        0.0750270     1.1966100    -0.6451490
  H       -1.3515420    -1.3283180    -1.8408860
  H       -0.3238960    -2.3346980    -0.7915570
  H       -2.0788080    -2.2361410    -0.4923840
  H        2.5479870     0.9167430    -1.4288930
  H        2.3554820     1.7990610     0.0733550
  H        4.1782080    -0.6474400    -0.3069900
  H        4.7194550     1.0404130    -0.2050590
  H        3.9903360     0.2413970     1.2016820
  H       -2.8462050     2.0977190    -0.1239210
units angstrom
no_reorient  #important for SAPT in psi4, default
symmetry c1  #important for SAPT in psi4, default
}

set PROPERTIES_ORIGIN ["COM"]
properties('MP2/aug-cc-pvtz', properties = ['dipole'])
--------------------------------------------------------------------------

    Molecular point group: c1
  Charge       = 0
  Multiplicity = 1
  Basis Set: AUG-CC-PVTZ
    Blend: AUG-CC-PVTZ
  Basis Set: (AUG-CC-PVTZ AUX)
    Blend: AUG-CC-PVTZ-JKFIT

    Orbital Energies [Eh]
    ---------------------

    Doubly Occupied:

       1A    -20.692641     2A    -20.530228     3A    -20.523862
       4A    -15.589555     5A    -11.407216     6A    -11.354452
       7A    -11.296033     8A    -11.247426     9A    -11.219709
      10A    -11.219533    11A     -1.600795    12A     -1.379509
      13A     -1.302127    14A     -1.244499    15A     -1.069062
      16A     -1.025832    17A     -0.955808    18A     -0.899281
      19A     -0.843887    20A     -0.808978    21A     -0.763670
      22A     -0.724009    23A     -0.714935    24A     -0.675296
      25A     -0.650691    26A     -0.637292    27A     -0.604209
      28A     -0.581853    29A     -0.575644    30A     -0.540846
      31A     -0.528167    32A     -0.520480    33A     -0.518278
      34A     -0.509995    35A     -0.491013    36A     -0.451877
      37A     -0.441334    38A     -0.423117    39A     -0.395796

  @DF-RHF Final Energy:  -512.82455206038503

   => Energetics <=

    Nuclear Repulsion Energy =            548.4133755613551102
    One-Electron Energy =               -1788.5579890765311575
    Two-Electron Energy =                 727.3200614547909026
    Total Energy =                       -512.8245520603850309
  Basis Set: (AUG-CC-PVTZ AUX)
    Blend: AUG-CC-PVTZ-RI
    Molecular point group: c1

    Geometry (in Angstrom), charge = 0, multiplicity = 1:

       Center              X                  Y                   Z               Mass
    ------------   -----------------  -----------------  -----------------  -----------------
         O           -1.973257225851     1.645651899752    -0.180324455381    15.994914619570
         O            1.666154774149    -1.238135100248     0.648260544619    15.994914619570
         O           -3.294043225851    -0.063626100248     0.499338544619    15.994914619570
         N            0.211403774149     0.252608899752    -0.265402455381    14.003074004430
         C           -0.953746225851    -0.512742100248     0.122085544619    12.000000000000
         C           -1.199496225851    -1.697363100248    -0.814010455381    12.000000000000
         C            2.576322774149     0.791105899752    -0.333414455381    12.000000000000
         C            1.465579774149    -0.163882100248     0.075081544619    12.000000000000
         C           -2.161230225851     0.539990399752     0.134837044619    12.000000000000
         C            3.947994774149     0.316370899752     0.119851544619    12.000000000000
         H           -0.786526225851    -0.905416100248     1.133314544619     1.007825032230
         H            0.072357774149     1.180908899752    -0.640673455381     1.007825032230
         H           -1.354211225851    -1.344019100248    -1.836410455381     1.007825032230
         H           -0.326565225851    -2.350399100248    -0.787081455381     1.007825032230
         H           -2.081477225851    -2.251842100248    -0.487908455381     1.007825032230
         H            2.545317774149     0.901041899752    -1.424417455381     1.007825032230
         H            2.352812774149     1.783359899752     0.077830544619     1.007825032230
         H            4.175538774149    -0.663141100248    -0.302514455381     1.007825032230
         H            4.716785774149     1.024711899752    -0.200583455381     1.007825032230
         H            3.987666774149     0.225695899752     1.206157544619     1.007825032230
         H           -2.848874225851     2.082017899752    -0.119445455381     1.007825032230

  Basis Set: AUG-CC-PVTZ
    Blend: AUG-CC-PVTZ
  Basis Set: (AUG-CC-PVTZ AUX)
    Blend: AUG-CC-PVTZ-JKFIT
	 Reference Energy          =    -512.8245520603850309 [Eh]
	 Singles Energy            =      -0.0000000000000000 [Eh]
	 Same-Spin Energy          =      -0.5124777714930056 [Eh]
	 Opposite-Spin Energy      =      -1.6160991081002360 [Eh]
	 Correlation Energy        =      -2.1285768795932416 [Eh]
	 Total Energy              =    -514.9531289399782281 [Eh]

	 ================> DF-SCS-MP2 Energies <==================
	-----------------------------------------------------------
	 SCS Same-Spin Scale       =       0.3333333333333333 [-]
	 SCS Opposite-Spin Scale   =       1.2000000000000000 [-]
	 SCS Same-Spin Energy      =      -0.1708259238310018 [Eh]
	 SCS Opposite-Spin Energy  =      -1.9393189297202831 [Eh]
	 SCS Correlation Energy    =      -2.1101448535512848 [Eh]
	 SCS Total Energy          =    -514.9346969139363637 [Eh]
	-----------------------------------------------------------

  Dipole Moment: [D]
     X:     0.3176      Y:     4.7546      Z:    -2.2673     Total:     5.2771

*** Psi4 exiting successfully. Buy a developer a beer!
