                               Psi4 1.3.2 release

  ==> Input File <==

--------------------------------------------------------------------------
#psi4
#
memory 32 gb

molecule  {
0 1
  O       -1.9705880     1.6613530    -0.1848000
  O        1.6688240    -1.2224340     0.6437850
  O       -3.2913740    -0.0479250     0.4948630
  N        0.2140730     0.2683100    -0.2698780
  C       -0.9658035    -0.4777813     0.1105467
  C       -1.1968270    -1.6816620    -0.8184860
  C        2.5789920     0.8068070    -0.3378900
  C        1.4682490    -0.1481810     0.0706060
  C       -2.1908320     0.3658730     0.1844680
  C        3.9506640     0.3320720     0.1153760
  H       -0.7838570    -0.8897150     1.1288390
  H        0.0576016     1.1945983    -0.6432541
  H       -1.3515420    -1.3283180    -1.8408860
  H       -0.3238960    -2.3346980    -0.7915570
  H       -2.0788080    -2.2361410    -0.4923840
  H        2.5479870     0.9167430    -1.4288930
  H        2.3554820     1.7990610     0.0733550
  H        4.1782080    -0.6474400    -0.3069900
  H        4.7194550     1.0404130    -0.2050590
  H        3.9903360     0.2413970     1.2016820
  H       -2.8462050     2.0977190    -0.1239210
units angstrom
no_reorient  #important for SAPT in psi4, default
symmetry c1  #important for SAPT in psi4, default
}

set PROPERTIES_ORIGIN ["COM"]
properties('MP2/aug-cc-pvtz', properties = ['dipole'])
--------------------------------------------------------------------------

    Molecular point group: c1
  Charge       = 0
  Multiplicity = 1
  Basis Set: AUG-CC-PVTZ
    Blend: AUG-CC-PVTZ
  Basis Set: (AUG-CC-PVTZ AUX)
    Blend: AUG-CC-PVTZ-JKFIT

    Orbital Energies [Eh]
    ---------------------

    Doubly Occupied:

       1A    -20.636965     2A    -20.564845     3A    -20.524885
       4A    -15.591773     5A    -11.405917     6A    -11.356695
       7A    -11.296793     8A    -11.247330     9A    -11.227712
      10A    -11.219591    11A     -1.479728    12A     -1.380556
      13A     -1.374468    14A     -1.246324    15A     -1.075941
      16A     -1.036137    17A     -0.930609    18A     -0.887316
      19A     -0.815166    20A     -0.794234    21A     -0.732659
      22A     -0.715161    23A     -0.682799    24A     -0.666646
      25A     -0.641589    26A     -0.632594    27A     -0.611603
      28A     -0.602119    29A     -0.578966    30A     -0.548517
      31A     -0.544782    32A     -0.524047    33A     -0.520412
      34A     -0.519037    35A     -0.498077    36A     -0.487542
      37A     -0.470581    38A     -0.428676    39A     -0.399301

  @DF-RHF Final Energy:  -512.88473941448478

   => Energetics <=

    Nuclear Repulsion Energy =            548.1884982717373305
    One-Electron Energy =               -1788.3502869502681278
    Two-Electron Energy =                 727.2770492640458997
    Total Energy =                       -512.8847394144847840
  Basis Set: (AUG-CC-PVTZ AUX)
    Blend: AUG-CC-PVTZ-RI
    Molecular point group: c1

    Geometry (in Angstrom), charge = 0, multiplicity = 1:

       Center              X                  Y                   Z               Mass
    ------------   -----------------  -----------------  -----------------  -----------------
         O           -1.969248704804     1.659773896454    -0.184228866540    15.994914619570
         O            1.670163295196    -1.224013103546     0.644356133460    15.994914619570
         O           -3.290034704804    -0.049504103546     0.495434133460    15.994914619570
         N            0.215412295196     0.266730896454    -0.269306866540    14.003074004430
         C           -0.964464204804    -0.479360403546     0.111117833460    12.000000000000
         C           -1.195487704804    -1.683241103546    -0.817914866540    12.000000000000
         C            2.580331295196     0.805227896454    -0.337318866540    12.000000000000
         C            1.469588295196    -0.149760103546     0.071177133460    12.000000000000
         C           -2.189492704804     0.364293896454     0.185039133460    12.000000000000
         C            3.952003295196     0.330492896454     0.115947133460    12.000000000000
         H           -0.782517704804    -0.891294103546     1.129410133460     1.007825032230
         H            0.058940895196     1.193019196454    -0.642682966540     1.007825032230
         H           -1.350202704804    -1.329897103546    -1.840314866540     1.007825032230
         H           -0.322556704804    -2.336277103546    -0.790985866540     1.007825032230
         H           -2.077468704804    -2.237720103546    -0.491812866540     1.007825032230
         H            2.549326295196     0.915163896454    -1.428321866540     1.007825032230
         H            2.356821295196     1.797481896454     0.073926133460     1.007825032230
         H            4.179547295196    -0.649019103546    -0.306418866540     1.007825032230
         H            4.720794295196     1.038833896454    -0.204487866540     1.007825032230
         H            3.991675295196     0.239817896454     1.202253133460     1.007825032230
         H           -2.844865704804     2.096139896454    -0.123349866540     1.007825032230

  Basis Set: AUG-CC-PVTZ
    Blend: AUG-CC-PVTZ
  Basis Set: (AUG-CC-PVTZ AUX)
    Blend: AUG-CC-PVTZ-JKFIT
	 Reference Energy          =    -512.8847394144847840 [Eh]
	 Singles Energy            =      -0.0000000000000000 [Eh]
	 Same-Spin Energy          =      -0.5115601775721016 [Eh]
	 Opposite-Spin Energy      =      -1.6152894904264445 [Eh]
	 Correlation Energy        =      -2.1268496679985462 [Eh]
	 Total Energy              =    -515.0115890824832832 [Eh]

	 ================> DF-SCS-MP2 Energies <==================
	-----------------------------------------------------------
	 SCS Same-Spin Scale       =       0.3333333333333333 [-]
	 SCS Opposite-Spin Scale   =       1.2000000000000000 [-]
	 SCS Same-Spin Energy      =      -0.1705200591907005 [Eh]
	 SCS Opposite-Spin Energy  =      -1.9383473885117333 [Eh]
	 SCS Correlation Energy    =      -2.1088674477024338 [Eh]
	 SCS Total Energy          =    -514.9936068621872209 [Eh]
	-----------------------------------------------------------

  Dipole Moment: [D]
     X:    -0.0909      Y:     3.3674      Z:    -1.8599     Total:     3.8480

*** Psi4 exiting successfully. Buy a developer a beer!
