                               Psi4 1.3.2 release

  ==> Input File <==

--------------------------------------------------------------------------
#psi4
#
memory 32 gb

molecule  {
0 1
  O       -1.9821585     1.6637112    -0.1832359
  O        1.6688240    -1.2224340     0.6437850
  O       -3.2954310    -0.0382657     0.4931743
  N        0.2140730     0.2683100    -0.2698780
  C       -0.9510770    -0.4970410     0.1176100
  C       -1.1968270    -1.6816620    -0.8184860
  C        2.5789920     0.8068070    -0.3378900
  C        1.4682490    -0.1481810     0.0706060
  C       -2.1908320     0.3658730     0.1844680
  C        3.9506640     0.3320720     0.1153760
  H       -0.7838570    -0.8897150     1.1288390
  H        0.0750270     1.1966100    -0.6451490
  H       -1.3515420    -1.3283180    -1.8408860
  H       -0.3238960    -2.3346980    -0.7915570
  H       -2.0788080    -2.2361410    -0.4923840
  H        2.5479870     0.9167430    -1.4288930
  H        2.3554820     1.7990610     0.0733550
  H        4.1782080    -0.6474400    -0.3069900
  H        4.7194550     1.0404130    -0.2050590
  H        3.9903360     0.2413970     1.2016820
  H       -2.8462050     2.0977190    -0.1239210
units angstrom
no_reorient  #important for SAPT in psi4, default
symmetry c1  #important for SAPT in psi4, default
}

set PROPERTIES_ORIGIN ["COM"]
properties('MP2/aug-cc-pvtz', properties = ['dipole'])
--------------------------------------------------------------------------

    Molecular point group: c1
  Charge       = 0
  Multiplicity = 1
  Basis Set: AUG-CC-PVTZ
    Blend: AUG-CC-PVTZ
  Basis Set: (AUG-CC-PVTZ AUX)
    Blend: AUG-CC-PVTZ-JKFIT

    Orbital Energies [Eh]
    ---------------------

    Doubly Occupied:

       1A    -20.634159     2A    -20.563851     3A    -20.525022
       4A    -15.592228     5A    -11.405632     6A    -11.356332
       7A    -11.298282     8A    -11.247523     9A    -11.227390
      10A    -11.219777    11A     -1.479670    12A     -1.380971
      13A     -1.373030    14A     -1.246717    15A     -1.076057
      16A     -1.036245    17A     -0.929219    18A     -0.886511
      19A     -0.818823    20A     -0.792897    21A     -0.731458
      22A     -0.714761    23A     -0.683168    24A     -0.666194
      25A     -0.641615    26A     -0.633784    27A     -0.610687
      28A     -0.603156    29A     -0.581453    30A     -0.547774
      31A     -0.544683    32A     -0.524749    33A     -0.521499
      34A     -0.520035    35A     -0.497504    36A     -0.488507
      37A     -0.468484    38A     -0.428625    39A     -0.400691

  @DF-RHF Final Energy:  -512.88692083198896

   => Energetics <=

    Nuclear Repulsion Energy =            547.9116644911548519
    One-Electron Energy =               -1787.7988451242606516
    Two-Electron Energy =                 727.0002598011168402
    Total Energy =                       -512.8869208319889594
  Basis Set: (AUG-CC-PVTZ AUX)
    Blend: AUG-CC-PVTZ-RI
    Molecular point group: c1

    Geometry (in Angstrom), charge = 0, multiplicity = 1:

       Center              X                  Y                   Z               Mass
    ------------   -----------------  -----------------  -----------------  -----------------
         O           -1.980435395060     1.662386243297    -0.183222116345    15.994914619570
         O            1.670547104940    -1.223758956703     0.643798783655    15.994914619570
         O           -3.293707895060    -0.039590656703     0.493188083655    15.994914619570
         N            0.215796104940     0.266985043297    -0.269864216345    14.003074004430
         C           -0.949353895060    -0.498365956703     0.117623783655    12.000000000000
         C           -1.195103895060    -1.682986956703    -0.818472216345    12.000000000000
         C            2.580715104940     0.805482043297    -0.337876216345    12.000000000000
         C            1.469972104940    -0.149505956703     0.070619783655    12.000000000000
         C           -2.189108895060     0.364548043297     0.184481783655    12.000000000000
         C            3.952387104940     0.330747043297     0.115389783655    12.000000000000
         H           -0.782133895060    -0.891039956703     1.128852783655     1.007825032230
         H            0.076750104940     1.195285043297    -0.645135216345     1.007825032230
         H           -1.349818895060    -1.329642956703    -1.840872216345     1.007825032230
         H           -0.322172895060    -2.336022956703    -0.791543216345     1.007825032230
         H           -2.077084895060    -2.237465956703    -0.492370216345     1.007825032230
         H            2.549710104940     0.915418043297    -1.428879216345     1.007825032230
         H            2.357205104940     1.797736043297     0.073368783655     1.007825032230
         H            4.179931104940    -0.648764956703    -0.306976216345     1.007825032230
         H            4.721178104940     1.039088043297    -0.205045216345     1.007825032230
         H            3.992059104940     0.240072043297     1.201695783655     1.007825032230
         H           -2.844481895060     2.096394043297    -0.123907216345     1.007825032230

  Basis Set: AUG-CC-PVTZ
    Blend: AUG-CC-PVTZ
  Basis Set: (AUG-CC-PVTZ AUX)
    Blend: AUG-CC-PVTZ-JKFIT
	 Reference Energy          =    -512.8869208319889594 [Eh]
	 Singles Energy            =      -0.0000000000000000 [Eh]
	 Same-Spin Energy          =      -0.5110483627501312 [Eh]
	 Opposite-Spin Energy      =      -1.6143813685221748 [Eh]
	 Correlation Energy        =      -2.1254297312723063 [Eh]
	 Total Energy              =    -515.0123505632612932 [Eh]

	 ================> DF-SCS-MP2 Energies <==================
	-----------------------------------------------------------
	 SCS Same-Spin Scale       =       0.3333333333333333 [-]
	 SCS Opposite-Spin Scale   =       1.2000000000000000 [-]
	 SCS Same-Spin Energy      =      -0.1703494542500437 [Eh]
	 SCS Opposite-Spin Energy  =      -1.9372576422266097 [Eh]
	 SCS Correlation Energy    =      -2.1076070964766536 [Eh]
	 SCS Total Energy          =    -514.9945279284655726 [Eh]
	-----------------------------------------------------------

  Dipole Moment: [D]
     X:    -0.0453      Y:     3.3265      Z:    -1.8605     Total:     3.8118

*** Psi4 exiting successfully. Buy a developer a beer!
