                               Psi4 1.3.2 release

  ==> Input File <==

--------------------------------------------------------------------------
#psi4
#
memory 32 gb

molecule  {
0 1
  O       -1.9705880     1.6613530    -0.1848000
  O        1.6688240    -1.2224340     0.6437850
  O       -3.2913740    -0.0479250     0.4948630
  N        0.2140730     0.2683100    -0.2698780
  C       -0.9510770    -0.4970410     0.1176100
  C       -1.1968270    -1.6816620    -0.8184860
  C        2.5789920     0.8068070    -0.3378900
  C        1.4647426    -0.1494580     0.0578706
  C       -2.1908320     0.3658730     0.1844680
  C        3.9506640     0.3320720     0.1153760
  H       -0.7838570    -0.8897150     1.1288390
  H        0.0750270     1.1966100    -0.6451490
  H       -1.3515420    -1.3283180    -1.8408860
  H       -0.3238960    -2.3346980    -0.7915570
  H       -2.0788080    -2.2361410    -0.4923840
  H        2.5405473     0.9107292    -1.4292456
  H        2.3554820     1.7990610     0.0733550
  H        4.1782080    -0.6474400    -0.3069900
  H        4.7194550     1.0404130    -0.2050590
  H        3.9903360     0.2413970     1.2016820
  H       -2.8462050     2.0977190    -0.1239210
units angstrom
no_reorient  #important for SAPT in psi4, default
symmetry c1  #important for SAPT in psi4, default
}

set PROPERTIES_ORIGIN ["COM"]
properties('MP2/aug-cc-pvtz', properties = ['dipole'])
--------------------------------------------------------------------------

    Molecular point group: c1
  Charge       = 0
  Multiplicity = 1
  Basis Set: AUG-CC-PVTZ
    Blend: AUG-CC-PVTZ
  Basis Set: (AUG-CC-PVTZ AUX)
    Blend: AUG-CC-PVTZ-JKFIT

    Orbital Energies [Eh]
    ---------------------

    Doubly Occupied:

       1A    -20.637037     2A    -20.565000     3A    -20.523037
       4A    -15.592826     5A    -11.406219     6A    -11.355612
       7A    -11.297774     8A    -11.247323     9A    -11.227238
      10A    -11.219521    11A     -1.479093    12A     -1.377394
      13A     -1.374142    14A     -1.247209    15A     -1.076011
      16A     -1.036162    17A     -0.928907    18A     -0.886269
      19A     -0.817472    20A     -0.793896    21A     -0.731422
      22A     -0.715142    23A     -0.682379    24A     -0.666207
      25A     -0.641654    26A     -0.633963    27A     -0.611031
      28A     -0.601381    29A     -0.581017    30A     -0.547726
      31A     -0.544548    32A     -0.524602    33A     -0.521079
      34A     -0.519299    35A     -0.498063    36A     -0.487823
      37A     -0.468653    38A     -0.427329    39A     -0.400335

  @DF-RHF Final Energy:  -512.88560105188105

   => Energetics <=

    Nuclear Repulsion Energy =            548.0624043998782327
    One-Electron Energy =               -1788.1124208157514204
    Two-Electron Energy =                 727.1644153639921342
    Total Energy =                       -512.8856010518810535
  Basis Set: (AUG-CC-PVTZ AUX)
    Blend: AUG-CC-PVTZ-RI
    Molecular point group: c1

    Geometry (in Angstrom), charge = 0, multiplicity = 1:

       Center              X                  Y                   Z               Mass
    ------------   -----------------  -----------------  -----------------  -----------------
         O           -1.970246162274     1.661500422234    -0.183744077133    15.994914619570
         O            1.669165837726    -1.222286577766     0.644840922867    15.994914619570
         O           -3.291032162274    -0.047777577766     0.495918922867    15.994914619570
         N            0.214414837726     0.268457422234    -0.268822077133    14.003074004430
         C           -0.950735162274    -0.496893577766     0.118665922867    12.000000000000
         C           -1.196485162274    -1.681514577766    -0.817430077133    12.000000000000
         C            2.579333837726     0.806954422234    -0.336834077133    12.000000000000
         C            1.465084437726    -0.149310577766     0.058926522867    12.000000000000
         C           -2.190490162274     0.366020422234     0.185523922867    12.000000000000
         C            3.951005837726     0.332219422234     0.116431922867    12.000000000000
         H           -0.783515162274    -0.889567577766     1.129894922867     1.007825032230
         H            0.075368837726     1.196757422234    -0.644093077133     1.007825032230
         H           -1.351200162274    -1.328170577766    -1.839830077133     1.007825032230
         H           -0.323554162274    -2.334550577766    -0.790501077133     1.007825032230
         H           -2.078466162274    -2.235993577766    -0.491328077133     1.007825032230
         H            2.540889137726     0.910876622234    -1.428189677133     1.007825032230
         H            2.355823837726     1.799208422234     0.074410922867     1.007825032230
         H            4.178549837726    -0.647292577766    -0.305934077133     1.007825032230
         H            4.719796837726     1.040560422234    -0.204003077133     1.007825032230
         H            3.990677837726     0.241544422234     1.202737922867     1.007825032230
         H           -2.845863162274     2.097866422234    -0.122865077133     1.007825032230

  Basis Set: AUG-CC-PVTZ
    Blend: AUG-CC-PVTZ
  Basis Set: (AUG-CC-PVTZ AUX)
    Blend: AUG-CC-PVTZ-JKFIT
	 Reference Energy          =    -512.8856010518810535 [Eh]
	 Singles Energy            =      -0.0000000000000000 [Eh]
	 Same-Spin Energy          =      -0.5114253320056541 [Eh]
	 Opposite-Spin Energy      =      -1.6151046758113519 [Eh]
	 Correlation Energy        =      -2.1265300078170060 [Eh]
	 Total Energy              =    -515.0121310596980493 [Eh]

	 ================> DF-SCS-MP2 Energies <==================
	-----------------------------------------------------------
	 SCS Same-Spin Scale       =       0.3333333333333333 [-]
	 SCS Opposite-Spin Scale   =       1.2000000000000000 [-]
	 SCS Same-Spin Energy      =      -0.1704751106685514 [Eh]
	 SCS Opposite-Spin Energy  =      -1.9381256109736222 [Eh]
	 SCS Correlation Energy    =      -2.1086007216421736 [Eh]
	 SCS Total Energy          =    -514.9942017735231730 [Eh]
	-----------------------------------------------------------

  Dipole Moment: [D]
     X:    -0.1408      Y:     3.3880      Z:    -1.8839     Total:     3.8791

*** Psi4 exiting successfully. Buy a developer a beer!
