                               Psi4 1.3.2 release

  ==> Input File <==

--------------------------------------------------------------------------
#psi4
#
memory 32 gb

molecule  {
0 1
  O       -1.9705880     1.6613530    -0.1848000
  O        1.6688240    -1.2224340     0.6437850
  O       -3.2913740    -0.0479250     0.4948630
  N        0.2140730     0.2683100    -0.2698780
  C       -0.9584849    -0.4874399     0.1140930
  C       -1.1968270    -1.6816620    -0.8184860
  C        2.5789920     0.8068070    -0.3378900
  C        1.4682490    -0.1481810     0.0706060
  C       -2.1908320     0.3658730     0.1844680
  C        3.9506640     0.3320720     0.1153760
  H       -0.7838570    -0.8897150     1.1288390
  H        0.0663087     1.1956395    -0.6442158
  H       -1.3515420    -1.3283180    -1.8408860
  H       -0.3238960    -2.3346980    -0.7915570
  H       -2.0788080    -2.2361410    -0.4923840
  H        2.5479870     0.9167430    -1.4288930
  H        2.3554820     1.7990610     0.0733550
  H        4.1782080    -0.6474400    -0.3069900
  H        4.7194550     1.0404130    -0.2050590
  H        3.9903360     0.2413970     1.2016820
  H       -2.8462050     2.0977190    -0.1239210
units angstrom
no_reorient  #important for SAPT in psi4, default
symmetry c1  #important for SAPT in psi4, default
}

set PROPERTIES_ORIGIN ["COM"]
properties('MP2/aug-cc-pvtz', properties = ['dipole'])
--------------------------------------------------------------------------

    Molecular point group: c1
  Charge       = 0
  Multiplicity = 1
  Basis Set: AUG-CC-PVTZ
    Blend: AUG-CC-PVTZ
  Basis Set: (AUG-CC-PVTZ AUX)
    Blend: AUG-CC-PVTZ-JKFIT

    Orbital Energies [Eh]
    ---------------------

    Doubly Occupied:

       1A    -20.636811     2A    -20.564742     3A    -20.524741
       4A    -15.591688     5A    -11.405864     6A    -11.356295
       7A    -11.296968     8A    -11.247292     9A    -11.227259
      10A    -11.219580    11A     -1.479212    12A     -1.380551
      13A     -1.374174    14A     -1.246200    15A     -1.075710
      16A     -1.035927    17A     -0.929432    18A     -0.886620
      19A     -0.816049    20A     -0.793433    21A     -0.731859
      22A     -0.714987    23A     -0.682778    24A     -0.666358
      25A     -0.641512    26A     -0.633249    27A     -0.611149
      28A     -0.602448    29A     -0.579964    30A     -0.547815
      31A     -0.544725    32A     -0.524241    33A     -0.520700
      34A     -0.519533    35A     -0.497954    36A     -0.488049
      37A     -0.469566    38A     -0.428445    39A     -0.399747

  @DF-RHF Final Energy:  -512.88559713638278

   => Energetics <=

    Nuclear Repulsion Energy =            548.1105369308203308
    One-Electron Energy =               -1788.2050114299916004
    Two-Electron Energy =                 727.2088773627883711
    Total Energy =                       -512.8855971363827848
  Basis Set: (AUG-CC-PVTZ AUX)
    Blend: AUG-CC-PVTZ-RI
    Molecular point group: c1

    Geometry (in Angstrom), charge = 0, multiplicity = 1:

       Center              X                  Y                   Z               Mass
    ------------   -----------------  -----------------  -----------------  -----------------
         O           -1.969914561570     1.660565588536    -0.184515523042    15.994914619570
         O            1.669497438430    -1.223221411464     0.644069476958    15.994914619570
         O           -3.290700561570    -0.048712411464     0.495147476958    15.994914619570
         N            0.214746438430     0.267522588536    -0.269593523042    14.003074004430
         C           -0.957811461570    -0.488227311464     0.114377476958    12.000000000000
         C           -1.196153561570    -1.682449411464    -0.818201523042    12.000000000000
         C            2.579665438430     0.806019588536    -0.337605523042    12.000000000000
         C            1.468922438430    -0.148968411464     0.070890476958    12.000000000000
         C           -2.190158561570     0.365085588536     0.184752476958    12.000000000000
         C            3.951337438430     0.331284588536     0.115660476958    12.000000000000
         H           -0.783183561570    -0.890502411464     1.129123476958     1.007825032230
         H            0.066982138430     1.194852088536    -0.643931323042     1.007825032230
         H           -1.350868561570    -1.329105411464    -1.840601523042     1.007825032230
         H           -0.323222561570    -2.335485411464    -0.791272523042     1.007825032230
         H           -2.078134561570    -2.236928411464    -0.492099523042     1.007825032230
         H            2.548660438430     0.915955588536    -1.428608523042     1.007825032230
         H            2.356155438430     1.798273588536     0.073639476958     1.007825032230
         H            4.178881438430    -0.648227411464    -0.306705523042     1.007825032230
         H            4.720128438430     1.039625588536    -0.204774523042     1.007825032230
         H            3.991009438430     0.240609588536     1.201966476958     1.007825032230
         H           -2.845531561570     2.096931588536    -0.123636523042     1.007825032230

  Basis Set: AUG-CC-PVTZ
    Blend: AUG-CC-PVTZ
  Basis Set: (AUG-CC-PVTZ AUX)
    Blend: AUG-CC-PVTZ-JKFIT
	 Reference Energy          =    -512.8855971363827848 [Eh]
	 Singles Energy            =      -0.0000000000000000 [Eh]
	 Same-Spin Energy          =      -0.5114325832106185 [Eh]
	 Opposite-Spin Energy      =      -1.6150952349276988 [Eh]
	 Correlation Energy        =      -2.1265278181383174 [Eh]
	 Total Energy              =    -515.0121249545211413 [Eh]

	 ================> DF-SCS-MP2 Energies <==================
	-----------------------------------------------------------
	 SCS Same-Spin Scale       =       0.3333333333333333 [-]
	 SCS Opposite-Spin Scale   =       1.2000000000000000 [-]
	 SCS Same-Spin Energy      =      -0.1704775277368728 [Eh]
	 SCS Opposite-Spin Energy  =      -1.9381142819132384 [Eh]
	 SCS Correlation Energy    =      -2.1085918096501111 [Eh]
	 SCS Total Energy          =    -514.9941889460328639 [Eh]
	-----------------------------------------------------------

  Dipole Moment: [D]
     X:    -0.0925      Y:     3.3684      Z:    -1.8598     Total:     3.8488

*** Psi4 exiting successfully. Buy a developer a beer!
