                               Psi4 1.3.2 release

  ==> Input File <==

--------------------------------------------------------------------------
#psi4
#
memory 32 gb

molecule  {
0 1
  O       -1.9705880     1.6613530    -0.1848000
  O        1.6688240    -1.2224340     0.6437850
  O       -3.2913740    -0.0479250     0.4948630
  N        0.2100430     0.2838838    -0.2504124
  C       -0.9510770    -0.4970410     0.1176100
  C       -1.2182461    -1.6883494    -0.8040193
  C        2.5789920     0.8068070    -0.3378900
  C        1.4682490    -0.1481810     0.0706060
  C       -2.1908320     0.3658730     0.1844680
  C        3.9506640     0.3320720     0.1153760
  H       -0.7838570    -0.8897150     1.1288390
  H        0.0750270     1.1966100    -0.6451490
  H       -1.3515420    -1.3283180    -1.8408860
  H       -0.3238960    -2.3346980    -0.7915570
  H       -2.0788080    -2.2361410    -0.4923840
  H        2.5479870     0.9167430    -1.4288930
  H        2.3554820     1.7990610     0.0733550
  H        4.1782080    -0.6474400    -0.3069900
  H        4.7194550     1.0404130    -0.2050590
  H        3.9903360     0.2413970     1.2016820
  H       -2.8462050     2.0977190    -0.1239210
units angstrom
no_reorient  #important for SAPT in psi4, default
symmetry c1  #important for SAPT in psi4, default
}

set PROPERTIES_ORIGIN ["COM"]
properties('MP2/aug-cc-pvtz', properties = ['dipole'])
--------------------------------------------------------------------------

    Molecular point group: c1
  Charge       = 0
  Multiplicity = 1
  Basis Set: AUG-CC-PVTZ
    Blend: AUG-CC-PVTZ
  Basis Set: (AUG-CC-PVTZ AUX)
    Blend: AUG-CC-PVTZ-JKFIT

    Orbital Energies [Eh]
    ---------------------

    Doubly Occupied:

       1A    -20.635936     2A    -20.563818     3A    -20.525489
       4A    -15.591621     5A    -11.404814     6A    -11.356776
       7A    -11.297183     8A    -11.247442     9A    -11.227538
      10A    -11.219743    11A     -1.478061    12A     -1.380684
      13A     -1.373235    14A     -1.246198    15A     -1.075580
      16A     -1.036220    17A     -0.928472    18A     -0.885702
      19A     -0.817595    20A     -0.793035    21A     -0.730656
      22A     -0.714424    23A     -0.682592    24A     -0.665718
      25A     -0.641311    26A     -0.633521    27A     -0.609222
      28A     -0.604430    29A     -0.583291    30A     -0.550622
      31A     -0.541990    32A     -0.526919    33A     -0.520532
      34A     -0.517587    35A     -0.497744    36A     -0.488109
      37A     -0.467410    38A     -0.428625    39A     -0.400395

  @DF-RHF Final Energy:  -512.88533694349667

   => Energetics <=

    Nuclear Repulsion Energy =            547.9386895434356575
    One-Electron Energy =               -1787.8675721247407182
    Two-Electron Energy =                 727.0435456378083927
    Total Energy =                       -512.8853369434966680
  Basis Set: (AUG-CC-PVTZ AUX)
    Blend: AUG-CC-PVTZ-RI
    Molecular point group: c1

    Geometry (in Angstrom), charge = 0, multiplicity = 1:

       Center              X                  Y                   Z               Mass
    ------------   -----------------  -----------------  -----------------  -----------------
         O           -1.968427179778     1.660402932337    -0.187875480676    15.994914619570
         O            1.670984820222    -1.223384067663     0.640709519324    15.994914619570
         O           -3.289213179778    -0.048875067663     0.491787519324    15.994914619570
         N            0.212203820222     0.282933732337    -0.253487880676    14.003074004430
         C           -0.948916179778    -0.497991067663     0.114534519324    12.000000000000
         C           -1.216085279778    -1.689299467663    -0.807094780676    12.000000000000
         C            2.581152820222     0.805856932337    -0.340965480676    12.000000000000
         C            1.470409820222    -0.149131067663     0.067530519324    12.000000000000
         C           -2.188671179778     0.364922932337     0.181392519324    12.000000000000
         C            3.952824820222     0.331121932337     0.112300519324    12.000000000000
         H           -0.781696179778    -0.890665067663     1.125763519324     1.007825032230
         H            0.077187820222     1.195659932337    -0.648224480676     1.007825032230
         H           -1.349381179778    -1.329268067663    -1.843961480676     1.007825032230
         H           -0.321735179778    -2.335648067663    -0.794632480676     1.007825032230
         H           -2.076647179778    -2.237091067663    -0.495459480676     1.007825032230
         H            2.550147820222     0.915792932337    -1.431968480676     1.007825032230
         H            2.357642820222     1.798110932337     0.070279519324     1.007825032230
         H            4.180368820222    -0.648390067663    -0.310065480676     1.007825032230
         H            4.721615820222     1.039462932337    -0.208134480676     1.007825032230
         H            3.992496820222     0.240446932337     1.198606519324     1.007825032230
         H           -2.844044179778     2.096768932337    -0.126996480676     1.007825032230

  Basis Set: AUG-CC-PVTZ
    Blend: AUG-CC-PVTZ
  Basis Set: (AUG-CC-PVTZ AUX)
    Blend: AUG-CC-PVTZ-JKFIT
	 Reference Energy          =    -512.8853369434966680 [Eh]
	 Singles Energy            =      -0.0000000000000000 [Eh]
	 Same-Spin Energy          =      -0.5112783648858950 [Eh]
	 Opposite-Spin Energy      =      -1.6148357580215178 [Eh]
	 Correlation Energy        =      -2.1261141229074125 [Eh]
	 Total Energy              =    -515.0114510664041063 [Eh]

	 ================> DF-SCS-MP2 Energies <==================
	-----------------------------------------------------------
	 SCS Same-Spin Scale       =       0.3333333333333333 [-]
	 SCS Opposite-Spin Scale   =       1.2000000000000000 [-]
	 SCS Same-Spin Energy      =      -0.1704261216286316 [Eh]
	 SCS Opposite-Spin Energy  =      -1.9378029096258214 [Eh]
	 SCS Correlation Energy    =      -2.1082290312544529 [Eh]
	 SCS Total Energy          =    -514.9935659747511636 [Eh]
	-----------------------------------------------------------

  Dipole Moment: [D]
     X:    -0.0555      Y:     3.3271      Z:    -1.8860     Total:     3.8249

*** Psi4 exiting successfully. Buy a developer a beer!
