                               Psi4 1.3.2 release

  ==> Input File <==

--------------------------------------------------------------------------
#psi4
#
memory 32 gb

molecule  {
0 1
  O       -1.9705880     1.6613530    -0.1848000
  O        1.6688240    -1.2224340     0.6437850
  O       -3.2913740    -0.0479250     0.4948630
  N        0.2140730     0.2683100    -0.2698780
  C       -0.9510770    -0.4970410     0.1176100
  C       -1.1968270    -1.6816620    -0.8184860
  C        2.5789920     0.8068070    -0.3378900
  C        1.4613210    -0.1506622     0.0451052
  C       -2.1908320     0.3658730     0.1844680
  C        3.9506640     0.3320720     0.1153760
  H       -0.7838570    -0.8897150     1.1288390
  H        0.0750270     1.1966100    -0.6451490
  H       -1.3515420    -1.3283180    -1.8408860
  H       -0.3238960    -2.3346980    -0.7915570
  H       -2.0788080    -2.2361410    -0.4923840
  H        2.5331105     0.9047076    -1.4295150
  H        2.3554820     1.7990610     0.0733550
  H        4.1782080    -0.6474400    -0.3069900
  H        4.7194550     1.0404130    -0.2050590
  H        3.9903360     0.2413970     1.2016820
  H       -2.8462050     2.0977190    -0.1239210
units angstrom
no_reorient  #important for SAPT in psi4, default
symmetry c1  #important for SAPT in psi4, default
}

set PROPERTIES_ORIGIN ["COM"]
properties('MP2/aug-cc-pvtz', properties = ['dipole'])
--------------------------------------------------------------------------

    Molecular point group: c1
  Charge       = 0
  Multiplicity = 1
  Basis Set: AUG-CC-PVTZ
    Blend: AUG-CC-PVTZ
  Basis Set: (AUG-CC-PVTZ AUX)
    Blend: AUG-CC-PVTZ-JKFIT

    Orbital Energies [Eh]
    ---------------------

    Doubly Occupied:

       1A    -20.637440     2A    -20.565392     3A    -20.521478
       4A    -15.594031     5A    -11.406677     6A    -11.355355
       7A    -11.298362     8A    -11.247410     9A    -11.227628
      10A    -11.219472    11A     -1.479502    12A     -1.375209
      13A     -1.373510    14A     -1.248178    15A     -1.076525
      16A     -1.036539    17A     -0.929537    18A     -0.886630
      19A     -0.817999    20A     -0.795136    21A     -0.731820
      22A     -0.715495    23A     -0.681972    24A     -0.666283
      25A     -0.641872    26A     -0.634068    27A     -0.611433
      28A     -0.599991    29A     -0.580969    30A     -0.548139
      31A     -0.544642    32A     -0.524919    33A     -0.520937
      34A     -0.518635    35A     -0.498311    36A     -0.487066
      37A     -0.468869    38A     -0.426351    39A     -0.400424

  @DF-RHF Final Energy:  -512.88482350578749

   => Energetics <=

    Nuclear Repulsion Energy =            548.0865876732391371
    One-Electron Energy =               -1788.1544137859270904
    Two-Electron Energy =                 727.1830026069004589
    Total Energy =                       -512.8848235057874945
  Basis Set: (AUG-CC-PVTZ AUX)
    Blend: AUG-CC-PVTZ-RI
    Molecular point group: c1

    Geometry (in Angstrom), charge = 0, multiplicity = 1:

       Center              X                  Y                   Z               Mass
    ------------   -----------------  -----------------  -----------------  -----------------
         O           -1.969911476328     1.661641861322    -0.182686296821    15.994914619570
         O            1.669500523672    -1.222145138678     0.645898703179    15.994914619570
         O           -3.290697476328    -0.047636138678     0.496976703179    15.994914619570
         N            0.214749523672     0.268598861322    -0.267764296821    14.003074004430
         C           -0.950400476328    -0.496752138678     0.119723703179    12.000000000000
         C           -1.196150476328    -1.681373138678    -0.816372296821    12.000000000000
         C            2.579668523672     0.807095861322    -0.335776296821    12.000000000000
         C            1.461997523672    -0.150373338678     0.047218903179    12.000000000000
         C           -2.190155476328     0.366161861322     0.186581703179    12.000000000000
         C            3.951340523672     0.332360861322     0.117489703179    12.000000000000
         H           -0.783180476328    -0.889426138678     1.130952703179     1.007825032230
         H            0.075703523672     1.196898861322    -0.643035296821     1.007825032230
         H           -1.350865476328    -1.328029138678    -1.838772296821     1.007825032230
         H           -0.323219476328    -2.334409138678    -0.789443296821     1.007825032230
         H           -2.078131476328    -2.235852138678    -0.490270296821     1.007825032230
         H            2.533787023672     0.904996461322    -1.427401296821     1.007825032230
         H            2.356158523672     1.799349861322     0.075468703179     1.007825032230
         H            4.178884523672    -0.647151138678    -0.304876296821     1.007825032230
         H            4.720131523672     1.040701861322    -0.202945296821     1.007825032230
         H            3.991012523672     0.241685861322     1.203795703179     1.007825032230
         H           -2.845528476328     2.098007861322    -0.121807296821     1.007825032230

  Basis Set: AUG-CC-PVTZ
    Blend: AUG-CC-PVTZ
  Basis Set: (AUG-CC-PVTZ AUX)
    Blend: AUG-CC-PVTZ-JKFIT
	 Reference Energy          =    -512.8848235057874945 [Eh]
	 Singles Energy            =      -0.0000000000000000 [Eh]
	 Same-Spin Energy          =      -0.5115410942368511 [Eh]
	 Opposite-Spin Energy      =      -1.6153080097259127 [Eh]
	 Correlation Energy        =      -2.1268491039627637 [Eh]
	 Total Energy              =    -515.0116726097502351 [Eh]

	 ================> DF-SCS-MP2 Energies <==================
	-----------------------------------------------------------
	 SCS Same-Spin Scale       =       0.3333333333333333 [-]
	 SCS Opposite-Spin Scale   =       1.2000000000000000 [-]
	 SCS Same-Spin Energy      =      -0.1705136980789504 [Eh]
	 SCS Opposite-Spin Energy  =      -1.9383696116710951 [Eh]
	 SCS Correlation Energy    =      -2.1088833097500457 [Eh]
	 SCS Total Energy          =    -514.9937068155375073 [Eh]
	-----------------------------------------------------------

  Dipole Moment: [D]
     X:    -0.1883      Y:     3.4076      Z:    -1.9073     Total:     3.9096

*** Psi4 exiting successfully. Buy a developer a beer!
