                               Psi4 1.3.2 release

  ==> Input File <==

--------------------------------------------------------------------------
#psi4
#
memory 32 gb

molecule  {
0 1
  O       -1.9705880     1.6613530    -0.1848000
  O        1.6688240    -1.2224340     0.6437850
  O       -3.2913740    -0.0479250     0.4948630
  N        0.2140730     0.2683100    -0.2698780
  C       -0.9510770    -0.4970410     0.1176100
  C       -1.1807618    -1.6042208    -0.7572914
  C        2.5789920     0.8068070    -0.3378900
  C        1.4682490    -0.1481810     0.0706060
  C       -2.1908320     0.3658730     0.1844680
  C        3.9506640     0.3320720     0.1153760
  H       -0.7838570    -0.8897150     1.1288390
  H        0.0750270     1.1966100    -0.6451490
  H       -1.3515420    -1.3283180    -1.8408860
  H       -0.3238960    -2.3346980    -0.7915570
  H       -2.0788080    -2.2361410    -0.4923840
  H        2.5479870     0.9167430    -1.4288930
  H        2.3554820     1.7990610     0.0733550
  H        4.1782080    -0.6474400    -0.3069900
  H        4.7194550     1.0404130    -0.2050590
  H        3.9903360     0.2413970     1.2016820
  H       -2.8462050     2.0977190    -0.1239210
units angstrom
no_reorient  #important for SAPT in psi4, default
symmetry c1  #important for SAPT in psi4, default
}

set PROPERTIES_ORIGIN ["COM"]
properties('MP2/aug-cc-pvtz', properties = ['dipole'])
--------------------------------------------------------------------------

    Molecular point group: c1
  Charge       = 0
  Multiplicity = 1
  Basis Set: AUG-CC-PVTZ
    Blend: AUG-CC-PVTZ
  Basis Set: (AUG-CC-PVTZ AUX)
    Blend: AUG-CC-PVTZ-JKFIT

    Orbital Energies [Eh]
    ---------------------

    Doubly Occupied:

       1A    -20.637352     2A    -20.565646     3A    -20.524559
       4A    -15.591288     5A    -11.406562     6A    -11.356050
       7A    -11.293866     8A    -11.247272     9A    -11.229817
      10A    -11.219565    11A     -1.479565    12A     -1.380794
      13A     -1.374780    14A     -1.249447    15A     -1.085095
      16A     -1.041931    17A     -0.924639    18A     -0.886434
      19A     -0.815133    20A     -0.793121    21A     -0.734005
      22A     -0.715622    23A     -0.685615    24A     -0.667913
      25A     -0.641575    26A     -0.638170    27A     -0.612166
      28A     -0.605344    29A     -0.592550    30A     -0.546397
      31A     -0.536676    32A     -0.520195    33A     -0.518595
      34A     -0.509847    35A     -0.495374    36A     -0.489451
      37A     -0.465609    38A     -0.427504    39A     -0.404287

  @DF-RHF Final Energy:  -512.87447540429355

   => Energetics <=

    Nuclear Repulsion Energy =            550.0058085658366736
    One-Electron Energy =               -1791.9409493925834340
    Two-Electron Energy =                 729.0606654224530985
    Total Energy =                       -512.8744754042935483
  Basis Set: (AUG-CC-PVTZ AUX)
    Blend: AUG-CC-PVTZ-RI
    Molecular point group: c1

    Geometry (in Angstrom), charge = 0, multiplicity = 1:

       Center              X                  Y                   Z               Mass
    ------------   -----------------  -----------------  -----------------  -----------------
         O           -1.971916739319     1.654947353056    -0.189861755093    15.994914619570
         O            1.667495260681    -1.228839646944     0.638723244907    15.994914619570
         O           -3.292702739319    -0.054330646944     0.489801244907    15.994914619570
         N            0.212744260681     0.261904353056    -0.274939755093    14.003074004430
         C           -0.952405739319    -0.503446646944     0.112548244907    12.000000000000
         C           -1.182090539319    -1.610626446944    -0.762353155093    12.000000000000
         C            2.577663260681     0.800401353056    -0.342951755093    12.000000000000
         C            1.466920260681    -0.154586646944     0.065544244907    12.000000000000
         C           -2.192160739319     0.359467353056     0.179406244907    12.000000000000
         C            3.949335260681     0.325666353056     0.110314244907    12.000000000000
         H           -0.785185739319    -0.896120646944     1.123777244907     1.007825032230
         H            0.073698260681     1.190204353056    -0.650210755093     1.007825032230
         H           -1.352870739319    -1.334723646944    -1.845947755093     1.007825032230
         H           -0.325224739319    -2.341103646944    -0.796618755093     1.007825032230
         H           -2.080136739319    -2.242546646944    -0.497445755093     1.007825032230
         H            2.546658260681     0.910337353056    -1.433954755093     1.007825032230
         H            2.354153260681     1.792655353056     0.068293244907     1.007825032230
         H            4.176879260681    -0.653845646944    -0.312051755093     1.007825032230
         H            4.718126260681     1.034007353056    -0.210120755093     1.007825032230
         H            3.989007260681     0.234991353056     1.196620244907     1.007825032230
         H           -2.847533739319     2.091313353056    -0.128982755093     1.007825032230

  Basis Set: AUG-CC-PVTZ
    Blend: AUG-CC-PVTZ
  Basis Set: (AUG-CC-PVTZ AUX)
    Blend: AUG-CC-PVTZ-JKFIT
	 Reference Energy          =    -512.8744754042935483 [Eh]
	 Singles Energy            =      -0.0000000000000000 [Eh]
	 Same-Spin Energy          =      -0.5123481934214763 [Eh]
	 Opposite-Spin Energy      =      -1.6162358892982303 [Eh]
	 Correlation Energy        =      -2.1285840827197067 [Eh]
	 Total Energy              =    -515.0030594870132745 [Eh]

	 ================> DF-SCS-MP2 Energies <==================
	-----------------------------------------------------------
	 SCS Same-Spin Scale       =       0.3333333333333333 [-]
	 SCS Opposite-Spin Scale   =       1.2000000000000000 [-]
	 SCS Same-Spin Energy      =      -0.1707827311404921 [Eh]
	 SCS Opposite-Spin Energy  =      -1.9394830671578762 [Eh]
	 SCS Correlation Energy    =      -2.1102657982983684 [Eh]
	 SCS Total Energy          =    -514.9847412025918629 [Eh]
	-----------------------------------------------------------

  Dipole Moment: [D]
     X:    -0.1235      Y:     3.3609      Z:    -1.8439     Total:     3.8355

*** Psi4 exiting successfully. Buy a developer a beer!
