                               Psi4 1.3.2 release

  ==> Input File <==

--------------------------------------------------------------------------
#psi4
#
memory 32 gb

molecule  {
0 1
  O       -1.9705880     1.6613530    -0.1848000
  O        1.6688240    -1.2224340     0.6437850
  O       -3.2913740    -0.0479250     0.4948630
  N        0.2140730     0.2683100    -0.2698780
  C       -0.9510770    -0.4970410     0.1176100
  C       -1.1968270    -1.6816620    -0.8184860
  C        2.5789920     0.8068070    -0.3378900
  C        1.4505353    -0.1321622     0.0590272
  C       -2.1908320     0.3658730     0.1844680
  C        3.9615191     0.3536159     0.1043135
  H       -0.7838570    -0.8897150     1.1288390
  H        0.0750270     1.1966100    -0.6451490
  H       -1.3515420    -1.3283180    -1.8408860
  H       -0.3238960    -2.3346980    -0.7915570
  H       -2.0788080    -2.2361410    -0.4923840
  H        2.5479870     0.9167430    -1.4288930
  H        2.3554820     1.7990610     0.0733550
  H        4.1782080    -0.6474400    -0.3069900
  H        4.7194550     1.0404130    -0.2050590
  H        3.9903360     0.2413970     1.2016820
  H       -2.8462050     2.0977190    -0.1239210
units angstrom
no_reorient  #important for SAPT in psi4, default
symmetry c1  #important for SAPT in psi4, default
}

set PROPERTIES_ORIGIN ["COM"]
properties('MP2/aug-cc-pvtz', properties = ['dipole'])
--------------------------------------------------------------------------

    Molecular point group: c1
  Charge       = 0
  Multiplicity = 1
  Basis Set: AUG-CC-PVTZ
    Blend: AUG-CC-PVTZ
  Basis Set: (AUG-CC-PVTZ AUX)
    Blend: AUG-CC-PVTZ-JKFIT

    Orbital Energies [Eh]
    ---------------------

    Doubly Occupied:

       1A    -20.638325     2A    -20.566236     3A    -20.518761
       4A    -15.596923     5A    -11.407588     6A    -11.355620
       7A    -11.299779     8A    -11.247374     9A    -11.228267
      10A    -11.219114    11A     -1.480404    12A     -1.375657
      13A     -1.368363    14A     -1.250388    15A     -1.077523
      16A     -1.037461    17A     -0.930584    18A     -0.887059
      19A     -0.819307    20A     -0.798063    21A     -0.733374
      22A     -0.716361    23A     -0.681928    24A     -0.667245
      25A     -0.640232    26A     -0.633944    27A     -0.612443
      28A     -0.598460    29A     -0.581126    30A     -0.550282
      31A     -0.545423    32A     -0.528225    33A     -0.518717
      34A     -0.516110    35A     -0.496885    36A     -0.484004
      37A     -0.469653    38A     -0.425331    39A     -0.400857

  @DF-RHF Final Energy:  -512.88276829659253

   => Energetics <=

    Nuclear Repulsion Energy =            547.9278560507738121
    One-Electron Energy =               -1787.8144621392434601
    Two-Electron Energy =                 727.0038377918772312
    Total Energy =                       -512.8827682965925305
  Basis Set: (AUG-CC-PVTZ AUX)
    Blend: AUG-CC-PVTZ-RI
    Molecular point group: c1

    Geometry (in Angstrom), charge = 0, multiplicity = 1:

       Center              X                  Y                   Z               Mass
    ------------   -----------------  -----------------  -----------------  -----------------
         O           -1.970020563558     1.658245961712    -0.182927145580    15.994914619570
         O            1.669391436442    -1.225541038288     0.645657854420    15.994914619570
         O           -3.290806563558    -0.051032038288     0.496735854420    15.994914619570
         N            0.214640436442     0.265202961712    -0.268005145580    14.003074004430
         C           -0.950509563558    -0.500148038288     0.119482854420    12.000000000000
         C           -1.196259563558    -1.684769038288    -0.816613145580    12.000000000000
         C            2.579559436442     0.803699961712    -0.336017145580    12.000000000000
         C            1.451102736442    -0.135269238288     0.060900054420    12.000000000000
         C           -2.190264563558     0.362765961712     0.186340854420    12.000000000000
         C            3.962086536442     0.350508861712     0.106186354420    12.000000000000
         H           -0.783289563558    -0.892822038288     1.130711854420     1.007825032230
         H            0.075594436442     1.193502961712    -0.643276145580     1.007825032230
         H           -1.350974563558    -1.331425038288    -1.839013145580     1.007825032230
         H           -0.323328563558    -2.337805038288    -0.789684145580     1.007825032230
         H           -2.078240563558    -2.239248038288    -0.490511145580     1.007825032230
         H            2.548554436442     0.913635961712    -1.427020145580     1.007825032230
         H            2.356049436442     1.795953961712     0.075227854420     1.007825032230
         H            4.178775436442    -0.650547038288    -0.305117145580     1.007825032230
         H            4.720022436442     1.037305961712    -0.203186145580     1.007825032230
         H            3.990903436442     0.238289961712     1.203554854420     1.007825032230
         H           -2.845637563558     2.094611961712    -0.122048145580     1.007825032230

  Basis Set: AUG-CC-PVTZ
    Blend: AUG-CC-PVTZ
  Basis Set: (AUG-CC-PVTZ AUX)
    Blend: AUG-CC-PVTZ-JKFIT
	 Reference Energy          =    -512.8827682965925305 [Eh]
	 Singles Energy            =      -0.0000000000000000 [Eh]
	 Same-Spin Energy          =      -0.5117291771582770 [Eh]
	 Opposite-Spin Energy      =      -1.6156923753324626 [Eh]
	 Correlation Energy        =      -2.1274215524907394 [Eh]
	 Total Energy              =    -515.0101898490833037 [Eh]

	 ================> DF-SCS-MP2 Energies <==================
	-----------------------------------------------------------
	 SCS Same-Spin Scale       =       0.3333333333333333 [-]
	 SCS Opposite-Spin Scale   =       1.2000000000000000 [-]
	 SCS Same-Spin Energy      =      -0.1705763923860923 [Eh]
	 SCS Opposite-Spin Energy  =      -1.9388308503989551 [Eh]
	 SCS Correlation Energy    =      -2.1094072427850472 [Eh]
	 SCS Total Energy          =    -514.9921755393776266 [Eh]
	-----------------------------------------------------------

  Dipole Moment: [D]
     X:    -0.2881      Y:     3.4712      Z:    -1.9409     Total:     3.9874

*** Psi4 exiting successfully. Buy a developer a beer!
