                               Psi4 1.3.2 release

  ==> Input File <==

--------------------------------------------------------------------------
#psi4
#
memory 32 gb

molecule  {
0 1
  O       -1.9705880     1.6613530    -0.1848000
  O        1.6688240    -1.2224340     0.6437850
  O       -3.2913740    -0.0479250     0.4948630
  N        0.2140730     0.2683100    -0.2698780
  C       -0.9510770    -0.4970410     0.1176100
  C       -1.2128922    -1.7591032    -0.8796806
  C        2.5789920     0.8068070    -0.3378900
  C        1.4682490    -0.1481810     0.0706060
  C       -2.1908320     0.3658730     0.1844680
  C        3.9506640     0.3320720     0.1153760
  H       -0.7838570    -0.8897150     1.1288390
  H        0.0750270     1.1966100    -0.6451490
  H       -1.3515420    -1.3283180    -1.8408860
  H       -0.3238960    -2.3346980    -0.7915570
  H       -2.0788080    -2.2361410    -0.4923840
  H        2.5479870     0.9167430    -1.4288930
  H        2.3554820     1.7990610     0.0733550
  H        4.1782080    -0.6474400    -0.3069900
  H        4.7194550     1.0404130    -0.2050590
  H        3.9903360     0.2413970     1.2016820
  H       -2.8462050     2.0977190    -0.1239210
units angstrom
no_reorient  #important for SAPT in psi4, default
symmetry c1  #important for SAPT in psi4, default
}

set PROPERTIES_ORIGIN ["COM"]
properties('MP2/aug-cc-pvtz', properties = ['dipole'])
--------------------------------------------------------------------------

    Molecular point group: c1
  Charge       = 0
  Multiplicity = 1
  Basis Set: AUG-CC-PVTZ
    Blend: AUG-CC-PVTZ
  Basis Set: (AUG-CC-PVTZ AUX)
    Blend: AUG-CC-PVTZ-JKFIT

    Orbital Energies [Eh]
    ---------------------

    Doubly Occupied:

       1A    -20.635803     2A    -20.563357     3A    -20.524658
       4A    -15.592063     5A    -11.404884     6A    -11.355749
       7A    -11.299203     8A    -11.247244     9A    -11.227075
      10A    -11.219583    11A     -1.477703    12A     -1.380393
      13A     -1.372805    14A     -1.243847    15A     -1.070236
      16A     -1.029271    17A     -0.932536    18A     -0.885495
      19A     -0.817644    20A     -0.792249    21A     -0.728741
      22A     -0.713843    23A     -0.681069    24A     -0.664470
      25A     -0.641334    26A     -0.631727    27A     -0.610762
      28A     -0.603361    29A     -0.576537    30A     -0.560820
      31A     -0.547207    32A     -0.527752    33A     -0.520146
      34A     -0.517216    35A     -0.498354    36A     -0.484781
      37A     -0.468739    38A     -0.428575    39A     -0.393701

  @DF-RHF Final Energy:  -512.87911650284843

   => Energetics <=

    Nuclear Repulsion Energy =            546.1624249389428769
    One-Electron Energy =               -1784.3412137704451652
    Two-Electron Energy =                 725.2996723286538554
    Total Energy =                       -512.8791165028484329
  Basis Set: (AUG-CC-PVTZ AUX)
    Blend: AUG-CC-PVTZ-RI
    Molecular point group: c1

    Geometry (in Angstrom), charge = 0, multiplicity = 1:

       Center              X                  Y                   Z               Mass
    ------------   -----------------  -----------------  -----------------  -----------------
         O           -1.969259026126     1.667758678090    -0.179738152786    15.994914619570
         O            1.670152973874    -1.216028321910     0.648846847214    15.994914619570
         O           -3.290045026126    -0.041519321910     0.499924847214    15.994914619570
         N            0.215401973874     0.274715678090    -0.264816152786    14.003074004430
         C           -0.949748026126    -0.490635321910     0.122671847214    12.000000000000
         C           -1.211563226126    -1.752697521910    -0.874618752786    12.000000000000
         C            2.580320973874     0.813212678090    -0.332828152786    12.000000000000
         C            1.469577973874    -0.141775321910     0.075667847214    12.000000000000
         C           -2.189503026126     0.372278678090     0.189529847214    12.000000000000
         C            3.951992973874     0.338477678090     0.120437847214    12.000000000000
         H           -0.782528026126    -0.883309321910     1.133900847214     1.007825032230
         H            0.076355973874     1.203015678090    -0.640087152786     1.007825032230
         H           -1.350213026126    -1.321912321910    -1.835824152786     1.007825032230
         H           -0.322567026126    -2.328292321910    -0.786495152786     1.007825032230
         H           -2.077479026126    -2.229735321910    -0.487322152786     1.007825032230
         H            2.549315973874     0.923148678090    -1.423831152786     1.007825032230
         H            2.356810973874     1.805466678090     0.078416847214     1.007825032230
         H            4.179536973874    -0.641034321910    -0.301928152786     1.007825032230
         H            4.720783973874     1.046818678090    -0.199997152786     1.007825032230
         H            3.991664973874     0.247802678090     1.206743847214     1.007825032230
         H           -2.844876026126     2.104124678090    -0.118859152786     1.007825032230

  Basis Set: AUG-CC-PVTZ
    Blend: AUG-CC-PVTZ
  Basis Set: (AUG-CC-PVTZ AUX)
    Blend: AUG-CC-PVTZ-JKFIT
	 Reference Energy          =    -512.8791165028484329 [Eh]
	 Singles Energy            =      -0.0000000000000000 [Eh]
	 Same-Spin Energy          =      -0.5110676601494406 [Eh]
	 Opposite-Spin Energy      =      -1.6149518628671513 [Eh]
	 Correlation Energy        =      -2.1260195230165921 [Eh]
	 Total Energy              =    -515.0051360258649993 [Eh]

	 ================> DF-SCS-MP2 Energies <==================
	-----------------------------------------------------------
	 SCS Same-Spin Scale       =       0.3333333333333333 [-]
	 SCS Opposite-Spin Scale   =       1.2000000000000000 [-]
	 SCS Same-Spin Energy      =      -0.1703558867164802 [Eh]
	 SCS Opposite-Spin Energy  =      -1.9379422354405815 [Eh]
	 SCS Correlation Energy    =      -2.1082981221570618 [Eh]
	 SCS Total Energy          =    -514.9874146250054991 [Eh]
	-----------------------------------------------------------

  Dipole Moment: [D]
     X:    -0.0551      Y:     3.3733      Z:    -1.8724     Total:     3.8585

*** Psi4 exiting successfully. Buy a developer a beer!
