                               Psi4 1.3.2 release

  ==> Input File <==

--------------------------------------------------------------------------
#psi4
#
memory 32 gb

molecule  {
0 1
  O       -1.9705880     1.6613530    -0.1848000
  O        1.6688240    -1.2224340     0.6437850
  O       -3.2913740    -0.0479250     0.4948630
  N        0.2140730     0.2683100    -0.2698780
  C       -0.7900209    -0.3912483     0.0640484
  C       -1.1968270    -1.6816620    -0.8184860
  C        2.5789920     0.8068070    -0.3378900
  C        1.4682490    -0.1481810     0.0706060
  C       -2.1908320     0.3658730     0.1844680
  C        3.9506640     0.3320720     0.1153760
  H       -0.7838570    -0.8897150     1.1288390
  H        0.0750270     1.1966100    -0.6451490
  H       -1.3515420    -1.3283180    -1.8408860
  H       -0.3238960    -2.3346980    -0.7915570
  H       -2.0788080    -2.2361410    -0.4923840
  H        2.5479870     0.9167430    -1.4288930
  H        2.3554820     1.7990610     0.0733550
  H        4.1782080    -0.6474400    -0.3069900
  H        4.7194550     1.0404130    -0.2050590
  H        3.9903360     0.2413970     1.2016820
  H       -2.8462050     2.0977190    -0.1239210
units angstrom
no_reorient  #important for SAPT in psi4, default
symmetry c1  #important for SAPT in psi4, default
}

set PROPERTIES_ORIGIN ["COM"]
properties('MP2/aug-cc-pvtz', properties = ['dipole'])
--------------------------------------------------------------------------

    Molecular point group: c1
  Charge       = 0
  Multiplicity = 1
  Basis Set: AUG-CC-PVTZ
    Blend: AUG-CC-PVTZ
  Basis Set: (AUG-CC-PVTZ AUX)
    Blend: AUG-CC-PVTZ-JKFIT

    Orbital Energies [Eh]
    ---------------------

    Doubly Occupied:

       1A    -20.630333     2A    -20.562844     3A    -20.536294
       4A    -15.597550     5A    -11.404411     6A    -11.365609
       7A    -11.297056     8A    -11.253868     9A    -11.224252
      10A    -11.221664    11A     -1.473748    12A     -1.400460
      13A     -1.369003    14A     -1.303492    15A     -1.076526
      16A     -1.019071    17A     -0.928907    18A     -0.889231
      19A     -0.825191    20A     -0.814515    21A     -0.741852
      22A     -0.712314    23A     -0.697184    24A     -0.665768
      25A     -0.643993    26A     -0.634791    27A     -0.612774
      28A     -0.604539    29A     -0.584553    30A     -0.548271
      31A     -0.537774    32A     -0.525965    33A     -0.524720
      34A     -0.513892    35A     -0.498222    36A     -0.487532
      37A     -0.452629    38A     -0.436305    39A     -0.382499

  @DF-RHF Final Energy:  -512.83123966756420

   => Energetics <=

    Nuclear Repulsion Energy =            549.9876915958541304
    One-Electron Energy =               -1791.6386524531417308
    Two-Electron Energy =                 728.8197211897233956
    Total Energy =                       -512.8312396675642049
  Basis Set: (AUG-CC-PVTZ AUX)
    Blend: AUG-CC-PVTZ-RI
    Molecular point group: c1

    Geometry (in Angstrom), charge = 0, multiplicity = 1:

       Center              X                  Y                   Z               Mass
    ------------   -----------------  -----------------  -----------------  -----------------
         O           -1.983909874414     1.652602217122    -0.180369527584    15.994914619570
         O            1.655502125586    -1.231184782878     0.648215472416    15.994914619570
         O           -3.304695874414    -0.056675782878     0.499293472416    15.994914619570
         N            0.200751125586     0.259559217122    -0.265447527584    14.003074004430
         C           -0.803342774414    -0.399999082878     0.068478872416    12.000000000000
         C           -1.210148874414    -1.690412782878    -0.814055527584    12.000000000000
         C            2.565670125586     0.798056217122    -0.333459527584    12.000000000000
         C            1.454927125586    -0.156931782878     0.075036472416    12.000000000000
         C           -2.204153874414     0.357122217122     0.188898472416    12.000000000000
         C            3.937342125586     0.323321217122     0.119806472416    12.000000000000
         H           -0.797178874414    -0.898465782878     1.133269472416     1.007825032230
         H            0.061705125586     1.187859217122    -0.640718527584     1.007825032230
         H           -1.364863874414    -1.337068782878    -1.836455527584     1.007825032230
         H           -0.337217874414    -2.343448782878    -0.787126527584     1.007825032230
         H           -2.092129874414    -2.244891782878    -0.487953527584     1.007825032230
         H            2.534665125586     0.907992217122    -1.424462527584     1.007825032230
         H            2.342160125586     1.790310217122     0.077785472416     1.007825032230
         H            4.164886125586    -0.656190782878    -0.302559527584     1.007825032230
         H            4.706133125586     1.031662217122    -0.200628527584     1.007825032230
         H            3.977014125586     0.232646217122     1.206112472416     1.007825032230
         H           -2.859526874414     2.088968217122    -0.119490527584     1.007825032230

  Basis Set: AUG-CC-PVTZ
    Blend: AUG-CC-PVTZ
  Basis Set: (AUG-CC-PVTZ AUX)
    Blend: AUG-CC-PVTZ-JKFIT
	 Reference Energy          =    -512.8312396675642049 [Eh]
	 Singles Energy            =      -0.0000000000000000 [Eh]
	 Same-Spin Energy          =      -0.5145891431713582 [Eh]
	 Opposite-Spin Energy      =      -1.6188167595620504 [Eh]
	 Correlation Energy        =      -2.1334059027334087 [Eh]
	 Total Energy              =    -514.9646455702976482 [Eh]

	 ================> DF-SCS-MP2 Energies <==================
	-----------------------------------------------------------
	 SCS Same-Spin Scale       =       0.3333333333333333 [-]
	 SCS Opposite-Spin Scale   =       1.2000000000000000 [-]
	 SCS Same-Spin Energy      =      -0.1715297143904527 [Eh]
	 SCS Opposite-Spin Energy  =      -1.9425801114744603 [Eh]
	 SCS Correlation Energy    =      -2.1141098258649129 [Eh]
	 SCS Total Energy          =    -514.9453494934291484 [Eh]
	-----------------------------------------------------------

  Dipole Moment: [D]
     X:     0.5728      Y:     3.6480      Z:    -1.8745     Total:     4.1412

*** Psi4 exiting successfully. Buy a developer a beer!
