                               Psi4 1.3.2 release

  ==> Input File <==

--------------------------------------------------------------------------
#psi4
#
memory 32 gb

molecule  {
0 1
  O       -1.9705880     1.6613530    -0.1848000
  O        1.6688240    -1.2224340     0.6437850
  O       -3.2913740    -0.0479250     0.4948630
  N        0.2140730     0.2683100    -0.2698780
  C       -0.9510770    -0.4970410     0.1176100
  C       -1.2051126    -1.6295976    -0.8787721
  C        2.5789920     0.8068070    -0.3378900
  C        1.4682490    -0.1481810     0.0706060
  C       -2.1908320     0.3658730     0.1844680
  C        3.9506640     0.3320720     0.1153760
  H       -0.7772413    -0.8356368     1.1471116
  H        0.0750270     1.1966100    -0.6451490
  H       -1.3515420    -1.3283180    -1.8408860
  H       -0.3238960    -2.3346980    -0.7915570
  H       -2.0788080    -2.2361410    -0.4923840
  H        2.5479870     0.9167430    -1.4288930
  H        2.3554820     1.7990610     0.0733550
  H        4.1782080    -0.6474400    -0.3069900
  H        4.7194550     1.0404130    -0.2050590
  H        3.9903360     0.2413970     1.2016820
  H       -2.8462050     2.0977190    -0.1239210
units angstrom
no_reorient  #important for SAPT in psi4, default
symmetry c1  #important for SAPT in psi4, default
}

set PROPERTIES_ORIGIN ["COM"]
properties('MP2/aug-cc-pvtz', properties = ['dipole'])
--------------------------------------------------------------------------

    Molecular point group: c1
  Charge       = 0
  Multiplicity = 1
  Basis Set: AUG-CC-PVTZ
    Blend: AUG-CC-PVTZ
  Basis Set: (AUG-CC-PVTZ AUX)
    Blend: AUG-CC-PVTZ-JKFIT

    Orbital Energies [Eh]
    ---------------------

    Doubly Occupied:

       1A    -20.636188     2A    -20.564188     3A    -20.524051
       4A    -15.590261     5A    -11.404710     6A    -11.355387
       7A    -11.298198     8A    -11.246951     9A    -11.227990
      10A    -11.219352    11A     -1.478354    12A     -1.380091
      13A     -1.373489    14A     -1.246242    15A     -1.075551
      16A     -1.035550    17A     -0.928796    18A     -0.885716
      19A     -0.819145    20A     -0.792145    21A     -0.730375
      22A     -0.714368    23A     -0.682348    24A     -0.665775
      25A     -0.641200    26A     -0.635665    27A     -0.612350
      28A     -0.601439    29A     -0.587544    30A     -0.547229
      31A     -0.537410    32A     -0.525154    33A     -0.519817
      34A     -0.517692    35A     -0.495035    36A     -0.490190
      37A     -0.467619    38A     -0.427305    39A     -0.399752

  @DF-RHF Final Energy:  -512.87721369428277

   => Energetics <=

    Nuclear Repulsion Energy =            548.2627145134857756
    One-Electron Energy =               -1788.5186081243336957
    Two-Electron Energy =                 727.3786799165652610
    Total Energy =                       -512.8772136942827728
  Basis Set: (AUG-CC-PVTZ AUX)
    Blend: AUG-CC-PVTZ-RI
    Molecular point group: c1

    Geometry (in Angstrom), charge = 0, multiplicity = 1:

       Center              X                  Y                   Z               Mass
    ------------   -----------------  -----------------  -----------------  -----------------
         O           -1.969948486275     1.656670752289    -0.179940240033    15.994914619570
         O            1.669463513725    -1.227116247711     0.648644759967    15.994914619570
         O           -3.290734486275    -0.052607247711     0.499722759967    15.994914619570
         N            0.214712513725     0.263627752289    -0.265018240033    14.003074004430
         C           -0.950437486275    -0.501723247711     0.122469759967    12.000000000000
         C           -1.204473086275    -1.634279847711    -0.873912340033    12.000000000000
         C            2.579631513725     0.802124752289    -0.333030240033    12.000000000000
         C            1.468888513725    -0.152863247711     0.075465759967    12.000000000000
         C           -2.190192486275     0.361190752289     0.189327759967    12.000000000000
         C            3.951303513725     0.327389752289     0.120235759967    12.000000000000
         H           -0.776601786275    -0.840319047711     1.151971359967     1.007825032230
         H            0.075666513725     1.191927752289    -0.640289240033     1.007825032230
         H           -1.350902486275    -1.333000247711    -1.836026240033     1.007825032230
         H           -0.323256486275    -2.339380247711    -0.786697240033     1.007825032230
         H           -2.078168486275    -2.240823247711    -0.487524240033     1.007825032230
         H            2.548626513725     0.912060752289    -1.424033240033     1.007825032230
         H            2.356121513725     1.794378752289     0.078214759967     1.007825032230
         H            4.178847513725    -0.652122247711    -0.302130240033     1.007825032230
         H            4.720094513725     1.035730752289    -0.200199240033     1.007825032230
         H            3.990975513725     0.236714752289     1.206541759967     1.007825032230
         H           -2.845565486275     2.093036752289    -0.119061240033     1.007825032230

  Basis Set: AUG-CC-PVTZ
    Blend: AUG-CC-PVTZ
  Basis Set: (AUG-CC-PVTZ AUX)
    Blend: AUG-CC-PVTZ-JKFIT
	 Reference Energy          =    -512.8772136942827728 [Eh]
	 Singles Energy            =      -0.0000000000000000 [Eh]
	 Same-Spin Energy          =      -0.5115863264586143 [Eh]
	 Opposite-Spin Energy      =      -1.6155077801970443 [Eh]
	 Correlation Energy        =      -2.1270941066556586 [Eh]
	 Total Energy              =    -515.0043078009384772 [Eh]

	 ================> DF-SCS-MP2 Energies <==================
	-----------------------------------------------------------
	 SCS Same-Spin Scale       =       0.3333333333333333 [-]
	 SCS Opposite-Spin Scale   =       1.2000000000000000 [-]
	 SCS Same-Spin Energy      =      -0.1705287754862048 [Eh]
	 SCS Opposite-Spin Energy  =      -1.9386093362364532 [Eh]
	 SCS Correlation Energy    =      -2.1091381117226580 [Eh]
	 SCS Total Energy          =    -514.9863518060054730 [Eh]
	-----------------------------------------------------------

  Dipole Moment: [D]
     X:    -0.1151      Y:     3.3943      Z:    -1.8824     Total:     3.8830

*** Psi4 exiting successfully. Buy a developer a beer!
