                               Psi4 1.4a3.dev225

  ==> Input File <==

--------------------------------------------------------------------------
#psi4
#
memory 32 gb

molecule  {
0 1
  O       -2.1439760    -1.5096120     0.4578230
  O        1.6019480     1.2946100    -0.5777250
  O       -3.1849820    -0.0999640    -0.9818910
  N        0.1649120    -0.2715720     0.2333030
  C       -1.0051050     0.5087660    -0.1211110
  C       -1.3212480     1.5963590     0.9125160
  C        2.5597860    -0.6480590     0.5035240
  C        1.4367120     0.2233833    -0.0073816
  C       -2.2159370    -0.3767160    -0.3010400
  C        3.7806550    -0.5458820    -0.4040570
  H       -0.8075500     0.9861290    -1.0847450
  H        0.0342290    -1.1271740     0.7572540
  H       -1.5188550     1.1449870     1.8886910
  H       -0.4592110     2.2615650     0.9886780
  H       -2.1947650     2.1753270     0.6002850
  H        2.8115640    -0.2961200     1.5118980
  H        2.2315720    -1.6889350     0.6045970
  H        4.0689510     0.4992230    -0.5227640
  H        4.6219880    -1.1034150     0.0157220
  H        3.5611410    -0.9492480    -1.3958190
  H       -2.9864200    -1.9858630     0.3018850
units angstrom
no_reorient  #important for SAPT in psi4, default
symmetry c1  #important for SAPT in psi4, default
}

set PROPERTIES_ORIGIN ["COM"]
properties('MP2/aug-cc-pvtz', properties = ['dipole'])
--------------------------------------------------------------------------

    Molecular point group: c1
  Charge       = 0
  Multiplicity = 1
  Basis Set: AUG-CC-PVTZ
    Blend: AUG-CC-PVTZ
  Basis Set: (AUG-CC-PVTZ AUX)
    Blend: AUG-CC-PVTZ-JKFIT

    Orbital Energies [Eh]
    ---------------------

    Doubly Occupied:

       1A    -20.633052     2A    -20.563886     3A    -20.526567
       4A    -15.592080     5A    -11.402585     6A    -11.358152
       7A    -11.294664     8A    -11.248257     9A    -11.232129
      10A    -11.222875    11A     -1.475110    12A     -1.386242
      13A     -1.371413    14A     -1.240929    15A     -1.076140
      16A     -1.036511    17A     -0.926815    18A     -0.886952
      19A     -0.819965    20A     -0.790002    21A     -0.726470
      22A     -0.713230    23A     -0.682245    24A     -0.659802
      25A     -0.642702    26A     -0.629986    27A     -0.608794
      28A     -0.602091    29A     -0.593673    30A     -0.551516
      31A     -0.541579    32A     -0.534701    33A     -0.525068
      34A     -0.514833    35A     -0.497789    36A     -0.488618
      37A     -0.468284    38A     -0.429913    39A     -0.398930

  @DF-RHF Final Energy:  -512.88628162207237

   => Energetics <=

    Nuclear Repulsion Energy =            547.6347005704906223
    One-Electron Energy =               -1787.2528592823782674
    Two-Electron Energy =                 726.7318770898152707
    Total Energy =                       -512.8862816220723744
  Basis Set: (AUG-CC-PVTZ AUX)
    Blend: AUG-CC-PVTZ-RI
    Molecular point group: c1

    Geometry (in Angstrom), charge = 0, multiplicity = 1:

       Center              X                  Y                   Z               Mass
    ------------   -----------------  -----------------  -----------------  -----------------
         O           -2.081596280229    -1.510779273633     0.483136685514    15.994914619570
         O            1.664327719771     1.293442726367    -0.552411314486    15.994914619570
         O           -3.122602280229    -0.101131273633    -0.956577314486    15.994914619570
         N            0.227291719771    -0.272739273633     0.258616685514    14.003074004430
         C           -0.942725280229     0.507598726367    -0.095797314486    12.000000000000
         C           -1.258868280229     1.595191726367     0.937829685514    12.000000000000
         C            2.622165719771    -0.649226273633     0.528837685514    12.000000000000
         C            1.499091719771     0.222216026367     0.017932085514    12.000000000000
         C           -2.153557280229    -0.377883273633    -0.275726314486    12.000000000000
         C            3.843034719771    -0.547049273633    -0.378743314486    12.000000000000
         H           -0.745170280229     0.984961726367    -1.059431314486     1.007825032230
         H            0.096608719771    -1.128341273633     0.782567685514     1.007825032230
         H           -1.456475280229     1.143819726367     1.914004685514     1.007825032230
         H           -0.396831280229     2.260397726367     1.013991685514     1.007825032230
         H           -2.132385280229     2.174159726367     0.625598685514     1.007825032230
         H            2.873943719771    -0.297287273633     1.537211685514     1.007825032230
         H            2.293951719771    -1.690102273633     0.629910685514     1.007825032230
         H            4.131330719771     0.498055726367    -0.497450314486     1.007825032230
         H            4.684367719771    -1.104582273633     0.041035685514     1.007825032230
         H            3.623520719771    -0.950415273633    -1.370505314486     1.007825032230
         H           -2.924040280229    -1.987030273633     0.327198685514     1.007825032230

  Basis Set: AUG-CC-PVTZ
    Blend: AUG-CC-PVTZ
  Basis Set: (AUG-CC-PVTZ AUX)
    Blend: AUG-CC-PVTZ-JKFIT
	 Reference Energy          =    -512.8862816220723744 [Eh]
	 Singles Energy            =      -0.0000000000000000 [Eh]
	 Same-Spin Energy          =      -0.5110766752871083 [Eh]
	 Opposite-Spin Energy      =      -1.6149188746472767 [Eh]
	 Correlation Energy        =      -2.1259955499343848 [Eh]
	 Total Energy              =    -515.0122771720067476 [Eh]

	 ================> DF-SCS-MP2 Energies <==================
	-----------------------------------------------------------
	 SCS Same-Spin Scale       =       0.3333333333333333 [-]
	 SCS Opposite-Spin Scale   =       1.2000000000000000 [-]
	 SCS Same-Spin Energy      =      -0.1703588917623694 [Eh]
	 SCS Opposite-Spin Energy  =      -1.9379026495767320 [Eh]
	 SCS Correlation Energy    =      -2.1082615413391013 [Eh]
	 SCS Total Energy          =    -514.9945431634114357 [Eh]
	-----------------------------------------------------------

  Dipole Moment: [D]
     X:    -0.0381      Y:    -2.9864      Z:     2.6157     Total:     3.9702

*** Psi4 exiting successfully. Buy a developer a beer!
