                               Psi4 1.3.2 release

  ==> Input File <==

--------------------------------------------------------------------------
#psi4
#
memory 32 gb

molecule  {
0 1
  O       -1.9705880     1.6613530    -0.1848000
  O        1.6582172    -1.2242901     0.6439167
  O       -3.2913740    -0.0479250     0.4948630
  N        0.2140730     0.2683100    -0.2698780
  C       -0.9510770    -0.4970410     0.1176100
  C       -1.1968270    -1.6816620    -0.8184860
  C        2.5699325     0.8151060    -0.3429067
  C        1.4682490    -0.1481810     0.0706060
  C       -2.1908320     0.3658730     0.1844680
  C        3.9506640     0.3320720     0.1153760
  H       -0.7838570    -0.8897150     1.1288390
  H        0.0750270     1.1966100    -0.6451490
  H       -1.3515420    -1.3283180    -1.8408860
  H       -0.3238960    -2.3346980    -0.7915570
  H       -2.0788080    -2.2361410    -0.4923840
  H        2.5479870     0.9167430    -1.4288930
  H        2.3554820     1.7990610     0.0733550
  H        4.1782080    -0.6474400    -0.3069900
  H        4.7194550     1.0404130    -0.2050590
  H        3.9903360     0.2413970     1.2016820
  H       -2.8462050     2.0977190    -0.1239210
units angstrom
no_reorient  #important for SAPT in psi4, default
symmetry c1  #important for SAPT in psi4, default
}

set PROPERTIES_ORIGIN ["COM"]
properties('MP2/aug-cc-pvtz', properties = ['dipole'])
--------------------------------------------------------------------------

    Molecular point group: c1
  Charge       = 0
  Multiplicity = 1
  Basis Set: AUG-CC-PVTZ
    Blend: AUG-CC-PVTZ
  Basis Set: (AUG-CC-PVTZ AUX)
    Blend: AUG-CC-PVTZ-JKFIT

    Orbital Energies [Eh]
    ---------------------

    Doubly Occupied:

       1A    -20.636383     2A    -20.564329     3A    -20.524819
       4A    -15.590932     5A    -11.405446     6A    -11.356006
       7A    -11.296682     8A    -11.247143     9A    -11.226528
      10A    -11.220468    11A     -1.478423    12A     -1.380790
      13A     -1.373595    14A     -1.245471    15A     -1.075290
      16A     -1.034520    17A     -0.927927    18A     -0.886208
      19A     -0.816660    20A     -0.792792    21A     -0.731234
      22A     -0.714535    23A     -0.682623    24A     -0.665832
      25A     -0.642541    26A     -0.633867    27A     -0.610300
      28A     -0.602707    29A     -0.580648    30A     -0.546730
      31A     -0.543906    32A     -0.523122    33A     -0.521365
      34A     -0.518975    35A     -0.499123    36A     -0.489435
      37A     -0.468125    38A     -0.428769    39A     -0.399759

  @DF-RHF Final Energy:  -512.88589905754986

   => Energetics <=

    Nuclear Repulsion Energy =            548.0608340340993436
    One-Electron Energy =               -1788.1254504339055984
    Two-Electron Energy =                 727.1787173422563910
    Total Energy =                       -512.8858990575498638
  Basis Set: (AUG-CC-PVTZ AUX)
    Blend: AUG-CC-PVTZ-RI
    Molecular point group: c1

    Geometry (in Angstrom), charge = 0, multiplicity = 1:

       Center              X                  Y                   Z               Mass
    ------------   -----------------  -----------------  -----------------  -----------------
         O           -1.968669075319     1.660871193258    -0.184399510631    15.994914619570
         O            1.660136124681    -1.224771906742     0.644317189369    15.994914619570
         O           -3.289455075319    -0.048406806742     0.495263489369    15.994914619570
         N            0.215991924681     0.267828193258    -0.269477510631    14.003074004430
         C           -0.949158075319    -0.497522806742     0.118010489369    12.000000000000
         C           -1.194908075319    -1.682143806742    -0.818085510631    12.000000000000
         C            2.571851424681     0.814624193258    -0.342506210631    12.000000000000
         C            1.470167924681    -0.148662806742     0.071006489369    12.000000000000
         C           -2.188913075319     0.365391193258     0.184868489369    12.000000000000
         C            3.952582924681     0.331590193258     0.115776489369    12.000000000000
         H           -0.781938075319    -0.890196806742     1.129239489369     1.007825032230
         H            0.076945924681     1.196128193258    -0.644748510631     1.007825032230
         H           -1.349623075319    -1.328799806742    -1.840485510631     1.007825032230
         H           -0.321977075319    -2.335179806742    -0.791156510631     1.007825032230
         H           -2.076889075319    -2.236622806742    -0.491983510631     1.007825032230
         H            2.549905924681     0.916261193258    -1.428492510631     1.007825032230
         H            2.357400924681     1.798579193258     0.073755489369     1.007825032230
         H            4.180126924681    -0.647921806742    -0.306589510631     1.007825032230
         H            4.721373924681     1.039931193258    -0.204658510631     1.007825032230
         H            3.992254924681     0.240915193258     1.202082489369     1.007825032230
         H           -2.844286075319     2.097237193258    -0.123520510631     1.007825032230

  Basis Set: AUG-CC-PVTZ
    Blend: AUG-CC-PVTZ
  Basis Set: (AUG-CC-PVTZ AUX)
    Blend: AUG-CC-PVTZ-JKFIT
	 Reference Energy          =    -512.8858990575498638 [Eh]
	 Singles Energy            =      -0.0000000000000000 [Eh]
	 Same-Spin Energy          =      -0.5112897721574248 [Eh]
	 Opposite-Spin Energy      =      -1.6149410403044333 [Eh]
	 Correlation Energy        =      -2.1262308124618583 [Eh]
	 Total Energy              =    -515.0121298700116768 [Eh]

	 ================> DF-SCS-MP2 Energies <==================
	-----------------------------------------------------------
	 SCS Same-Spin Scale       =       0.3333333333333333 [-]
	 SCS Opposite-Spin Scale   =       1.2000000000000000 [-]
	 SCS Same-Spin Energy      =      -0.1704299240524749 [Eh]
	 SCS Opposite-Spin Energy  =      -1.9379292483653199 [Eh]
	 SCS Correlation Energy    =      -2.1083591724177948 [Eh]
	 SCS Total Energy          =    -514.9942582299676133 [Eh]
	-----------------------------------------------------------

  Dipole Moment: [D]
     X:    -0.0612      Y:     3.3774      Z:    -1.8614     Total:     3.8569

*** Psi4 exiting successfully. Buy a developer a beer!
