                               Psi4 1.4a3.dev225

  ==> Input File <==

--------------------------------------------------------------------------
#psi4
#
memory 32 gb

molecule  {
0 1
  O       -2.1439760    -1.5096120     0.4578230
  O        1.6019480     1.2946100    -0.5777250
  O       -3.1849820    -0.0999640    -0.9818910
  N        0.1649120    -0.2715720     0.2333030
  C       -1.0051050     0.5087660    -0.1211110
  C       -1.3212480     1.5963590     0.9125160
  C        2.5597860    -0.6480590     0.5035240
  C        1.4183570     0.2162400    -0.0039080
  C       -2.2557753    -0.3653385    -0.3290304
  C        3.7806550    -0.5458820    -0.4040570
  H       -0.8075500     0.9861290    -1.0847450
  H        0.0342290    -1.1271740     0.7572540
  H       -1.5188550     1.1449870     1.8886910
  H       -0.4592110     2.2615650     0.9886780
  H       -2.1947650     2.1753270     0.6002850
  H        2.8115640    -0.2961200     1.5118980
  H        2.2315720    -1.6889350     0.6045970
  H        4.0689510     0.4992230    -0.5227640
  H        4.6219880    -1.1034150     0.0157220
  H        3.5611410    -0.9492480    -1.3958190
  H       -2.9864200    -1.9858630     0.3018850
units angstrom
no_reorient  #important for SAPT in psi4, default
symmetry c1  #important for SAPT in psi4, default
}

set PROPERTIES_ORIGIN ["COM"]
properties('MP2/aug-cc-pvtz', properties = ['dipole'])
--------------------------------------------------------------------------

    Molecular point group: c1
  Charge       = 0
  Multiplicity = 1
  Basis Set: AUG-CC-PVTZ
    Blend: AUG-CC-PVTZ
  Basis Set: (AUG-CC-PVTZ AUX)
    Blend: AUG-CC-PVTZ-JKFIT

    Orbital Energies [Eh]
    ---------------------

    Doubly Occupied:

       1A    -20.625489     2A    -20.574230     3A    -20.521109
       4A    -15.593957     5A    -11.399550     6A    -11.355414
       7A    -11.295020     8A    -11.246578     9A    -11.231459
      10A    -11.220961    11A     -1.483660    12A     -1.390477
      13A     -1.377622    14A     -1.242582    15A     -1.072571
      16A     -1.034349    17A     -0.921947    18A     -0.882319
      19A     -0.813501    20A     -0.791843    21A     -0.726806
      22A     -0.718568    23A     -0.679339    24A     -0.660264
      25A     -0.647542    26A     -0.628400    27A     -0.611989
      28A     -0.600180    29A     -0.592048    30A     -0.553121
      31A     -0.541351    32A     -0.534383    33A     -0.522671
      34A     -0.515449    35A     -0.507050    36A     -0.489458
      37A     -0.466660    38A     -0.426054    39A     -0.398412

  @DF-RHF Final Energy:  -512.88559684477968

   => Energetics <=

    Nuclear Repulsion Energy =            547.5817087769158888
    One-Electron Energy =               -1787.1458477566495731
    Two-Electron Energy =                 726.6785421349541139
    Total Energy =                       -512.8855968447796840
  Basis Set: (AUG-CC-PVTZ AUX)
    Blend: AUG-CC-PVTZ-RI
    Molecular point group: c1

    Geometry (in Angstrom), charge = 0, multiplicity = 1:

       Center              X                  Y                   Z               Mass
    ------------   -----------------  -----------------  -----------------  -----------------
         O           -2.076782736010    -1.511129511701     0.485164628609    15.994914619570
         O            1.669141263990     1.293092488299    -0.550383371391    15.994914619570
         O           -3.117788736010    -0.101481511701    -0.954549371391    15.994914619570
         N            0.232105263990    -0.273089511701     0.260644628609    14.003074004430
         C           -0.937911736010     0.507248488299    -0.093769371391    12.000000000000
         C           -1.254054736010     1.594841488299     0.939857628609    12.000000000000
         C            2.626979263990    -0.649576511701     0.530865628609    12.000000000000
         C            1.485550263990     0.214722488299     0.023433628609    12.000000000000
         C           -2.188582036010    -0.366856011701    -0.301688771391    12.000000000000
         C            3.847848263990    -0.547399511701    -0.376715371391    12.000000000000
         H           -0.740356736010     0.984611488299    -1.057403371391     1.007825032230
         H            0.101422263990    -1.128691511701     0.784595628609     1.007825032230
         H           -1.451661736010     1.143469488299     1.916032628609     1.007825032230
         H           -0.392017736010     2.260047488299     1.016019628609     1.007825032230
         H           -2.127571736010     2.173809488299     0.627626628609     1.007825032230
         H            2.878757263990    -0.297637511701     1.539239628609     1.007825032230
         H            2.298765263990    -1.690452511701     0.631938628609     1.007825032230
         H            4.136144263990     0.497705488299    -0.495422371391     1.007825032230
         H            4.689181263990    -1.104932511701     0.043063628609     1.007825032230
         H            3.628334263990    -0.950765511701    -1.368477371391     1.007825032230
         H           -2.919226736010    -1.987380511701     0.329226628609     1.007825032230

  Basis Set: AUG-CC-PVTZ
    Blend: AUG-CC-PVTZ
  Basis Set: (AUG-CC-PVTZ AUX)
    Blend: AUG-CC-PVTZ-JKFIT
	 Reference Energy          =    -512.8855968447796840 [Eh]
	 Singles Energy            =      -0.0000000000000000 [Eh]
	 Same-Spin Energy          =      -0.5102477628750302 [Eh]
	 Opposite-Spin Energy      =      -1.6134863348898416 [Eh]
	 Correlation Energy        =      -2.1237340977648715 [Eh]
	 Total Energy              =    -515.0093309425445796 [Eh]

	 ================> DF-SCS-MP2 Energies <==================
	-----------------------------------------------------------
	 SCS Same-Spin Scale       =       0.3333333333333333 [-]
	 SCS Opposite-Spin Scale   =       1.2000000000000000 [-]
	 SCS Same-Spin Energy      =      -0.1700825876250101 [Eh]
	 SCS Opposite-Spin Energy  =      -1.9361836018678098 [Eh]
	 SCS Correlation Energy    =      -2.1062661894928199 [Eh]
	 SCS Total Energy          =    -514.9918630342724555 [Eh]
	-----------------------------------------------------------

  Dipole Moment: [D]
     X:    -0.4868      Y:    -2.9165      Z:     2.4122     Total:     3.8160

*** Psi4 exiting successfully. Buy a developer a beer!
