                               Psi4 1.3.2 release

  ==> Input File <==

--------------------------------------------------------------------------
#psi4
#
memory 32 gb

molecule  {
0 1
  O       -1.9705880     1.6613530    -0.1848000
  O        1.6688240    -1.2224340     0.6437850
  O       -3.2913740    -0.0479250     0.4948630
  N        0.2140730     0.2683100    -0.2698780
  C       -0.9510770    -0.4970410     0.1176100
  C       -1.1968270    -1.6816620    -0.8184860
  C        2.5789920     0.8068070    -0.3378900
  C        1.4682490    -0.1481810     0.0706060
  C       -2.1088365     0.3088012     0.1800461
  C        3.9506640     0.3320720     0.1153760
  H       -0.7838570    -0.8897150     1.1288390
  H        0.0750270     1.1966100    -0.6451490
  H       -1.3515420    -1.3283180    -1.8408860
  H       -0.3238960    -2.3346980    -0.7915570
  H       -2.0788080    -2.2361410    -0.4923840
  H        2.5479870     0.9167430    -1.4288930
  H        2.3554820     1.7990610     0.0733550
  H        4.1782080    -0.6474400    -0.3069900
  H        4.7194550     1.0404130    -0.2050590
  H        3.9903360     0.2413970     1.2016820
  H       -2.8462050     2.0977190    -0.1239210
units angstrom
no_reorient  #important for SAPT in psi4, default
symmetry c1  #important for SAPT in psi4, default
}

set PROPERTIES_ORIGIN ["COM"]
properties('MP2/aug-cc-pvtz', properties = ['dipole'])
--------------------------------------------------------------------------

    Molecular point group: c1
  Charge       = 0
  Multiplicity = 1
  Basis Set: AUG-CC-PVTZ
    Blend: AUG-CC-PVTZ
  Basis Set: (AUG-CC-PVTZ AUX)
    Blend: AUG-CC-PVTZ-JKFIT

    Orbital Energies [Eh]
    ---------------------

    Doubly Occupied:

       1A    -20.627259     2A    -20.559362     3A    -20.528941
       4A    -15.597154     5A    -11.414173     6A    -11.360161
       7A    -11.300780     8A    -11.250015     9A    -11.234865
      10A    -11.221717    11A     -1.451374    12A     -1.384935
      13A     -1.336820    14A     -1.255253    15A     -1.091697
      16A     -1.045909    17A     -0.942590    18A     -0.891335
      19A     -0.818801    20A     -0.792527    21A     -0.736027
      22A     -0.700458    23A     -0.686505    24A     -0.666080
      25A     -0.642902    26A     -0.623664    27A     -0.606653
      28A     -0.600103    29A     -0.582291    30A     -0.553977
      31A     -0.547765    32A     -0.527638    33A     -0.525616
      34A     -0.522446    35A     -0.496623    36A     -0.475475
      37A     -0.466047    38A     -0.432544    39A     -0.405799

  @DF-RHF Final Energy:  -512.86349079420381

   => Energetics <=

    Nuclear Repulsion Energy =            548.4855984542527949
    One-Electron Energy =               -1788.8896104033779011
    Two-Electron Energy =                 727.5405211549212936
    Total Energy =                       -512.8634907942038126
  Basis Set: (AUG-CC-PVTZ AUX)
    Blend: AUG-CC-PVTZ-RI
    Molecular point group: c1

    Geometry (in Angstrom), charge = 0, multiplicity = 1:

       Center              X                  Y                   Z               Mass
    ------------   -----------------  -----------------  -----------------  -----------------
         O           -1.977370260849     1.666073793273    -0.184434189991    15.994914619570
         O            1.662041739151    -1.217713206727     0.644150810009    15.994914619570
         O           -3.298156260849    -0.043204206727     0.495228810009    15.994914619570
         N            0.207290739151     0.273030793273    -0.269512189991    14.003074004430
         C           -0.957859260849    -0.492320206727     0.117975810009    12.000000000000
         C           -1.203609260849    -1.676941206727    -0.818120189991    12.000000000000
         C            2.572209739151     0.811527793273    -0.337524189991    12.000000000000
         C            1.461466739151    -0.143460206727     0.070971810009    12.000000000000
         C           -2.115618760849     0.313521993273     0.180411910009    12.000000000000
         C            3.943881739151     0.336792793273     0.115741810009    12.000000000000
         H           -0.790639260849    -0.884994206727     1.129204810009     1.007825032230
         H            0.068244739151     1.201330793273    -0.644783189991     1.007825032230
         H           -1.358324260849    -1.323597206727    -1.840520189991     1.007825032230
         H           -0.330678260849    -2.329977206727    -0.791191189991     1.007825032230
         H           -2.085590260849    -2.231420206727    -0.492018189991     1.007825032230
         H            2.541204739151     0.921463793273    -1.428527189991     1.007825032230
         H            2.348699739151     1.803781793273     0.073720810009     1.007825032230
         H            4.171425739151    -0.642719206727    -0.306624189991     1.007825032230
         H            4.712672739151     1.045133793273    -0.204693189991     1.007825032230
         H            3.983553739151     0.246117793273     1.202047810009     1.007825032230
         H           -2.852987260849     2.102439793273    -0.123555189991     1.007825032230

  Basis Set: AUG-CC-PVTZ
    Blend: AUG-CC-PVTZ
  Basis Set: (AUG-CC-PVTZ AUX)
    Blend: AUG-CC-PVTZ-JKFIT
	 Reference Energy          =    -512.8634907942038126 [Eh]
	 Singles Energy            =      -0.0000000000000000 [Eh]
	 Same-Spin Energy          =      -0.5138430137635804 [Eh]
	 Opposite-Spin Energy      =      -1.6198873517913062 [Eh]
	 Correlation Energy        =      -2.1337303655548867 [Eh]
	 Total Energy              =    -514.9972211597587375 [Eh]

	 ================> DF-SCS-MP2 Energies <==================
	-----------------------------------------------------------
	 SCS Same-Spin Scale       =       0.3333333333333333 [-]
	 SCS Opposite-Spin Scale   =       1.2000000000000000 [-]
	 SCS Same-Spin Energy      =      -0.1712810045878601 [Eh]
	 SCS Opposite-Spin Energy  =      -1.9438648221495674 [Eh]
	 SCS Correlation Energy    =      -2.1151458267374275 [Eh]
	 SCS Total Energy          =    -514.9786366209411881 [Eh]
	-----------------------------------------------------------

  Dipole Moment: [D]
     X:     0.4145      Y:     2.9781      Z:    -1.9003     Total:     3.5569

*** Psi4 exiting successfully. Buy a developer a beer!
