                               Psi4 1.3.2 release

  ==> Input File <==

--------------------------------------------------------------------------
#psi4
#
memory 32 gb

molecule  {
0 1
  O       -1.9705880     1.6613530    -0.1848000
  O        1.6688240    -1.2224340     0.6437850
  O       -3.2913740    -0.0479250     0.4948630
  N        0.2140730     0.2683100    -0.2698780
  C       -0.8705490    -0.4441446     0.0908292
  C       -1.1968270    -1.6816620    -0.8184860
  C        2.5789920     0.8068070    -0.3378900
  C        1.4682490    -0.1481810     0.0706060
  C       -2.1908320     0.3658730     0.1844680
  C        3.9506640     0.3320720     0.1153760
  H       -0.7838570    -0.8897150     1.1288390
  H        0.0750270     1.1966100    -0.6451490
  H       -1.3515420    -1.3283180    -1.8408860
  H       -0.3238960    -2.3346980    -0.7915570
  H       -2.0788080    -2.2361410    -0.4923840
  H        2.5479870     0.9167430    -1.4288930
  H        2.3554820     1.7990610     0.0733550
  H        4.1782080    -0.6474400    -0.3069900
  H        4.7194550     1.0404130    -0.2050590
  H        3.9903360     0.2413970     1.2016820
  H       -2.8462050     2.0977190    -0.1239210
units angstrom
no_reorient  #important for SAPT in psi4, default
symmetry c1  #important for SAPT in psi4, default
}

set PROPERTIES_ORIGIN ["COM"]
properties('MP2/aug-cc-pvtz', properties = ['dipole'])
--------------------------------------------------------------------------

    Molecular point group: c1
  Charge       = 0
  Multiplicity = 1
  Basis Set: AUG-CC-PVTZ
    Blend: AUG-CC-PVTZ
  Basis Set: (AUG-CC-PVTZ AUX)
    Blend: AUG-CC-PVTZ-JKFIT

    Orbital Energies [Eh]
    ---------------------

    Doubly Occupied:

       1A    -20.633347     2A    -20.563663     3A    -20.529978
       4A    -15.595064     5A    -11.404990     6A    -11.360535
       7A    -11.296014     8A    -11.250379     9A    -11.224592
      10A    -11.221796    11A     -1.476062    12A     -1.388598
      13A     -1.371228    14A     -1.271953    15A     -1.074427
      16A     -1.028634    17A     -0.926474    18A     -0.888497
      19A     -0.818324    20A     -0.802705    21A     -0.737467
      22A     -0.713424    23A     -0.690178    24A     -0.663394
      25A     -0.643545    26A     -0.634589    27A     -0.608118
      28A     -0.601877    29A     -0.587871    30A     -0.547279
      31A     -0.534925    32A     -0.532169    33A     -0.522879
      34A     -0.515890    35A     -0.498524    36A     -0.487152
      37A     -0.461430    38A     -0.433112    39A     -0.395301

  @DF-RHF Final Energy:  -512.87362774941005

   => Energetics <=

    Nuclear Repulsion Energy =            548.9367142231725438
    One-Electron Energy =               -1789.7479126180678577
    Two-Electron Energy =                 727.9375706454851525
    Total Energy =                       -512.8736277494100477
  Basis Set: (AUG-CC-PVTZ AUX)
    Blend: AUG-CC-PVTZ-RI
    Molecular point group: c1

    Geometry (in Angstrom), charge = 0, multiplicity = 1:

       Center              X                  Y                   Z               Mass
    ------------   -----------------  -----------------  -----------------  -----------------
         O           -1.977248874432     1.656977612212    -0.182584740762    15.994914619570
         O            1.662163125568    -1.226809387789     0.646000259238    15.994914619570
         O           -3.298034874432    -0.052300387789     0.497078259238    15.994914619570
         N            0.207412125568     0.263934612211    -0.267662740762    14.003074004430
         C           -0.877209874432    -0.448519987788     0.093044459238    12.000000000000
         C           -1.203487874432    -1.686037387789    -0.816270740762    12.000000000000
         C            2.572331125568     0.802431612211    -0.335674740762    12.000000000000
         C            1.461588125568    -0.152556387789     0.072821259238    12.000000000000
         C           -2.197492874432     0.361497612212     0.186683259238    12.000000000000
         C            3.944003125568     0.327696612211     0.117591259238    12.000000000000
         H           -0.790517874432    -0.894090387789     1.131054259238     1.007825032230
         H            0.068366125568     1.192234612211    -0.642933740762     1.007825032230
         H           -1.358202874432    -1.332693387789    -1.838670740762     1.007825032230
         H           -0.330556874432    -2.339073387788    -0.789341740762     1.007825032230
         H           -2.085468874432    -2.240516387788    -0.490168740762     1.007825032230
         H            2.541326125568     0.912367612211    -1.426677740762     1.007825032230
         H            2.348821125568     1.794685612211     0.075570259238     1.007825032230
         H            4.171547125568    -0.651815387789    -0.304774740762     1.007825032230
         H            4.712794125568     1.036037612211    -0.202843740762     1.007825032230
         H            3.983675125568     0.237021612211     1.203897259238     1.007825032230
         H           -2.852865874432     2.093343612212    -0.121705740762     1.007825032230

  Basis Set: AUG-CC-PVTZ
    Blend: AUG-CC-PVTZ
  Basis Set: (AUG-CC-PVTZ AUX)
    Blend: AUG-CC-PVTZ-JKFIT
	 Reference Energy          =    -512.8736277494100477 [Eh]
	 Singles Energy            =      -0.0000000000000000 [Eh]
	 Same-Spin Energy          =      -0.5123816356649955 [Eh]
	 Opposite-Spin Energy      =      -1.6159448595797770 [Eh]
	 Correlation Energy        =      -2.1283264952447727 [Eh]
	 Total Energy              =    -515.0019542446548257 [Eh]

	 ================> DF-SCS-MP2 Energies <==================
	-----------------------------------------------------------
	 SCS Same-Spin Scale       =       0.3333333333333333 [-]
	 SCS Opposite-Spin Scale   =       1.2000000000000000 [-]
	 SCS Same-Spin Energy      =      -0.1707938785549985 [Eh]
	 SCS Opposite-Spin Energy  =      -1.9391338314957323 [Eh]
	 SCS Correlation Energy    =      -2.1099277100507310 [Eh]
	 SCS Total Energy          =    -514.9835554594608311 [Eh]
	-----------------------------------------------------------

  Dipole Moment: [D]
     X:     0.2220      Y:     3.4933      Z:    -1.8645     Total:     3.9660

*** Psi4 exiting successfully. Buy a developer a beer!
