                               Psi4 1.3.2 release

  ==> Input File <==

--------------------------------------------------------------------------
#psi4
#
memory 32 gb

molecule  {
0 1
  O       -1.9705880     1.6613530    -0.1848000
  O        1.6688240    -1.2224340     0.6437850
  O       -3.2913740    -0.0479250     0.4948630
  N        0.2140730     0.2683100    -0.2698780
  C       -0.9510770    -0.4970410     0.1176100
  C       -1.1968270    -1.6816620    -0.8184860
  C        2.5789920     0.8068070    -0.3378900
  C        1.4519951    -0.0611273     0.0241576
  C       -2.1908320     0.3658730     0.1844680
  C        3.9506640     0.3320720     0.1153760
  H       -0.7838570    -0.8897150     1.1288390
  H        0.0750270     1.1966100    -0.6451490
  H       -1.3515420    -1.3283180    -1.8408860
  H       -0.3238960    -2.3346980    -0.7915570
  H       -2.0788080    -2.2361410    -0.4923840
  H        2.5479870     0.9167430    -1.4288930
  H        2.3554820     1.7990610     0.0733550
  H        4.1782080    -0.6474400    -0.3069900
  H        4.7194550     1.0404130    -0.2050590
  H        3.9903360     0.2413970     1.2016820
  H       -2.8462050     2.0977190    -0.1239210
units angstrom
no_reorient  #important for SAPT in psi4, default
symmetry c1  #important for SAPT in psi4, default
}

set PROPERTIES_ORIGIN ["COM"]
properties('MP2/aug-cc-pvtz', properties = ['dipole'])
--------------------------------------------------------------------------

    Molecular point group: c1
  Charge       = 0
  Multiplicity = 1
  Basis Set: AUG-CC-PVTZ
    Blend: AUG-CC-PVTZ
  Basis Set: (AUG-CC-PVTZ AUX)
    Blend: AUG-CC-PVTZ-JKFIT

    Orbital Energies [Eh]
    ---------------------

    Doubly Occupied:

       1A    -20.640417     2A    -20.568427     3A    -20.504278
       4A    -15.606240     5A    -11.410168     6A    -11.357044
       7A    -11.303991     8A    -11.250322     9A    -11.229408
      10A    -11.221015    11A     -1.482620    12A     -1.377717
      13A     -1.341504    14A     -1.237992    15A     -1.086989
      16A     -1.044667    17A     -0.933955    18A     -0.896611
      19A     -0.822520    20A     -0.802231    21A     -0.738139
      22A     -0.718061    23A     -0.682887    24A     -0.669990
      25A     -0.645693    26A     -0.635054    27A     -0.614630
      28A     -0.593587    29A     -0.565399    30A     -0.550351
      31A     -0.544845    32A     -0.530942    33A     -0.521080
      34A     -0.508654    35A     -0.500607    36A     -0.476535
      37A     -0.470538    38A     -0.417619    39A     -0.392988

  @DF-RHF Final Energy:  -512.86433139998621

   => Energetics <=

    Nuclear Repulsion Energy =            547.8011252079127189
    One-Electron Energy =               -1787.5394859320927026
    Two-Electron Energy =                 726.8740293241937707
    Total Energy =                       -512.8643313999862130
  Basis Set: (AUG-CC-PVTZ AUX)
    Blend: AUG-CC-PVTZ-RI
    Molecular point group: c1

    Geometry (in Angstrom), charge = 0, multiplicity = 1:

       Center              X                  Y                   Z               Mass
    ------------   -----------------  -----------------  -----------------  -----------------
         O           -1.969243417529     1.654152241010    -0.180957906362    15.994914619570
         O            1.670168582471    -1.229634758990     0.647627093638    15.994914619570
         O           -3.290029417529    -0.055125758990     0.498705093638    15.994914619570
         N            0.215417582471     0.261109241010    -0.266035906362    14.003074004430
         C           -0.949732417529    -0.504241758990     0.121452093638    12.000000000000
         C           -1.195482417529    -1.688862758990    -0.814643906362    12.000000000000
         C            2.580336582471     0.799606241010    -0.334047906362    12.000000000000
         C            1.453339682471    -0.068328058990     0.027999693638    12.000000000000
         C           -2.189487417529     0.358672241010     0.188310093638    12.000000000000
         C            3.952008582471     0.324871241010     0.119218093638    12.000000000000
         H           -0.782512417529    -0.896915758990     1.132681093638     1.007825032230
         H            0.076371582471     1.189409241010    -0.641306906362     1.007825032230
         H           -1.350197417529    -1.335518758990    -1.837043906362     1.007825032230
         H           -0.322551417529    -2.341898758990    -0.787714906362     1.007825032230
         H           -2.077463417529    -2.243341758990    -0.488541906362     1.007825032230
         H            2.549331582471     0.909542241010    -1.425050906362     1.007825032230
         H            2.356826582471     1.791860241010     0.077197093638     1.007825032230
         H            4.179552582471    -0.654640758990    -0.303147906362     1.007825032230
         H            4.720799582471     1.033212241010    -0.201216906362     1.007825032230
         H            3.991680582471     0.234196241010     1.205524093638     1.007825032230
         H           -2.844860417529     2.090518241010    -0.120078906362     1.007825032230

  Basis Set: AUG-CC-PVTZ
    Blend: AUG-CC-PVTZ
  Basis Set: (AUG-CC-PVTZ AUX)
    Blend: AUG-CC-PVTZ-JKFIT
	 Reference Energy          =    -512.8643313999862130 [Eh]
	 Singles Energy            =      -0.0000000000000000 [Eh]
	 Same-Spin Energy          =      -0.5135424570465348 [Eh]
	 Opposite-Spin Energy      =      -1.6191301758804333 [Eh]
	 Correlation Energy        =      -2.1326726329269681 [Eh]
	 Total Energy              =    -514.9970040329131962 [Eh]

	 ================> DF-SCS-MP2 Energies <==================
	-----------------------------------------------------------
	 SCS Same-Spin Scale       =       0.3333333333333333 [-]
	 SCS Opposite-Spin Scale   =       1.2000000000000000 [-]
	 SCS Same-Spin Energy      =      -0.1711808190155116 [Eh]
	 SCS Opposite-Spin Energy  =      -1.9429562110565199 [Eh]
	 SCS Correlation Energy    =      -2.1141370300720315 [Eh]
	 SCS Total Energy          =    -514.9784684300582285 [Eh]
	-----------------------------------------------------------

  Dipole Moment: [D]
     X:    -0.4475      Y:     3.7924      Z:    -2.1366     Total:     4.3758

*** Psi4 exiting successfully. Buy a developer a beer!
