                               Psi4 1.3.2 release

  ==> Input File <==

--------------------------------------------------------------------------
#psi4
#
memory 32 gb

molecule  {
0 1
  O       -1.9705880     1.6613530    -0.1848000
  O        1.6688240    -1.2224340     0.6437850
  O       -3.2913740    -0.0479250     0.4948630
  N        0.2140730     0.2683100    -0.2698780
  C       -0.9510770    -0.4970410     0.1176100
  C       -1.1968270    -1.6816620    -0.8184860
  C        2.5789920     0.8068070    -0.3378900
  C        1.3952089    -0.2109790     0.0974678
  C       -2.1908320     0.3658730     0.1844680
  C        3.9506640     0.3320720     0.1153760
  H       -0.7838570    -0.8897150     1.1288390
  H        0.0750270     1.1966100    -0.6451490
  H       -1.3515420    -1.3283180    -1.8408860
  H       -0.3238960    -2.3346980    -0.7915570
  H       -2.0788080    -2.2361410    -0.4923840
  H        2.5479870     0.9167430    -1.4288930
  H        2.3554820     1.7990610     0.0733550
  H        4.1782080    -0.6474400    -0.3069900
  H        4.7194550     1.0404130    -0.2050590
  H        3.9903360     0.2413970     1.2016820
  H       -2.8462050     2.0977190    -0.1239210
units angstrom
no_reorient  #important for SAPT in psi4, default
symmetry c1  #important for SAPT in psi4, default
}

set PROPERTIES_ORIGIN ["COM"]
properties('MP2/aug-cc-pvtz', properties = ['dipole'])
--------------------------------------------------------------------------

    Molecular point group: c1
  Charge       = 0
  Multiplicity = 1
  Basis Set: AUG-CC-PVTZ
    Blend: AUG-CC-PVTZ
  Basis Set: (AUG-CC-PVTZ AUX)
    Blend: AUG-CC-PVTZ-JKFIT

    Orbital Energies [Eh]
    ---------------------

    Doubly Occupied:

       1A    -20.639090     2A    -20.566610     3A    -20.528741
       4A    -15.594528     5A    -11.407690     6A    -11.349576
       7A    -11.299012     8A    -11.239186     9A    -11.230232
      10A    -11.213389    11A     -1.481024    12A     -1.413252
      13A     -1.376054    14A     -1.265177    15A     -1.069309
      16A     -1.027155    17A     -0.931011    18A     -0.870345
      19A     -0.822376    20A     -0.803346    21A     -0.732180
      22A     -0.717750    23A     -0.683696    24A     -0.667541
      25A     -0.639425    26A     -0.636385    27A     -0.614193
      28A     -0.608478    29A     -0.587771    30A     -0.550634
      31A     -0.549183    32A     -0.525736    33A     -0.522952
      34A     -0.514473    35A     -0.497061    36A     -0.492004
      37A     -0.471213    38A     -0.410786    39A     -0.409777

  @DF-RHF Final Energy:  -512.87861232735315

   => Energetics <=

    Nuclear Repulsion Energy =            548.9700557966981478
    One-Electron Energy =               -1789.7806556063005701
    Two-Electron Energy =                 727.9319874822493830
    Total Energy =                       -512.8786123273531530
  Basis Set: (AUG-CC-PVTZ AUX)
    Blend: AUG-CC-PVTZ-RI
    Molecular point group: c1

    Geometry (in Angstrom), charge = 0, multiplicity = 1:

       Center              X                  Y                   Z               Mass
    ------------   -----------------  -----------------  -----------------  -----------------
         O           -1.964546263652     1.666547444310    -0.187021867151    15.994914619570
         O            1.674865736348    -1.217239555690     0.641563132849    15.994914619570
         O           -3.285332263652    -0.042730555690     0.492641132849    15.994914619570
         N            0.220114736348     0.273504444310    -0.272099867151    14.003074004430
         C           -0.945035263652    -0.491846555690     0.115388132849    12.000000000000
         C           -1.190785263652    -1.676467555690    -0.820707867151    12.000000000000
         C            2.585033736348     0.812001444310    -0.340111867151    12.000000000000
         C            1.401250636348    -0.205784555690     0.095245932849    12.000000000000
         C           -2.184790263652     0.371067444310     0.182246132849    12.000000000000
         C            3.956705736348     0.337266444310     0.113154132849    12.000000000000
         H           -0.777815263652    -0.884520555690     1.126617132849     1.007825032230
         H            0.081068736348     1.201804444310    -0.647370867151     1.007825032230
         H           -1.345500263652    -1.323123555690    -1.843107867151     1.007825032230
         H           -0.317854263652    -2.329503555690    -0.793778867151     1.007825032230
         H           -2.072766263652    -2.230946555690    -0.494605867151     1.007825032230
         H            2.554028736348     0.921937444310    -1.431114867151     1.007825032230
         H            2.361523736348     1.804255444310     0.071133132849     1.007825032230
         H            4.184249736348    -0.642245555690    -0.309211867151     1.007825032230
         H            4.725496736348     1.045607444310    -0.207280867151     1.007825032230
         H            3.996377736348     0.246591444310     1.199460132849     1.007825032230
         H           -2.840163263652     2.102913444310    -0.126142867151     1.007825032230

  Basis Set: AUG-CC-PVTZ
    Blend: AUG-CC-PVTZ
  Basis Set: (AUG-CC-PVTZ AUX)
    Blend: AUG-CC-PVTZ-JKFIT
	 Reference Energy          =    -512.8786123273531530 [Eh]
	 Singles Energy            =      -0.0000000000000000 [Eh]
	 Same-Spin Energy          =      -0.5102626400736624 [Eh]
	 Opposite-Spin Energy      =      -1.6128246412406408 [Eh]
	 Correlation Energy        =      -2.1230872813143034 [Eh]
	 Total Energy              =    -515.0016996086674226 [Eh]

	 ================> DF-SCS-MP2 Energies <==================
	-----------------------------------------------------------
	 SCS Same-Spin Scale       =       0.3333333333333333 [-]
	 SCS Opposite-Spin Scale   =       1.2000000000000000 [-]
	 SCS Same-Spin Energy      =      -0.1700875466912208 [Eh]
	 SCS Opposite-Spin Energy  =      -1.9353895694887688 [Eh]
	 SCS Correlation Energy    =      -2.1054771161799897 [Eh]
	 SCS Total Energy          =    -514.9840894435330938 [Eh]
	-----------------------------------------------------------

  Dipole Moment: [D]
     X:    -0.5743      Y:     3.0598      Z:    -1.7492     Total:     3.5710

*** Psi4 exiting successfully. Buy a developer a beer!
