                               Psi4 1.3.2 release

  ==> Input File <==

--------------------------------------------------------------------------
#psi4
#
memory 32 gb

molecule  {
0 1
  O       -1.9705880     1.6613530    -0.1848000
  O        1.6688240    -1.2224340     0.6437850
  O       -3.2913740    -0.0479250     0.4948630
  N        0.2140730     0.2683100    -0.2698780
  C       -0.9510770    -0.4970410     0.1176100
  C       -1.1719998    -1.6902589    -0.8137438
  C        2.5789920     0.8068070    -0.3378900
  C        1.4682490    -0.1481810     0.0706060
  C       -2.1783876     0.3820526     0.2011928
  C        3.9506640     0.3320720     0.1153760
  H       -0.7838570    -0.8897150     1.1288390
  H        0.0750270     1.1966100    -0.6451490
  H       -1.3515420    -1.3283180    -1.8408860
  H       -0.3238960    -2.3346980    -0.7915570
  H       -2.0788080    -2.2361410    -0.4923840
  H        2.5479870     0.9167430    -1.4288930
  H        2.3554820     1.7990610     0.0733550
  H        4.1782080    -0.6474400    -0.3069900
  H        4.7194550     1.0404130    -0.2050590
  H        3.9903360     0.2413970     1.2016820
  H       -2.8462050     2.0977190    -0.1239210
units angstrom
no_reorient  #important for SAPT in psi4, default
symmetry c1  #important for SAPT in psi4, default
}

set PROPERTIES_ORIGIN ["COM"]
properties('MP2/aug-cc-pvtz', properties = ['dipole'])
--------------------------------------------------------------------------

    Molecular point group: c1
  Charge       = 0
  Multiplicity = 1
  Basis Set: AUG-CC-PVTZ
    Blend: AUG-CC-PVTZ
  Basis Set: (AUG-CC-PVTZ AUX)
    Blend: AUG-CC-PVTZ-JKFIT

    Orbital Energies [Eh]
    ---------------------

    Doubly Occupied:

       1A    -20.640760     2A    -20.562318     3A    -20.524708
       4A    -15.591368     5A    -11.407252     6A    -11.355889
       7A    -11.297226     8A    -11.247344     9A    -11.227081
      10A    -11.219662    11A     -1.482279    12A     -1.380619
      13A     -1.368435    14A     -1.246430    15A     -1.075243
      16A     -1.035107    17A     -0.930562    18A     -0.886659
      19A     -0.819636    20A     -0.793549    21A     -0.731471
      22A     -0.715551    23A     -0.683080    24A     -0.666762
      25A     -0.641896    26A     -0.633364    27A     -0.609772
      28A     -0.602152    29A     -0.580314    30A     -0.552984
      31A     -0.541585    32A     -0.522717    33A     -0.520818
      34A     -0.519430    35A     -0.496146    36A     -0.486428
      37A     -0.467567    38A     -0.428302    39A     -0.400104

  @DF-RHF Final Energy:  -512.88368031451830

   => Energetics <=

    Nuclear Repulsion Energy =            548.0481376912649694
    One-Electron Energy =               -1788.0784952710187099
    Two-Electron Energy =                 727.1466772652355530
    Total Energy =                       -512.8836803145183012
  Basis Set: (AUG-CC-PVTZ AUX)
    Blend: AUG-CC-PVTZ-RI
    Molecular point group: c1

    Geometry (in Angstrom), charge = 0, multiplicity = 1:

       Center              X                  Y                   Z               Mass
    ------------   -----------------  -----------------  -----------------  -----------------
         O           -1.973670857820     1.660725801413    -0.186575628351    15.994914619570
         O            1.665741142180    -1.223061198587     0.642009371649    15.994914619570
         O           -3.294456857820    -0.048552198587     0.493087371649    15.994914619570
         N            0.210990142180     0.267682801413    -0.271653628351    14.003074004430
         C           -0.954159857820    -0.497668198587     0.115834371649    12.000000000000
         C           -1.175082657820    -1.690886098587    -0.815519428351    12.000000000000
         C            2.575909142180     0.806179801413    -0.339665628351    12.000000000000
         C            1.465166142180    -0.148808198587     0.068830371649    12.000000000000
         C           -2.181470457820     0.381425401413     0.199417171649    12.000000000000
         C            3.947581142180     0.331444801413     0.113600371649    12.000000000000
         H           -0.786939857820    -0.890342198587     1.127063371649     1.007825032230
         H            0.071944142180     1.195982801413    -0.646924628351     1.007825032230
         H           -1.354624857820    -1.328945198587    -1.842661628351     1.007825032230
         H           -0.326978857820    -2.335325198587    -0.793332628351     1.007825032230
         H           -2.081890857820    -2.236768198587    -0.494159628351     1.007825032230
         H            2.544904142180     0.916115801413    -1.430668628351     1.007825032230
         H            2.352399142180     1.798433801413     0.071579371649     1.007825032230
         H            4.175125142180    -0.648067198587    -0.308765628351     1.007825032230
         H            4.716372142180     1.039785801413    -0.206834628351     1.007825032230
         H            3.987253142180     0.240769801413     1.199906371649     1.007825032230
         H           -2.849287857820     2.097091801413    -0.125696628351     1.007825032230

  Basis Set: AUG-CC-PVTZ
    Blend: AUG-CC-PVTZ
  Basis Set: (AUG-CC-PVTZ AUX)
    Blend: AUG-CC-PVTZ-JKFIT
	 Reference Energy          =    -512.8836803145183012 [Eh]
	 Singles Energy            =      -0.0000000000000000 [Eh]
	 Same-Spin Energy          =      -0.5115134291737967 [Eh]
	 Opposite-Spin Energy      =      -1.6153170284984304 [Eh]
	 Correlation Energy        =      -2.1268304576722272 [Eh]
	 Total Energy              =    -515.0105107721905142 [Eh]

	 ================> DF-SCS-MP2 Energies <==================
	-----------------------------------------------------------
	 SCS Same-Spin Scale       =       0.3333333333333333 [-]
	 SCS Opposite-Spin Scale   =       1.2000000000000000 [-]
	 SCS Same-Spin Energy      =      -0.1705044763912656 [Eh]
	 SCS Opposite-Spin Energy  =      -1.9383804341981163 [Eh]
	 SCS Correlation Energy    =      -2.1088849105893819 [Eh]
	 SCS Total Energy          =    -514.9925652251076826 [Eh]
	-----------------------------------------------------------

  Dipole Moment: [D]
     X:    -0.0429      Y:     3.4653      Z:    -1.8692     Total:     3.9375

*** Psi4 exiting successfully. Buy a developer a beer!
