                               Psi4 1.3.2 release

  ==> Input File <==

--------------------------------------------------------------------------
#psi4
#
memory 32 gb

molecule  {
0 1
  O       -1.9705880     1.6613530    -0.1848000
  O        1.6688240    -1.2224340     0.6437850
  O       -3.2913740    -0.0479250     0.4948630
  N        0.2140730     0.2683100    -0.2698780
  C       -0.9510770    -0.4970410     0.1176100
  C       -1.1968270    -1.6816620    -0.8184860
  C        2.5789920     0.8068070    -0.3378900
  C        1.4682490    -0.1481810     0.0706060
  C       -2.1883258     0.3710654     0.1587169
  C        3.9506640     0.3320720     0.1153760
  H       -0.7683576    -0.8990090     1.1224855
  H        0.0750270     1.1966100    -0.6451490
  H       -1.3515420    -1.3283180    -1.8408860
  H       -0.3238960    -2.3346980    -0.7915570
  H       -2.0788080    -2.2361410    -0.4923840
  H        2.5479870     0.9167430    -1.4288930
  H        2.3554820     1.7990610     0.0733550
  H        4.1782080    -0.6474400    -0.3069900
  H        4.7194550     1.0404130    -0.2050590
  H        3.9903360     0.2413970     1.2016820
  H       -2.8462050     2.0977190    -0.1239210
units angstrom
no_reorient  #important for SAPT in psi4, default
symmetry c1  #important for SAPT in psi4, default
}

set PROPERTIES_ORIGIN ["COM"]
properties('MP2/aug-cc-pvtz', properties = ['dipole'])
--------------------------------------------------------------------------

    Molecular point group: c1
  Charge       = 0
  Multiplicity = 1
  Basis Set: AUG-CC-PVTZ
    Blend: AUG-CC-PVTZ
  Basis Set: (AUG-CC-PVTZ AUX)
    Blend: AUG-CC-PVTZ-JKFIT

    Orbital Energies [Eh]
    ---------------------

    Doubly Occupied:

       1A    -20.640368     2A    -20.562301     3A    -20.524877
       4A    -15.591621     5A    -11.406634     6A    -11.356057
       7A    -11.297102     8A    -11.247404     9A    -11.226380
      10A    -11.219690    11A     -1.482131    12A     -1.380782
      13A     -1.369283    14A     -1.246496    15A     -1.075634
      16A     -1.035761    17A     -0.928903    18A     -0.886500
      19A     -0.819615    20A     -0.793516    21A     -0.731611
      22A     -0.715650    23A     -0.682972    24A     -0.667052
      25A     -0.641926    26A     -0.634209    27A     -0.609973
      28A     -0.603013    29A     -0.581136    30A     -0.546774
      31A     -0.543900    32A     -0.524451    33A     -0.520999
      34A     -0.519739    35A     -0.496117    36A     -0.486884
      37A     -0.468392    38A     -0.428333    39A     -0.399762

  @DF-RHF Final Energy:  -512.88497302372593

   => Energetics <=

    Nuclear Repulsion Energy =            548.0953381400855733
    One-Electron Energy =               -1788.1727225253130200
    Two-Electron Energy =                 727.1924113615016267
    Total Energy =                       -512.8849730237259337
  Basis Set: (AUG-CC-PVTZ AUX)
    Blend: AUG-CC-PVTZ-RI
    Molecular point group: c1

    Geometry (in Angstrom), charge = 0, multiplicity = 1:

       Center              X                  Y                   Z               Mass
    ------------   -----------------  -----------------  -----------------  -----------------
         O           -1.970902860713     1.660988083792    -0.182625776289    15.994914619570
         O            1.668509139287    -1.222798916208     0.645959223711    15.994914619570
         O           -3.291688860713    -0.048289916208     0.497037223711    15.994914619570
         N            0.213758139287     0.267945083792    -0.267703776289    14.003074004430
         C           -0.951391860713    -0.497405916208     0.119784223711    12.000000000000
         C           -1.197141860713    -1.682026916208    -0.816311776289    12.000000000000
         C            2.578677139287     0.806442083792    -0.335715776289    12.000000000000
         C            1.467934139287    -0.148545916208     0.072780223711    12.000000000000
         C           -2.188640660713     0.370700483792     0.160891123711    12.000000000000
         C            3.950349139287     0.331707083792     0.117550223711    12.000000000000
         H           -0.768672460713    -0.899373916208     1.124659723711     1.007825032230
         H            0.074712139287     1.196245083792    -0.642974776289     1.007825032230
         H           -1.351856860713    -1.328682916208    -1.838711776289     1.007825032230
         H           -0.324210860713    -2.335062916208    -0.789382776289     1.007825032230
         H           -2.079122860713    -2.236505916208    -0.490209776289     1.007825032230
         H            2.547672139287     0.916378083792    -1.426718776289     1.007825032230
         H            2.355167139287     1.798696083792     0.075529223711     1.007825032230
         H            4.177893139287    -0.647804916208    -0.304815776289     1.007825032230
         H            4.719140139287     1.040048083792    -0.202884776289     1.007825032230
         H            3.990021139287     0.241032083792     1.203856223711     1.007825032230
         H           -2.846519860713     2.097354083792    -0.121746776289     1.007825032230

  Basis Set: AUG-CC-PVTZ
    Blend: AUG-CC-PVTZ
  Basis Set: (AUG-CC-PVTZ AUX)
    Blend: AUG-CC-PVTZ-JKFIT
	 Reference Energy          =    -512.8849730237259337 [Eh]
	 Singles Energy            =      -0.0000000000000000 [Eh]
	 Same-Spin Energy          =      -0.5115025953932317 [Eh]
	 Opposite-Spin Energy      =      -1.6152152365441794 [Eh]
	 Correlation Energy        =      -2.1267178319374112 [Eh]
	 Total Energy              =    -515.0116908556633462 [Eh]

	 ================> DF-SCS-MP2 Energies <==================
	-----------------------------------------------------------
	 SCS Same-Spin Scale       =       0.3333333333333333 [-]
	 SCS Opposite-Spin Scale   =       1.2000000000000000 [-]
	 SCS Same-Spin Energy      =      -0.1705008651310772 [Eh]
	 SCS Opposite-Spin Energy  =      -1.9382582838530151 [Eh]
	 SCS Correlation Energy    =      -2.1087591489840922 [Eh]
	 SCS Total Energy          =    -514.9937321727099970 [Eh]
	-----------------------------------------------------------

  Dipole Moment: [D]
     X:    -0.0473      Y:     3.4495      Z:    -1.9124     Total:     3.9444

*** Psi4 exiting successfully. Buy a developer a beer!
