                               Psi4 1.3.2 release

  ==> Input File <==

--------------------------------------------------------------------------
#psi4
#
memory 32 gb

molecule  {
0 1
  O       -1.9705880     1.6613530    -0.1848000
  O        1.6688240    -1.2224340     0.6437850
  O       -3.2913740    -0.0479250     0.4948630
  N        0.1802113     0.2825738    -0.3361202
  C       -0.9510770    -0.4970410     0.1176100
  C       -1.1968270    -1.6816620    -0.8184860
  C        2.5789920     0.8068070    -0.3378900
  C        1.4682490    -0.1481810     0.0706060
  C       -2.1908320     0.3658730     0.1844680
  C        3.9506640     0.3320720     0.1153760
  H       -0.8356842    -0.9143939     1.1261934
  H        0.0750270     1.1966100    -0.6451490
  H       -1.3515420    -1.3283180    -1.8408860
  H       -0.3238960    -2.3346980    -0.7915570
  H       -2.0788080    -2.2361410    -0.4923840
  H        2.5479870     0.9167430    -1.4288930
  H        2.3554820     1.7990610     0.0733550
  H        4.1782080    -0.6474400    -0.3069900
  H        4.7194550     1.0404130    -0.2050590
  H        3.9903360     0.2413970     1.2016820
  H       -2.8462050     2.0977190    -0.1239210
units angstrom
no_reorient  #important for SAPT in psi4, default
symmetry c1  #important for SAPT in psi4, default
}

set PROPERTIES_ORIGIN ["COM"]
properties('MP2/aug-cc-pvtz', properties = ['dipole'])
--------------------------------------------------------------------------

    Molecular point group: c1
  Charge       = 0
  Multiplicity = 1
  Basis Set: AUG-CC-PVTZ
    Blend: AUG-CC-PVTZ
  Basis Set: (AUG-CC-PVTZ AUX)
    Blend: AUG-CC-PVTZ-JKFIT

    Orbital Energies [Eh]
    ---------------------

    Doubly Occupied:

       1A    -20.634103     2A    -20.561691     3A    -20.535519
       4A    -15.587513     5A    -11.402257     6A    -11.364333
       7A    -11.295412     8A    -11.249346     9A    -11.224171
      10A    -11.221382    11A     -1.476253    12A     -1.382409
      13A     -1.371368    14A     -1.242735    15A     -1.073868
      16A     -1.034742    17A     -0.924958    18A     -0.887290
      19A     -0.817612    20A     -0.786833    21A     -0.730072
      22A     -0.713903    23A     -0.684287    24A     -0.663331
      25A     -0.641437    26A     -0.634257    27A     -0.609437
      28A     -0.607483    29A     -0.577950    30A     -0.545561
      31A     -0.543327    32A     -0.527700    33A     -0.521859
      34A     -0.519971    35A     -0.497346    36A     -0.488890
      37A     -0.466015    38A     -0.431217    39A     -0.401679

  @DF-RHF Final Energy:  -512.88009663331150

   => Energetics <=

    Nuclear Repulsion Energy =            547.3429210680995993
    One-Electron Energy =               -1786.6870042461669073
    Two-Electron Energy =                 726.4639865447556986
    Total Energy =                       -512.8800966333114957
  Basis Set: (AUG-CC-PVTZ AUX)
    Blend: AUG-CC-PVTZ-RI
    Molecular point group: c1

    Geometry (in Angstrom), charge = 0, multiplicity = 1:

       Center              X                  Y                   Z               Mass
    ------------   -----------------  -----------------  -----------------  -----------------
         O           -1.966959382592     1.660147664080    -0.178387630467    15.994914619570
         O            1.672452617408    -1.223639335920     0.650197369533    15.994914619570
         O           -3.287745382592    -0.049130335920     0.501275369533    15.994914619570
         N            0.183839917408     0.281368464080    -0.329707830467    14.003074004430
         C           -0.947448382592    -0.498246335920     0.124022369533    12.000000000000
         C           -1.193198382592    -1.682867335920    -0.812073630467    12.000000000000
         C            2.582620617408     0.805601664080    -0.331477630467    12.000000000000
         C            1.471877617408    -0.149386335920     0.077018369533    12.000000000000
         C           -2.187203382592     0.364667664080     0.190880369533    12.000000000000
         C            3.954292617408     0.330866664080     0.121788369533    12.000000000000
         H           -0.832055582592    -0.915599235920     1.132605769533     1.007825032230
         H            0.078655617408     1.195404664080    -0.638736630467     1.007825032230
         H           -1.347913382592    -1.329523335920    -1.834473630467     1.007825032230
         H           -0.320267382592    -2.335903335920    -0.785144630467     1.007825032230
         H           -2.075179382592    -2.237346335920    -0.485971630467     1.007825032230
         H            2.551615617408     0.915537664080    -1.422480630467     1.007825032230
         H            2.359110617408     1.797855664080     0.079767369533     1.007825032230
         H            4.181836617408    -0.648645335920    -0.300577630467     1.007825032230
         H            4.723083617408     1.039207664080    -0.198646630467     1.007825032230
         H            3.993964617408     0.240191664080     1.208094369533     1.007825032230
         H           -2.842576382592     2.096513664080    -0.117508630467     1.007825032230

  Basis Set: AUG-CC-PVTZ
    Blend: AUG-CC-PVTZ
  Basis Set: (AUG-CC-PVTZ AUX)
    Blend: AUG-CC-PVTZ-JKFIT
	 Reference Energy          =    -512.8800966333114957 [Eh]
	 Singles Energy            =      -0.0000000000000000 [Eh]
	 Same-Spin Energy          =      -0.5112839974055468 [Eh]
	 Opposite-Spin Energy      =      -1.6154231009829136 [Eh]
	 Correlation Energy        =      -2.1267070983884606 [Eh]
	 Total Energy              =    -515.0068037316999607 [Eh]

	 ================> DF-SCS-MP2 Energies <==================
	-----------------------------------------------------------
	 SCS Same-Spin Scale       =       0.3333333333333333 [-]
	 SCS Opposite-Spin Scale   =       1.2000000000000000 [-]
	 SCS Same-Spin Energy      =      -0.1704279991351823 [Eh]
	 SCS Opposite-Spin Energy  =      -1.9385077211794963 [Eh]
	 SCS Correlation Energy    =      -2.1089357203146788 [Eh]
	 SCS Total Energy          =    -514.9890323536261576 [Eh]
	-----------------------------------------------------------

  Dipole Moment: [D]
     X:     0.2352      Y:     3.2802      Z:    -1.6739     Total:     3.6901

*** Psi4 exiting successfully. Buy a developer a beer!
