                               Psi4 1.3.2 release

  ==> Input File <==

--------------------------------------------------------------------------
#psi4
#
memory 32 gb

molecule  {
0 1
  O       -1.9705880     1.6613530    -0.1848000
  O        1.6688240    -1.2224340     0.6437850
  O       -3.2913740    -0.0479250     0.4948630
  N        0.2140730     0.2683100    -0.2698780
  C       -0.9510770    -0.4970410     0.1176100
  C       -1.2462493    -1.6633885    -0.8271136
  C        2.5789920     0.8068070    -0.3378900
  C        1.4682490    -0.1481810     0.0706060
  C       -2.2145842     0.3327302     0.1509624
  C        3.9506640     0.3320720     0.1153760
  H       -0.7838570    -0.8897150     1.1288390
  H        0.0750270     1.1966100    -0.6451490
  H       -1.3515420    -1.3283180    -1.8408860
  H       -0.3238960    -2.3346980    -0.7915570
  H       -2.0788080    -2.2361410    -0.4923840
  H        2.5479870     0.9167430    -1.4288930
  H        2.3554820     1.7990610     0.0733550
  H        4.1782080    -0.6474400    -0.3069900
  H        4.7194550     1.0404130    -0.2050590
  H        3.9903360     0.2413970     1.2016820
  H       -2.8462050     2.0977190    -0.1239210
units angstrom
no_reorient  #important for SAPT in psi4, default
symmetry c1  #important for SAPT in psi4, default
}

set PROPERTIES_ORIGIN ["COM"]
properties('MP2/aug-cc-pvtz', properties = ['dipole'])
--------------------------------------------------------------------------

    Molecular point group: c1
  Charge       = 0
  Multiplicity = 1
  Basis Set: AUG-CC-PVTZ
    Blend: AUG-CC-PVTZ
  Basis Set: (AUG-CC-PVTZ AUX)
    Blend: AUG-CC-PVTZ-JKFIT

    Orbital Energies [Eh]
    ---------------------

    Doubly Occupied:

       1A    -20.628021     2A    -20.569478     3A    -20.524528
       4A    -15.592251     5A    -11.403433     6A    -11.356049
       7A    -11.297754     8A    -11.247158     9A    -11.227263
      10A    -11.219449    11A     -1.475044    12A     -1.381759
      13A     -1.378893    14A     -1.245623    15A     -1.076484
      16A     -1.037389    17A     -0.924654    18A     -0.884427
      19A     -0.812459    20A     -0.790815    21A     -0.730183
      22A     -0.713784    23A     -0.682648    24A     -0.665603
      25A     -0.640787    26A     -0.635199    27A     -0.612373
      28A     -0.604650    29A     -0.582626    30A     -0.555024
      31A     -0.535288    32A     -0.526325    33A     -0.520143
      34A     -0.518805    35A     -0.501475    36A     -0.490756
      37A     -0.467961    38A     -0.428070    39A     -0.400154

  @DF-RHF Final Energy:  -512.88195922595219

   => Energetics <=

    Nuclear Repulsion Energy =            548.0068473980848012
    One-Electron Energy =               -1788.0080436420494152
    Two-Electron Energy =                 727.1192370180124271
    Total Energy =                       -512.8819592259521869
  Basis Set: (AUG-CC-PVTZ AUX)
    Blend: AUG-CC-PVTZ-RI
    Molecular point group: c1

    Geometry (in Angstrom), charge = 0, multiplicity = 1:

       Center              X                  Y                   Z               Mass
    ------------   -----------------  -----------------  -----------------  -----------------
         O           -1.964535146558     1.662582951546    -0.181314844463    15.994914619570
         O            1.674876853442    -1.221204048454     0.647270155537    15.994914619570
         O           -3.285321146558    -0.046695048454     0.498348155537    15.994914619570
         N            0.220125853442     0.269539951546    -0.266392844463    14.003074004430
         C           -0.945024146558    -0.495811048454     0.121095155537    12.000000000000
         C           -1.240196446558    -1.662158548454    -0.823628444463    12.000000000000
         C            2.585044853442     0.808036951546    -0.334404844463    12.000000000000
         C            1.474301853442    -0.146951048454     0.074091155537    12.000000000000
         C           -2.208531346558     0.333960151546     0.154447555537    12.000000000000
         C            3.956716853442     0.333301951546     0.118861155537    12.000000000000
         H           -0.777804146558    -0.888485048454     1.132324155537     1.007825032230
         H            0.081079853442     1.197839951546    -0.641663844463     1.007825032230
         H           -1.345489146558    -1.327088048454    -1.837400844463     1.007825032230
         H           -0.317843146558    -2.333468048454    -0.788071844463     1.007825032230
         H           -2.072755146558    -2.234911048454    -0.488898844463     1.007825032230
         H            2.554039853442     0.917972951546    -1.425407844463     1.007825032230
         H            2.361534853442     1.800290951546     0.076840155537     1.007825032230
         H            4.184260853442    -0.646210048454    -0.303504844463     1.007825032230
         H            4.725507853442     1.041642951546    -0.201573844463     1.007825032230
         H            3.996388853442     0.242626951546     1.205167155537     1.007825032230
         H           -2.840152146558     2.098948951546    -0.120435844463     1.007825032230

  Basis Set: AUG-CC-PVTZ
    Blend: AUG-CC-PVTZ
  Basis Set: (AUG-CC-PVTZ AUX)
    Blend: AUG-CC-PVTZ-JKFIT
	 Reference Energy          =    -512.8819592259521869 [Eh]
	 Singles Energy            =      -0.0000000000000000 [Eh]
	 Same-Spin Energy          =      -0.5112220647014541 [Eh]
	 Opposite-Spin Energy      =      -1.6148379599962444 [Eh]
	 Correlation Energy        =      -2.1260600246976984 [Eh]
	 Total Energy              =    -515.0080192506499088 [Eh]

	 ================> DF-SCS-MP2 Energies <==================
	-----------------------------------------------------------
	 SCS Same-Spin Scale       =       0.3333333333333333 [-]
	 SCS Opposite-Spin Scale   =       1.2000000000000000 [-]
	 SCS Same-Spin Energy      =      -0.1704073549004847 [Eh]
	 SCS Opposite-Spin Energy  =      -1.9378055519954931 [Eh]
	 SCS Correlation Energy    =      -2.1082129068959778 [Eh]
	 SCS Total Energy          =    -514.9901721328482154 [Eh]
	-----------------------------------------------------------

  Dipole Moment: [D]
     X:    -0.1911      Y:     3.1661      Z:    -1.8398     Total:     3.6668

*** Psi4 exiting successfully. Buy a developer a beer!
