                               Psi4 1.3.2 release

  ==> Input File <==

--------------------------------------------------------------------------
#psi4
#
memory 32 gb

molecule  {
0 1
  O       -1.9705880     1.6613530    -0.1848000
  O        1.6688240    -1.2224340     0.6437850
  O       -3.2913740    -0.0479250     0.4948630
  N        0.2140730     0.2683100    -0.2698780
  C       -0.9510770    -0.4970410     0.1176100
  C       -1.1968270    -1.6816620    -0.8184860
  C        2.5789920     0.8068070    -0.3378900
  C        1.4726176    -0.1376378     0.0672028
  C       -2.1908320     0.3658730     0.1844680
  C        3.9506640     0.3320720     0.1153760
  H       -0.7838570    -0.8897150     1.1288390
  H        0.0836901     1.1981355    -0.6444816
  H       -1.3515420    -1.3283180    -1.8408860
  H       -0.3238960    -2.3346980    -0.7915570
  H       -2.0788080    -2.2361410    -0.4923840
  H        2.5479870     0.9167430    -1.4288930
  H        2.3554820     1.7990610     0.0733550
  H        4.1782080    -0.6474400    -0.3069900
  H        4.7194550     1.0404130    -0.2050590
  H        3.9903360     0.2413970     1.2016820
  H       -2.8462050     2.0977190    -0.1239210
units angstrom
no_reorient  #important for SAPT in psi4, default
symmetry c1  #important for SAPT in psi4, default
}

set PROPERTIES_ORIGIN ["COM"]
properties('MP2/aug-cc-pvtz', properties = ['dipole'])
--------------------------------------------------------------------------

    Molecular point group: c1
  Charge       = 0
  Multiplicity = 1
  Basis Set: AUG-CC-PVTZ
    Blend: AUG-CC-PVTZ
  Basis Set: (AUG-CC-PVTZ AUX)
    Blend: AUG-CC-PVTZ-JKFIT

    Orbital Energies [Eh]
    ---------------------

    Doubly Occupied:

       1A    -20.636515     2A    -20.564619     3A    -20.523113
       4A    -15.592372     5A    -11.405818     6A    -11.356492
       7A    -11.297644     8A    -11.247978     9A    -11.226786
      10A    -11.220171    11A     -1.478596    12A     -1.375111
      13A     -1.373447    14A     -1.244965    15A     -1.077247
      16A     -1.036749    17A     -0.928410    18A     -0.887729
      19A     -0.816991    20A     -0.791726    21A     -0.731482
      22A     -0.714711    23A     -0.682954    24A     -0.666192
      25A     -0.642199    26A     -0.633450    27A     -0.610642
      28A     -0.600882    29A     -0.580136    30A     -0.547385
      31A     -0.544059    32A     -0.525051    33A     -0.521022
      34A     -0.519748    35A     -0.497932    36A     -0.487089
      37A     -0.468285    38A     -0.428671    39A     -0.399361

  @DF-RHF Final Energy:  -512.88496118827322

   => Energetics <=

    Nuclear Repulsion Energy =            547.9415039992032916
    One-Electron Energy =               -1787.8854741151696999
    Two-Electron Energy =                 727.0590089276930712
    Total Energy =                       -512.8849611882732233
  Basis Set: (AUG-CC-PVTZ AUX)
    Blend: AUG-CC-PVTZ-RI
    Molecular point group: c1

    Geometry (in Angstrom), charge = 0, multiplicity = 1:

       Center              X                  Y                   Z               Mass
    ------------   -----------------  -----------------  -----------------  -----------------
         O           -1.971009420242     1.660470321697    -0.184523089669    15.994914619570
         O            1.668402579758    -1.223316678303     0.644061910331    15.994914619570
         O           -3.291795420242    -0.048807678303     0.495139910331    15.994914619570
         N            0.213651579758     0.267427321697    -0.269601089669    14.003074004430
         C           -0.951498420242    -0.497923678303     0.117886910331    12.000000000000
         C           -1.197248420242    -1.682544678303    -0.818209089669    12.000000000000
         C            2.578570579758     0.805924321697    -0.337613089669    12.000000000000
         C            1.472196179758    -0.138520478303     0.067479710331    12.000000000000
         C           -2.191253420242     0.364990321697     0.184744910331    12.000000000000
         C            3.950242579758     0.331189321697     0.115652910331    12.000000000000
         H           -0.784278420242    -0.890597678303     1.129115910331     1.007825032230
         H            0.083268679758     1.197252821697    -0.644204689669     1.007825032230
         H           -1.351963420242    -1.329200678303    -1.840609089669     1.007825032230
         H           -0.324317420242    -2.335580678303    -0.791280089669     1.007825032230
         H           -2.079229420242    -2.237023678303    -0.492107089669     1.007825032230
         H            2.547565579758     0.915860321697    -1.428616089669     1.007825032230
         H            2.355060579758     1.798178321697     0.073631910331     1.007825032230
         H            4.177786579758    -0.648322678303    -0.306713089669     1.007825032230
         H            4.719033579758     1.039530321697    -0.204782089669     1.007825032230
         H            3.989914579758     0.240514321697     1.201958910331     1.007825032230
         H           -2.846626420242     2.096836321697    -0.123644089669     1.007825032230

  Basis Set: AUG-CC-PVTZ
    Blend: AUG-CC-PVTZ
  Basis Set: (AUG-CC-PVTZ AUX)
    Blend: AUG-CC-PVTZ-JKFIT
	 Reference Energy          =    -512.8849611882732233 [Eh]
	 Singles Energy            =      -0.0000000000000000 [Eh]
	 Same-Spin Energy          =      -0.5115699781569168 [Eh]
	 Opposite-Spin Energy      =      -1.6154131456763519 [Eh]
	 Correlation Energy        =      -2.1269831238332686 [Eh]
	 Total Energy              =    -515.0119443121064933 [Eh]

	 ================> DF-SCS-MP2 Energies <==================
	-----------------------------------------------------------
	 SCS Same-Spin Scale       =       0.3333333333333333 [-]
	 SCS Opposite-Spin Scale   =       1.2000000000000000 [-]
	 SCS Same-Spin Energy      =      -0.1705233260523056 [Eh]
	 SCS Opposite-Spin Energy  =      -1.9384957748116221 [Eh]
	 SCS Correlation Energy    =      -2.1090191008639279 [Eh]
	 SCS Total Energy          =    -514.9939802891371983 [Eh]
	-----------------------------------------------------------

  Dipole Moment: [D]
     X:    -0.0725      Y:     3.4153      Z:    -1.8833     Total:     3.9008

*** Psi4 exiting successfully. Buy a developer a beer!
