                               Psi4 1.3.2 release

  ==> Input File <==

--------------------------------------------------------------------------
#psi4
#
memory 32 gb

molecule  {
0 1
  O       -1.9705880     1.6613530    -0.1848000
  O        1.6688240    -1.2224340     0.6437850
  O       -3.2913740    -0.0479250     0.4948630
  N        0.2140730     0.2683100    -0.2698780
  C       -0.9510770    -0.4970410     0.1176100
  C       -1.1968270    -1.6816620    -0.8184860
  C        2.5789920     0.8068070    -0.3378900
  C        1.4682490    -0.1481810     0.0706060
  C       -2.2813337     0.3318448     0.2099930
  C        3.9506640     0.3320720     0.1153760
  H       -0.7838570    -0.8897150     1.1288390
  H        0.0750270     1.1966100    -0.6451490
  H       -1.3515420    -1.3283180    -1.8408860
  H       -0.3238960    -2.3346980    -0.7915570
  H       -2.0788080    -2.2361410    -0.4923840
  H        2.5479870     0.9167430    -1.4288930
  H        2.3554820     1.7990610     0.0733550
  H        4.1782080    -0.6474400    -0.3069900
  H        4.7194550     1.0404130    -0.2050590
  H        3.9903360     0.2413970     1.2016820
  H       -2.8462050     2.0977190    -0.1239210
units angstrom
no_reorient  #important for SAPT in psi4, default
symmetry c1  #important for SAPT in psi4, default
}

set PROPERTIES_ORIGIN ["COM"]
properties('MP2/aug-cc-pvtz', properties = ['dipole'])
--------------------------------------------------------------------------

    Molecular point group: c1
  Charge       = 0
  Multiplicity = 1
  Basis Set: AUG-CC-PVTZ
    Blend: AUG-CC-PVTZ
  Basis Set: (AUG-CC-PVTZ AUX)
    Blend: AUG-CC-PVTZ-JKFIT

    Orbital Energies [Eh]
    ---------------------

    Doubly Occupied:

       1A    -20.618146     2A    -20.583207     3A    -20.521205
       4A    -15.587844     5A    -11.396598     6A    -11.352797
       7A    -11.293811     8A    -11.244768     9A    -11.223917
      10A    -11.217642    11A     -1.510987    12A     -1.394500
      13A     -1.376726    14A     -1.239329    15A     -1.069214
      16A     -1.030223    17A     -0.915280    18A     -0.878011
      19A     -0.801667    20A     -0.787393    21A     -0.732727
      22A     -0.725105    23A     -0.680223    24A     -0.669374
      25A     -0.647006    26A     -0.639036    27A     -0.615242
      28A     -0.600603    29A     -0.578307    30A     -0.550293
      31A     -0.543907    32A     -0.526299    33A     -0.521987
      34A     -0.518057    35A     -0.513647    36A     -0.488957
      37A     -0.459677    38A     -0.425120    39A     -0.395808

  @DF-RHF Final Energy:  -512.87356461656714

   => Energetics <=

    Nuclear Repulsion Energy =            547.8446987357574471
    One-Electron Energy =               -1787.6872495666862051
    Two-Electron Energy =                 726.9689862143616210
    Total Energy =                       -512.8735646165671369
  Basis Set: (AUG-CC-PVTZ AUX)
    Blend: AUG-CC-PVTZ-RI
    Molecular point group: c1

    Geometry (in Angstrom), charge = 0, multiplicity = 1:

       Center              X                  Y                   Z               Mass
    ------------   -----------------  -----------------  -----------------  -----------------
         O           -1.963101901779     1.664167708078    -0.186911291777    15.994914619570
         O            1.676310098221    -1.219619291922     0.641673708223    15.994914619570
         O           -3.283887901779    -0.045110291922     0.492751708223    15.994914619570
         N            0.221559098221     0.271124708078    -0.271989291777    14.003074004430
         C           -0.943590901779    -0.494226291922     0.115498708223    12.000000000000
         C           -1.189340901779    -1.678847291922    -0.820597291777    12.000000000000
         C            2.586478098221     0.809621708078    -0.340001291777    12.000000000000
         C            1.475735098221    -0.145366291922     0.068494708223    12.000000000000
         C           -2.273847601779     0.334659508078     0.207881708223    12.000000000000
         C            3.958150098221     0.334886708078     0.113264708223    12.000000000000
         H           -0.776370901779    -0.886900291922     1.126727708223     1.007825032230
         H            0.082513098221     1.199424708078    -0.647260291777     1.007825032230
         H           -1.344055901779    -1.325503291922    -1.842997291777     1.007825032230
         H           -0.316409901779    -2.331883291922    -0.793668291777     1.007825032230
         H           -2.071321901779    -2.233326291922    -0.494495291777     1.007825032230
         H            2.555473098221     0.919557708078    -1.431004291777     1.007825032230
         H            2.362968098221     1.801875708078     0.071243708223     1.007825032230
         H            4.185694098221    -0.644625291922    -0.309101291777     1.007825032230
         H            4.726941098221     1.043227708078    -0.207170291777     1.007825032230
         H            3.997822098221     0.244211708078     1.199570708223     1.007825032230
         H           -2.838718901779     2.100533708078    -0.126032291777     1.007825032230

  Basis Set: AUG-CC-PVTZ
    Blend: AUG-CC-PVTZ
  Basis Set: (AUG-CC-PVTZ AUX)
    Blend: AUG-CC-PVTZ-JKFIT
	 Reference Energy          =    -512.8735646165671369 [Eh]
	 Singles Energy            =      -0.0000000000000000 [Eh]
	 Same-Spin Energy          =      -0.5096445374628187 [Eh]
	 Opposite-Spin Energy      =      -1.6119592505388431 [Eh]
	 Correlation Energy        =      -2.1216037880016616 [Eh]
	 Total Energy              =    -514.9951684045687443 [Eh]

	 ================> DF-SCS-MP2 Energies <==================
	-----------------------------------------------------------
	 SCS Same-Spin Scale       =       0.3333333333333333 [-]
	 SCS Opposite-Spin Scale   =       1.2000000000000000 [-]
	 SCS Same-Spin Energy      =      -0.1698815124876062 [Eh]
	 SCS Opposite-Spin Energy  =      -1.9343511006466116 [Eh]
	 SCS Correlation Energy    =      -2.1042326131342177 [Eh]
	 SCS Total Energy          =    -514.9777972297013093 [Eh]
	-----------------------------------------------------------

  Dipole Moment: [D]
     X:    -0.7384      Y:     3.0179      Z:    -1.6283     Total:     3.5078

*** Psi4 exiting successfully. Buy a developer a beer!
