                               Psi4 1.3.2 release

  ==> Input File <==

--------------------------------------------------------------------------
#psi4
#
memory 32 gb

molecule  {
0 1
  O       -1.9705880     1.6613530    -0.1848000
  O        1.6688240    -1.2224340     0.6437850
  O       -3.2913740    -0.0479250     0.4948630
  N        0.2140730     0.2683100    -0.2698780
  C       -0.9510770    -0.4970410     0.1176100
  C       -1.1968270    -1.6816620    -0.8184860
  C        2.5789920     0.8068070    -0.3378900
  C        1.4682490    -0.1481810     0.0706060
  C       -2.1003303     0.3999012     0.1589430
  C        3.9506640     0.3320720     0.1153760
  H       -0.7838570    -0.8897150     1.1288390
  H        0.0750270     1.1966100    -0.6451490
  H       -1.3515420    -1.3283180    -1.8408860
  H       -0.3238960    -2.3346980    -0.7915570
  H       -2.0788080    -2.2361410    -0.4923840
  H        2.5479870     0.9167430    -1.4288930
  H        2.3554820     1.7990610     0.0733550
  H        4.1782080    -0.6474400    -0.3069900
  H        4.7194550     1.0404130    -0.2050590
  H        3.9903360     0.2413970     1.2016820
  H       -2.8462050     2.0977190    -0.1239210
units angstrom
no_reorient  #important for SAPT in psi4, default
symmetry c1  #important for SAPT in psi4, default
}

set PROPERTIES_ORIGIN ["COM"]
properties('MP2/aug-cc-pvtz', properties = ['dipole'])
--------------------------------------------------------------------------

    Molecular point group: c1
  Charge       = 0
  Multiplicity = 1
  Basis Set: AUG-CC-PVTZ
    Blend: AUG-CC-PVTZ
  Basis Set: (AUG-CC-PVTZ AUX)
    Blend: AUG-CC-PVTZ-JKFIT

    Orbital Energies [Eh]
    ---------------------

    Doubly Occupied:

       1A    -20.653010     2A    -20.545375     3A    -20.527914
       4A    -15.595083     5A    -11.413016     6A    -11.358783
       7A    -11.300049     8A    -11.249598     9A    -11.230100
      10A    -11.221400    11A     -1.495018    12A     -1.383887
      13A     -1.316521    14A     -1.253066    15A     -1.082621
      16A     -1.040737    17A     -0.943029    18A     -0.891709
      19A     -0.835328    20A     -0.798711    21A     -0.736888
      22A     -0.715143    23A     -0.687309    24A     -0.670668
      25A     -0.644320    26A     -0.635405    27A     -0.607103
      28A     -0.590035    29A     -0.582825    30A     -0.549799
      31A     -0.543883    32A     -0.525454    33A     -0.522613
      34A     -0.521862    35A     -0.495311    36A     -0.462843
      37A     -0.457018    38A     -0.430632    39A     -0.403407

  @DF-RHF Final Energy:  -512.86354023567412

   => Energetics <=

    Nuclear Repulsion Energy =            548.5079068407235354
    One-Electron Energy =               -1788.9079517133611716
    Two-Electron Energy =                 727.5365046369635138
    Total Energy =                       -512.8635402356741224
  Basis Set: (AUG-CC-PVTZ AUX)
    Blend: AUG-CC-PVTZ-RI
    Molecular point group: c1

    Geometry (in Angstrom), charge = 0, multiplicity = 1:

       Center              X                  Y                   Z               Mass
    ------------   -----------------  -----------------  -----------------  -----------------
         O           -1.978073863666     1.658538323067    -0.182688616102    15.994914619570
         O            1.661338136334    -1.225248676933     0.645896383898    15.994914619570
         O           -3.298859863666    -0.050739676933     0.496974383898    15.994914619570
         N            0.206587136334     0.265495323067    -0.267766616102    14.003074004430
         C           -0.958562863666    -0.499855676933     0.119721383898    12.000000000000
         C           -1.204312863666    -1.684476676933    -0.816374616102    12.000000000000
         C            2.571506136334     0.803992323067    -0.335778616102    12.000000000000
         C            1.460763136334    -0.150995676933     0.072717383898    12.000000000000
         C           -2.107816163666     0.397086523067     0.161054383898    12.000000000000
         C            3.943178136334     0.329257323067     0.117487383898    12.000000000000
         H           -0.791342863666    -0.892529676933     1.130950383898     1.007825032230
         H            0.067541136334     1.193795323067    -0.643037616102     1.007825032230
         H           -1.359027863666    -1.331132676933    -1.838774616102     1.007825032230
         H           -0.331381863666    -2.337512676933    -0.789445616102     1.007825032230
         H           -2.086293863666    -2.238955676933    -0.490272616102     1.007825032230
         H            2.540501136334     0.913928323067    -1.426781616102     1.007825032230
         H            2.347996136334     1.796246323067     0.075466383898     1.007825032230
         H            4.170722136334    -0.650254676933    -0.304878616102     1.007825032230
         H            4.711969136334     1.037598323067    -0.202947616102     1.007825032230
         H            3.982850136334     0.238582323067     1.203793383898     1.007825032230
         H           -2.853690863666     2.094904323067    -0.121809616102     1.007825032230

  Basis Set: AUG-CC-PVTZ
    Blend: AUG-CC-PVTZ
  Basis Set: (AUG-CC-PVTZ AUX)
    Blend: AUG-CC-PVTZ-JKFIT
	 Reference Energy          =    -512.8635402356741224 [Eh]
	 Singles Energy            =      -0.0000000000000000 [Eh]
	 Same-Spin Energy          =      -0.5134762893769216 [Eh]
	 Opposite-Spin Energy      =      -1.6186881017985382 [Eh]
	 Correlation Energy        =      -2.1321643911754595 [Eh]
	 Total Energy              =    -514.9957046268496015 [Eh]

	 ================> DF-SCS-MP2 Energies <==================
	-----------------------------------------------------------
	 SCS Same-Spin Scale       =       0.3333333333333333 [-]
	 SCS Opposite-Spin Scale   =       1.2000000000000000 [-]
	 SCS Same-Spin Energy      =      -0.1711587631256405 [Eh]
	 SCS Opposite-Spin Energy  =      -1.9424257221582457 [Eh]
	 SCS Correlation Energy    =      -2.1135844852838863 [Eh]
	 SCS Total Energy          =    -514.9771247209580451 [Eh]
	-----------------------------------------------------------

  Dipole Moment: [D]
     X:     0.4736      Y:     3.6637      Z:    -2.0621     Total:     4.2308

*** Psi4 exiting successfully. Buy a developer a beer!
