                               Psi4 1.4a3.dev225

  ==> Input File <==

--------------------------------------------------------------------------
#psi4
#
memory 32 gb

molecule  {
0 1
  O       -2.1439760    -1.5096120     0.4578230
  O        1.6019480     1.2946100    -0.5777250
  O       -3.1849820    -0.0999640    -0.9818910
  N        0.1649120    -0.2715720     0.2333030
  C       -1.0051050     0.5087660    -0.1211110
  C       -1.3212480     1.5963590     0.9125160
  C        2.5597860    -0.6480590     0.5035240
  C        1.4559287     0.1877904     0.0127948
  C       -2.2159370    -0.3767160    -0.3010400
  C        3.7806550    -0.5458820    -0.4040570
  H       -0.8075500     0.9861290    -1.0847450
  H        0.0342290    -1.1271740     0.7572540
  H       -1.5188550     1.1449870     1.8886910
  H       -0.4592110     2.2615650     0.9886780
  H       -2.1947650     2.1753270     0.6002850
  H        2.8115640    -0.2961200     1.5118980
  H        2.2315720    -1.6889350     0.6045970
  H        4.0689510     0.4992230    -0.5227640
  H        4.6219880    -1.1034150     0.0157220
  H        3.5611410    -0.9492480    -1.3958190
  H       -2.9864200    -1.9858630     0.3018850
units angstrom
no_reorient  #important for SAPT in psi4, default
symmetry c1  #important for SAPT in psi4, default
}

set PROPERTIES_ORIGIN ["COM"]
properties('MP2/aug-cc-pvtz', properties = ['dipole'])
--------------------------------------------------------------------------

    Molecular point group: c1
  Charge       = 0
  Multiplicity = 1
  Basis Set: AUG-CC-PVTZ
    Blend: AUG-CC-PVTZ
  Basis Set: (AUG-CC-PVTZ AUX)
    Blend: AUG-CC-PVTZ-JKFIT

    Orbital Energies [Eh]
    ---------------------

    Doubly Occupied:

       1A    -20.633172     2A    -20.564181     3A    -20.521185
       4A    -15.594809     5A    -11.403016     6A    -11.361319
       7A    -11.295642     8A    -11.250269     9A    -11.231809
      10A    -11.225227    11A     -1.475303    12A     -1.371699
      13A     -1.363995    14A     -1.236618    15A     -1.083252
      16A     -1.039307    17A     -0.927961    18A     -0.893777
      19A     -0.820222    20A     -0.788143    21A     -0.727400
      22A     -0.713159    23A     -0.683503    24A     -0.660300
      25A     -0.644053    26A     -0.629229    27A     -0.608956
      28A     -0.597948    29A     -0.587614    30A     -0.551163
      31A     -0.540017    32A     -0.536786    33A     -0.524495
      34A     -0.515128    35A     -0.497406    36A     -0.484305
      37A     -0.467101    38A     -0.430773    39A     -0.395807

  @DF-RHF Final Energy:  -512.87982004689172

   => Energetics <=

    Nuclear Repulsion Energy =            547.3047425182880943
    One-Electron Energy =               -1786.6170295065187474
    Two-Electron Energy =                 726.4324669413389302
    Total Energy =                       -512.8798200468917230
  Basis Set: (AUG-CC-PVTZ AUX)
    Blend: AUG-CC-PVTZ-RI
    Molecular point group: c1

    Geometry (in Angstrom), charge = 0, multiplicity = 1:

       Center              X                  Y                   Z               Mass
    ------------   -----------------  -----------------  -----------------  -----------------
         O           -2.083185817774    -1.507835154671     0.481467764975    15.994914619570
         O            1.662738182226     1.296386845329    -0.554080235025    15.994914619570
         O           -3.124191817774    -0.098187154671    -0.958246235025    15.994914619570
         N            0.225702182226    -0.269795154671     0.256947764975    14.003074004430
         C           -0.944314817774     0.510542845329    -0.097466235025    12.000000000000
         C           -1.260457817774     1.598135845329     0.936160764975    12.000000000000
         C            2.620576182226    -0.646282154671     0.527168764975    12.000000000000
         C            1.516718882226     0.189567245329     0.036439564975    12.000000000000
         C           -2.155146817774    -0.374939154671    -0.277395235025    12.000000000000
         C            3.841445182226    -0.544105154671    -0.380412235025    12.000000000000
         H           -0.746759817774     0.987905845329    -1.061100235025     1.007825032230
         H            0.095019182226    -1.125397154671     0.780898764975     1.007825032230
         H           -1.458064817774     1.146763845329     1.912335764975     1.007825032230
         H           -0.398420817774     2.263341845329     1.012322764975     1.007825032230
         H           -2.133974817774     2.177103845329     0.623929764975     1.007825032230
         H            2.872354182226    -0.294343154671     1.535542764975     1.007825032230
         H            2.292362182226    -1.687158154671     0.628241764975     1.007825032230
         H            4.129741182226     0.500999845329    -0.499119235025     1.007825032230
         H            4.682778182226    -1.101638154671     0.039366764975     1.007825032230
         H            3.621931182226    -0.947471154671    -1.372174235025     1.007825032230
         H           -2.925629817774    -1.984086154671     0.325529764975     1.007825032230

  Basis Set: AUG-CC-PVTZ
    Blend: AUG-CC-PVTZ
  Basis Set: (AUG-CC-PVTZ AUX)
    Blend: AUG-CC-PVTZ-JKFIT
	 Reference Energy          =    -512.8798200468917230 [Eh]
	 Singles Energy            =      -0.0000000000000000 [Eh]
	 Same-Spin Energy          =      -0.5121754807352386 [Eh]
	 Opposite-Spin Energy      =      -1.6169815234684639 [Eh]
	 Correlation Energy        =      -2.1291570042037025 [Eh]
	 Total Energy              =    -515.0089770510953713 [Eh]

	 ================> DF-SCS-MP2 Energies <==================
	-----------------------------------------------------------
	 SCS Same-Spin Scale       =       0.3333333333333333 [-]
	 SCS Opposite-Spin Scale   =       1.2000000000000000 [-]
	 SCS Same-Spin Energy      =      -0.1707251602450795 [Eh]
	 SCS Opposite-Spin Energy  =      -1.9403778281621566 [Eh]
	 SCS Correlation Energy    =      -2.1111029884072363 [Eh]
	 SCS Total Energy          =    -514.9909230352989198 [Eh]
	-----------------------------------------------------------

  Dipole Moment: [D]
     X:     0.0164      Y:    -3.1580      Z:     2.7076     Total:     4.1598

*** Psi4 exiting successfully. Buy a developer a beer!
