                               Psi4 1.3.2 release

  ==> Input File <==

--------------------------------------------------------------------------
#psi4
#
memory 32 gb

molecule  {
0 1
  O       -1.9705880     1.6613530    -0.1848000
  O        1.6050847    -1.2329284     0.6427799
  O       -3.2913740    -0.0479250     0.4948630
  N        0.1883648     0.2080250    -0.2414282
  C       -0.9510770    -0.4970410     0.1176100
  C       -1.1968270    -1.6816620    -0.8184860
  C        2.5789920     0.8068070    -0.3378900
  C        1.4682490    -0.1481810     0.0706060
  C       -2.1908320     0.3658730     0.1844680
  C        3.9506640     0.3320720     0.1153760
  H       -0.7838570    -0.8897150     1.1288390
  H        0.0750270     1.1966100    -0.6451490
  H       -1.3515420    -1.3283180    -1.8408860
  H       -0.3238960    -2.3346980    -0.7915570
  H       -2.0788080    -2.2361410    -0.4923840
  H        2.5479870     0.9167430    -1.4288930
  H        2.3554820     1.7990610     0.0733550
  H        4.1782080    -0.6474400    -0.3069900
  H        4.7194550     1.0404130    -0.2050590
  H        3.9903360     0.2413970     1.2016820
  H       -2.8462050     2.0977190    -0.1239210
units angstrom
no_reorient  #important for SAPT in psi4, default
symmetry c1  #important for SAPT in psi4, default
}

set PROPERTIES_ORIGIN ["COM"]
properties('MP2/aug-cc-pvtz', properties = ['dipole'])
--------------------------------------------------------------------------

    Molecular point group: c1
  Charge       = 0
  Multiplicity = 1
  Basis Set: AUG-CC-PVTZ
    Blend: AUG-CC-PVTZ
  Basis Set: (AUG-CC-PVTZ AUX)
    Blend: AUG-CC-PVTZ-JKFIT

    Orbital Energies [Eh]
    ---------------------

    Doubly Occupied:

       1A    -20.635049     2A    -20.562706     3A    -20.521009
       4A    -15.590283     5A    -11.404004     6A    -11.355979
       7A    -11.290133     8A    -11.254386     9A    -11.224128
      10A    -11.222481    11A     -1.477058    12A     -1.383563
      13A     -1.372036    14A     -1.247497    15A     -1.077254
      16A     -1.034672    17A     -0.927692    18A     -0.889999
      19A     -0.816962    20A     -0.782418    21A     -0.735737
      22A     -0.710482    23A     -0.687800    24A     -0.664253
      25A     -0.643684    26A     -0.632193    27A     -0.609687
      28A     -0.599429    29A     -0.578658    30A     -0.546044
      31A     -0.543355    32A     -0.528753    33A     -0.523725
      34A     -0.519702    35A     -0.498533    36A     -0.487660
      37A     -0.466123    38A     -0.428810    39A     -0.391008

  @DF-RHF Final Energy:  -512.87528669541473

   => Energetics <=

    Nuclear Repulsion Energy =            549.3591232623221003
    One-Electron Energy =               -1790.7389310715766442
    Two-Electron Energy =                 728.5045211138398145
    Total Energy =                       -512.8752866954147294
  Basis Set: (AUG-CC-PVTZ AUX)
    Blend: AUG-CC-PVTZ-RI
    Molecular point group: c1

    Geometry (in Angstrom), charge = 0, multiplicity = 1:

       Center              X                  Y                   Z               Mass
    ------------   -----------------  -----------------  -----------------  -----------------
         O           -1.961078945877     1.668328993992    -0.187435219029    15.994914619570
         O            1.614593754123    -1.225952406008     0.640144680971    15.994914619570
         O           -3.281864945877    -0.040949006008     0.492227780971    15.994914619570
         N            0.197873854123     0.215000993992    -0.244063419029    14.003074004430
         C           -0.941567945877    -0.490065006008     0.114974780971    12.000000000000
         C           -1.187317945877    -1.674686006008    -0.821121219029    12.000000000000
         C            2.588501054123     0.813782993992    -0.340525219029    12.000000000000
         C            1.477758054123    -0.141205006008     0.067970780971    12.000000000000
         C           -2.181322945877     0.372848993992     0.181832780971    12.000000000000
         C            3.960173054123     0.339047993992     0.112740780971    12.000000000000
         H           -0.774347945877    -0.882739006008     1.126203780971     1.007825032230
         H            0.084536054123     1.203585993992    -0.647784219029     1.007825032230
         H           -1.342032945877    -1.321342006008    -1.843521219029     1.007825032230
         H           -0.314386945877    -2.327722006008    -0.794192219029     1.007825032230
         H           -2.069298945877    -2.229165006008    -0.495019219029     1.007825032230
         H            2.557496054123     0.923718993992    -1.431528219029     1.007825032230
         H            2.364991054123     1.806036993992     0.070719780971     1.007825032230
         H            4.187717054123    -0.640464006008    -0.309625219029     1.007825032230
         H            4.728964054123     1.047388993992    -0.207694219029     1.007825032230
         H            3.999845054123     0.248372993992     1.199046780971     1.007825032230
         H           -2.836695945877     2.104694993992    -0.126556219029     1.007825032230

  Basis Set: AUG-CC-PVTZ
    Blend: AUG-CC-PVTZ
  Basis Set: (AUG-CC-PVTZ AUX)
    Blend: AUG-CC-PVTZ-JKFIT
	 Reference Energy          =    -512.8752866954147294 [Eh]
	 Singles Energy            =      -0.0000000000000000 [Eh]
	 Same-Spin Energy          =      -0.5124045947564750 [Eh]
	 Opposite-Spin Energy      =      -1.6163474011551844 [Eh]
	 Correlation Energy        =      -2.1287519959116592 [Eh]
	 Total Energy              =    -515.0040386913264001 [Eh]

	 ================> DF-SCS-MP2 Energies <==================
	-----------------------------------------------------------
	 SCS Same-Spin Scale       =       0.3333333333333333 [-]
	 SCS Opposite-Spin Scale   =       1.2000000000000000 [-]
	 SCS Same-Spin Energy      =      -0.1708015315854917 [Eh]
	 SCS Opposite-Spin Energy  =      -1.9396168813862211 [Eh]
	 SCS Correlation Energy    =      -2.1104184129717130 [Eh]
	 SCS Total Energy          =    -514.9857051083864690 [Eh]
	-----------------------------------------------------------

  Dipole Moment: [D]
     X:     0.2655      Y:     3.5504      Z:    -1.8963     Total:     4.0338

*** Psi4 exiting successfully. Buy a developer a beer!
