                               Psi4 1.3.2 release

  ==> Input File <==

--------------------------------------------------------------------------
#psi4
#
memory 32 gb

molecule  {
0 1
  O       -1.9474981     1.6563408    -0.1878438
  O        1.6688240    -1.2224340     0.6437850
  O       -3.2830089    -0.0671484     0.4981694
  N        0.2140730     0.2683100    -0.2698780
  C       -0.9510770    -0.4970410     0.1176100
  C       -1.1968270    -1.6816620    -0.8184860
  C        2.5789920     0.8068070    -0.3378900
  C        1.4682490    -0.1481810     0.0706060
  C       -2.1908320     0.3658730     0.1844680
  C        3.9506640     0.3320720     0.1153760
  H       -0.7838570    -0.8897150     1.1288390
  H        0.0750270     1.1966100    -0.6451490
  H       -1.3515420    -1.3283180    -1.8408860
  H       -0.3238960    -2.3346980    -0.7915570
  H       -2.0788080    -2.2361410    -0.4923840
  H        2.5479870     0.9167430    -1.4288930
  H        2.3554820     1.7990610     0.0733550
  H        4.1782080    -0.6474400    -0.3069900
  H        4.7194550     1.0404130    -0.2050590
  H        3.9903360     0.2413970     1.2016820
  H       -2.8462050     2.0977190    -0.1239210
units angstrom
no_reorient  #important for SAPT in psi4, default
symmetry c1  #important for SAPT in psi4, default
}

set PROPERTIES_ORIGIN ["COM"]
properties('MP2/aug-cc-pvtz', properties = ['dipole'])
--------------------------------------------------------------------------

    Molecular point group: c1
  Charge       = 0
  Multiplicity = 1
  Basis Set: AUG-CC-PVTZ
    Blend: AUG-CC-PVTZ
  Basis Set: (AUG-CC-PVTZ AUX)
    Blend: AUG-CC-PVTZ-JKFIT

    Orbital Energies [Eh]
    ---------------------

    Doubly Occupied:

       1A    -20.641415     2A    -20.566086     3A    -20.523791
       4A    -15.590401     5A    -11.406067     6A    -11.355058
       7A    -11.294976     8A    -11.246741     9A    -11.225762
      10A    -11.219175    11A     -1.476855    12A     -1.379791
      13A     -1.375479    14A     -1.244856    15A     -1.074468
      16A     -1.034792    17A     -0.926463    18A     -0.884790
      19A     -0.813324    20A     -0.792234    21A     -0.730491
      22A     -0.714473    23A     -0.682095    24A     -0.665905
      25A     -0.641117    26A     -0.634179    27A     -0.610390
      28A     -0.601956    29A     -0.579974    30A     -0.546404
      31A     -0.544079    32A     -0.523753    33A     -0.520798
      34A     -0.519346    35A     -0.498491    36A     -0.488428
      37A     -0.468159    38A     -0.427420    39A     -0.399096

  @DF-RHF Final Energy:  -512.88312498394703

   => Energetics <=

    Nuclear Repulsion Energy =            548.2960776506903358
    One-Electron Energy =               -1788.6202459692742650
    Two-Electron Energy =                 727.4410433346367881
    Total Energy =                       -512.8831249839470274
  Basis Set: (AUG-CC-PVTZ AUX)
    Blend: AUG-CC-PVTZ-RI
    Molecular point group: c1

    Geometry (in Angstrom), charge = 0, multiplicity = 1:

       Center              X                  Y                   Z               Mass
    ------------   -----------------  -----------------  -----------------  -----------------
         O           -1.950966008762     1.659012876990    -0.187872706527    15.994914619570
         O            1.665356091238    -1.219761923010     0.643756093473    15.994914619570
         O           -3.286476808762    -0.064476323010     0.498140493473    15.994914619570
         N            0.210605091238     0.270982076990    -0.269906906527    14.003074004430
         C           -0.954544908762    -0.494368923010     0.117581093473    12.000000000000
         C           -1.200294908762    -1.678989923010    -0.818514906527    12.000000000000
         C            2.575524091238     0.809479076990    -0.337918906527    12.000000000000
         C            1.464781091238    -0.145508923010     0.070577093473    12.000000000000
         C           -2.194299908762     0.368545076990     0.184439093473    12.000000000000
         C            3.947196091238     0.334744076990     0.115347093473    12.000000000000
         H           -0.787324908762    -0.887042923010     1.128810093473     1.007825032230
         H            0.071559091238     1.199282076990    -0.645177906527     1.007825032230
         H           -1.355009908762    -1.325645923010    -1.840914906527     1.007825032230
         H           -0.327363908762    -2.332025923010    -0.791585906527     1.007825032230
         H           -2.082275908762    -2.233468923010    -0.492412906527     1.007825032230
         H            2.544519091238     0.919415076990    -1.428921906527     1.007825032230
         H            2.352014091238     1.801733076990     0.073326093473     1.007825032230
         H            4.174740091238    -0.644767923010    -0.307018906527     1.007825032230
         H            4.715987091238     1.043085076990    -0.205087906527     1.007825032230
         H            3.986868091238     0.244069076990     1.201653093473     1.007825032230
         H           -2.849672908762     2.100391076990    -0.123949906527     1.007825032230

  Basis Set: AUG-CC-PVTZ
    Blend: AUG-CC-PVTZ
  Basis Set: (AUG-CC-PVTZ AUX)
    Blend: AUG-CC-PVTZ-JKFIT
	 Reference Energy          =    -512.8831249839470274 [Eh]
	 Singles Energy            =      -0.0000000000000000 [Eh]
	 Same-Spin Energy          =      -0.5118964877965479 [Eh]
	 Opposite-Spin Energy      =      -1.6160964398455033 [Eh]
	 Correlation Energy        =      -2.1279929276420511 [Eh]
	 Total Energy              =    -515.0111179115890536 [Eh]

	 ================> DF-SCS-MP2 Energies <==================
	-----------------------------------------------------------
	 SCS Same-Spin Scale       =       0.3333333333333333 [-]
	 SCS Opposite-Spin Scale   =       1.2000000000000000 [-]
	 SCS Same-Spin Energy      =      -0.1706321625988493 [Eh]
	 SCS Opposite-Spin Energy  =      -1.9393157278146038 [Eh]
	 SCS Correlation Energy    =      -2.1099478904134532 [Eh]
	 SCS Total Energy          =    -514.9930728743604504 [Eh]
	-----------------------------------------------------------

  Dipole Moment: [D]
     X:    -0.1869      Y:     3.4506      Z:    -1.8583     Total:     3.9236

*** Psi4 exiting successfully. Buy a developer a beer!
