                               Psi4 1.4a3.dev225

  ==> Input File <==

--------------------------------------------------------------------------
#psi4
#
memory 32 gb

molecule  {
0 1
  O       -2.1439760    -1.5096120     0.4578230
  O        1.6019480     1.2946100    -0.5777250
  O       -3.1849820    -0.0999640    -0.9818910
  N        0.1649120    -0.2715720     0.2333030
  C       -1.0051050     0.5087660    -0.1211110
  C       -1.3212480     1.5963590     0.9125160
  C        2.5597860    -0.6480590     0.5035240
  C        1.4257883     0.2598897    -0.0271347
  C       -2.2159370    -0.3767160    -0.3010400
  C        3.7806550    -0.5458820    -0.4040570
  H       -0.8075500     0.9861290    -1.0847450
  H        0.0342290    -1.1271740     0.7572540
  H       -1.5188550     1.1449870     1.8886910
  H       -0.4592110     2.2615650     0.9886780
  H       -2.1947650     2.1753270     0.6002850
  H        2.8115640    -0.2961200     1.5118980
  H        2.2315720    -1.6889350     0.6045970
  H        4.0689510     0.4992230    -0.5227640
  H        4.6219880    -1.1034150     0.0157220
  H        3.5611410    -0.9492480    -1.3958190
  H       -2.9864200    -1.9858630     0.3018850
units angstrom
no_reorient  #important for SAPT in psi4, default
symmetry c1  #important for SAPT in psi4, default
}

set PROPERTIES_ORIGIN ["COM"]
properties('MP2/aug-cc-pvtz', properties = ['dipole'])
--------------------------------------------------------------------------

    Molecular point group: c1
  Charge       = 0
  Multiplicity = 1
  Basis Set: AUG-CC-PVTZ
    Blend: AUG-CC-PVTZ
  Basis Set: (AUG-CC-PVTZ AUX)
    Blend: AUG-CC-PVTZ-JKFIT

    Orbital Energies [Eh]
    ---------------------

    Doubly Occupied:

       1A    -20.632406     2A    -20.563120     3A    -20.533209
       4A    -15.588137     5A    -11.401646     6A    -11.355732
       7A    -11.293063     8A    -11.245920     9A    -11.231979
      10A    -11.221068    11A     -1.474401    12A     -1.412854
      13A     -1.370726    14A     -1.241504    15A     -1.070283
      16A     -1.033174    17A     -0.925358    18A     -0.880767
      19A     -0.819202    20A     -0.789733    21A     -0.725165
      22A     -0.712960    23A     -0.683505    24A     -0.659135
      25A     -0.643422    26A     -0.632197    27A     -0.610384
      28A     -0.605865    29A     -0.595619    30A     -0.551936
      31A     -0.544371    32A     -0.534203    33A     -0.526533
      34A     -0.515064    35A     -0.498157    36A     -0.491150
      37A     -0.468920    38A     -0.426541    39A     -0.400365

  @DF-RHF Final Energy:  -512.88589142502451

   => Energetics <=

    Nuclear Repulsion Energy =            547.9357335040085673
    One-Electron Energy =               -1787.8237010991167608
    Two-Electron Energy =                 727.0020761700836829
    Total Energy =                       -512.8858914250245107
  Basis Set: (AUG-CC-PVTZ AUX)
    Blend: AUG-CC-PVTZ-RI
    Molecular point group: c1

    Geometry (in Angstrom), charge = 0, multiplicity = 1:

       Center              X                  Y                   Z               Mass
    ------------   -----------------  -----------------  -----------------  -----------------
         O           -2.080692710351    -1.513798954089     0.484770592172    15.994914619570
         O            1.665231289649     1.290423045911    -0.550777407828    15.994914619570
         O           -3.121698710351    -0.104150954089    -0.954943407828    15.994914619570
         N            0.228195289649    -0.275758954089     0.260250592172    14.003074004430
         C           -0.941821710351     0.504579045911    -0.094163407828    12.000000000000
         C           -1.257964710351     1.592172045911     0.939463592172    12.000000000000
         C            2.623069289649    -0.652245954089     0.530471592172    12.000000000000
         C            1.489071589649     0.255702745911    -0.000187107828    12.000000000000
         C           -2.152653710351    -0.380902954089    -0.274092407828    12.000000000000
         C            3.843938289649    -0.550068954089    -0.377109407828    12.000000000000
         H           -0.744266710351     0.981942045911    -1.057797407828     1.007825032230
         H            0.097512289649    -1.131360954089     0.784201592172     1.007825032230
         H           -1.455571710351     1.140800045911     1.915638592172     1.007825032230
         H           -0.395927710351     2.257378045911     1.015625592172     1.007825032230
         H           -2.131481710351     2.171140045911     0.627232592172     1.007825032230
         H            2.874847289649    -0.300306954089     1.538845592172     1.007825032230
         H            2.294855289649    -1.693121954089     0.631544592172     1.007825032230
         H            4.132234289649     0.495036045911    -0.495816407828     1.007825032230
         H            4.685271289649    -1.107601954089     0.042669592172     1.007825032230
         H            3.624424289649    -0.953434954089    -1.368871407828     1.007825032230
         H           -2.923136710351    -1.990049954089     0.328832592172     1.007825032230

  Basis Set: AUG-CC-PVTZ
    Blend: AUG-CC-PVTZ
  Basis Set: (AUG-CC-PVTZ AUX)
    Blend: AUG-CC-PVTZ-JKFIT
	 Reference Energy          =    -512.8858914250245107 [Eh]
	 Singles Energy            =      -0.0000000000000000 [Eh]
	 Same-Spin Energy          =      -0.5101602678470063 [Eh]
	 Opposite-Spin Energy      =      -1.6131903986734730 [Eh]
	 Correlation Energy        =      -2.1233506665204791 [Eh]
	 Total Energy              =    -515.0092420915449338 [Eh]

	 ================> DF-SCS-MP2 Energies <==================
	-----------------------------------------------------------
	 SCS Same-Spin Scale       =       0.3333333333333333 [-]
	 SCS Opposite-Spin Scale   =       1.2000000000000000 [-]
	 SCS Same-Spin Energy      =      -0.1700534226156687 [Eh]
	 SCS Opposite-Spin Energy  =      -1.9358284784081676 [Eh]
	 SCS Correlation Energy    =      -2.1058819010238365 [Eh]
	 SCS Total Energy          =    -514.9917733260483601 [Eh]
	-----------------------------------------------------------

  Dipole Moment: [D]
     X:    -0.0223      Y:    -2.7887      Z:     2.5093     Total:     3.7515

*** Psi4 exiting successfully. Buy a developer a beer!
