                               Psi4 1.4a3.dev225

  ==> Input File <==

--------------------------------------------------------------------------
#psi4
#
memory 32 gb

molecule  {
0 1
  O       -2.1439760    -1.5096120     0.4578230
  O        1.6019480     1.2946100    -0.5777250
  O       -3.1849820    -0.0999640    -0.9818910
  N        0.1649120    -0.2715720     0.2333030
  C       -1.0051050     0.5087660    -0.1211110
  C       -1.3212480     1.5963590     0.9125160
  C        2.5597860    -0.6480590     0.5035240
  C        1.4183570     0.2162400    -0.0039080
  C       -2.2318723    -0.3721650    -0.3122362
  C        3.7806550    -0.5458820    -0.4040570
  H       -0.8075500     0.9861290    -1.0847450
  H        0.0342290    -1.1271740     0.7572540
  H       -1.5188550     1.1449870     1.8886910
  H       -0.4592110     2.2615650     0.9886780
  H       -2.1947650     2.1753270     0.6002850
  H        2.8115640    -0.2961200     1.5118980
  H        2.2315720    -1.6889350     0.6045970
  H        4.0689510     0.4992230    -0.5227640
  H        4.6219880    -1.1034150     0.0157220
  H        3.5611410    -0.9492480    -1.3958190
  H       -2.9864200    -1.9858630     0.3018850
units angstrom
no_reorient  #important for SAPT in psi4, default
symmetry c1  #important for SAPT in psi4, default
}

set PROPERTIES_ORIGIN ["COM"]
properties('MP2/aug-cc-pvtz', properties = ['dipole'])
--------------------------------------------------------------------------

    Molecular point group: c1
  Charge       = 0
  Multiplicity = 1
  Basis Set: AUG-CC-PVTZ
    Blend: AUG-CC-PVTZ
  Basis Set: (AUG-CC-PVTZ AUX)
    Blend: AUG-CC-PVTZ-JKFIT

    Orbital Energies [Eh]
    ---------------------

    Doubly Occupied:

       1A    -20.630892     2A    -20.568784     3A    -20.522140
       4A    -15.595098     5A    -11.402236     6A    -11.356347
       7A    -11.295918     8A    -11.247302     9A    -11.232601
      10A    -11.221510    11A     -1.477243    12A     -1.381817
      13A     -1.378506    14A     -1.244623    15A     -1.074664
      16A     -1.036217    17A     -0.925783    18A     -0.884565
      19A     -0.818419    20A     -0.793473    21A     -0.727231
      22A     -0.715706    23A     -0.680045    24A     -0.660338
      25A     -0.644353    26A     -0.628865    27A     -0.610827
      28A     -0.600638    29A     -0.593025    30A     -0.552609
      31A     -0.541574    32A     -0.534527    33A     -0.523097
      34A     -0.514096    35A     -0.501790    36A     -0.489301
      37A     -0.468579    38A     -0.426950    39A     -0.399719

  @DF-RHF Final Energy:  -512.88719367263514

   => Energetics <=

    Nuclear Repulsion Energy =            547.6688341063493226
    One-Electron Energy =               -1787.3092422683585028
    Two-Electron Energy =                 726.7532144893740451
    Total Energy =                       -512.8871936726351350
  Basis Set: (AUG-CC-PVTZ AUX)
    Blend: AUG-CC-PVTZ-RI
    Molecular point group: c1

    Geometry (in Angstrom), charge = 0, multiplicity = 1:

       Center              X                  Y                   Z               Mass
    ------------   -----------------  -----------------  -----------------  -----------------
         O           -2.078759907737    -1.510564847734     0.483775471707    15.994914619570
         O            1.667164092263     1.293657152266    -0.551772528293    15.994914619570
         O           -3.119765907737    -0.100916847734    -0.955938528293    15.994914619570
         N            0.230128092263    -0.272524847734     0.259255471707    14.003074004430
         C           -0.939888907737     0.507813152266    -0.095158528293    12.000000000000
         C           -1.256031907737     1.595406152266     0.938468471707    12.000000000000
         C            2.625002092263    -0.649011847734     0.529476471707    12.000000000000
         C            1.483573092263     0.215287152266     0.022044471707    12.000000000000
         C           -2.166656207737    -0.373117847734    -0.286283728293    12.000000000000
         C            3.845871092263    -0.546834847734    -0.378104528293    12.000000000000
         H           -0.742333907737     0.985176152266    -1.058792528293     1.007825032230
         H            0.099445092263    -1.128126847734     0.783206471707     1.007825032230
         H           -1.453638907737     1.144034152266     1.914643471707     1.007825032230
         H           -0.393994907737     2.260612152266     1.014630471707     1.007825032230
         H           -2.129548907737     2.174374152266     0.626237471707     1.007825032230
         H            2.876780092263    -0.297072847734     1.537850471707     1.007825032230
         H            2.296788092263    -1.689887847734     0.630549471707     1.007825032230
         H            4.134167092263     0.498270152266    -0.496811528293     1.007825032230
         H            4.687204092263    -1.104367847734     0.041674471707     1.007825032230
         H            3.626357092263    -0.950200847734    -1.369866528293     1.007825032230
         H           -2.921203907737    -1.986815847734     0.327837471707     1.007825032230

  Basis Set: AUG-CC-PVTZ
    Blend: AUG-CC-PVTZ
  Basis Set: (AUG-CC-PVTZ AUX)
    Blend: AUG-CC-PVTZ-JKFIT
	 Reference Energy          =    -512.8871936726351350 [Eh]
	 Singles Energy            =      -0.0000000000000000 [Eh]
	 Same-Spin Energy          =      -0.5107882829040591 [Eh]
	 Opposite-Spin Energy      =      -1.6144331861013059 [Eh]
	 Correlation Energy        =      -2.1252214690053650 [Eh]
	 Total Energy              =    -515.0124151416405311 [Eh]

	 ================> DF-SCS-MP2 Energies <==================
	-----------------------------------------------------------
	 SCS Same-Spin Scale       =       0.3333333333333333 [-]
	 SCS Opposite-Spin Scale   =       1.2000000000000000 [-]
	 SCS Same-Spin Energy      =      -0.1702627609680197 [Eh]
	 SCS Opposite-Spin Energy  =      -1.9373198233215669 [Eh]
	 SCS Correlation Energy    =      -2.1075825842895868 [Eh]
	 SCS Total Energy          =    -514.9947762569247516 [Eh]
	-----------------------------------------------------------

  Dipole Moment: [D]
     X:    -0.3218      Y:    -2.9913      Z:     2.5561     Total:     3.9478

*** Psi4 exiting successfully. Buy a developer a beer!
