                               Psi4 1.3.2 release

  ==> Input File <==

--------------------------------------------------------------------------
#psi4
#
memory 32 gb

molecule  {
0 1
  O       -1.9705880     1.6613530    -0.1848000
  O        1.6688240    -1.2224340     0.6437850
  O       -3.2913740    -0.0479250     0.4948630
  N        0.2050808     0.2485351    -0.2601114
  C       -0.9510770    -0.4970410     0.1176100
  C       -1.1968270    -1.6816620    -0.8184860
  C        2.5968193     0.7902206    -0.3273294
  C        1.4682490    -0.1481810     0.0706060
  C       -2.1908320     0.3658730     0.1844680
  C        3.9506640     0.3320720     0.1153760
  H       -0.7838570    -0.8897150     1.1288390
  H        0.0750270     1.1966100    -0.6451490
  H       -1.3515420    -1.3283180    -1.8408860
  H       -0.3238960    -2.3346980    -0.7915570
  H       -2.0788080    -2.2361410    -0.4923840
  H        2.5479870     0.9167430    -1.4288930
  H        2.3554820     1.7990610     0.0733550
  H        4.1782080    -0.6474400    -0.3069900
  H        4.7194550     1.0404130    -0.2050590
  H        3.9903360     0.2413970     1.2016820
  H       -2.8462050     2.0977190    -0.1239210
units angstrom
no_reorient  #important for SAPT in psi4, default
symmetry c1  #important for SAPT in psi4, default
}

set PROPERTIES_ORIGIN ["COM"]
properties('MP2/aug-cc-pvtz', properties = ['dipole'])
--------------------------------------------------------------------------

    Molecular point group: c1
  Charge       = 0
  Multiplicity = 1
  Basis Set: AUG-CC-PVTZ
    Blend: AUG-CC-PVTZ
  Basis Set: (AUG-CC-PVTZ AUX)
    Blend: AUG-CC-PVTZ-JKFIT

    Orbital Energies [Eh]
    ---------------------

    Doubly Occupied:

       1A    -20.636613     2A    -20.564517     3A    -20.522986
       4A    -15.592594     5A    -11.405778     6A    -11.355633
       7A    -11.295812     8A    -11.250051     9A    -11.226037
      10A    -11.219302    11A     -1.478664    12A     -1.380882
      13A     -1.373766    14A     -1.247641    15A     -1.076662
      16A     -1.038086    17A     -0.928743    18A     -0.886623
      19A     -0.816631    20A     -0.789127    21A     -0.732677
      22A     -0.713938    23A     -0.684734    24A     -0.665824
      25A     -0.640273    26A     -0.633510    27A     -0.610761
      28A     -0.601475    29A     -0.581667    30A     -0.549012
      31A     -0.545173    32A     -0.530842    33A     -0.520450
      34A     -0.519526    35A     -0.496168    36A     -0.485468
      37A     -0.468369    38A     -0.427548    39A     -0.398030

  @DF-RHF Final Energy:  -512.88375135237391

   => Energetics <=

    Nuclear Repulsion Energy =            548.4120265868957631
    One-Electron Energy =               -1788.8083696762141699
    Two-Electron Energy =                 727.5125917369445006
    Total Energy =                       -512.8837513523739062
  Basis Set: (AUG-CC-PVTZ AUX)
    Blend: AUG-CC-PVTZ-RI
    Molecular point group: c1

    Geometry (in Angstrom), charge = 0, multiplicity = 1:

       Center              X                  Y                   Z               Mass
    ------------   -----------------  -----------------  -----------------  -----------------
         O           -1.971194533278     1.664633731197    -0.186616198177    15.994914619570
         O            1.668217466722    -1.219153268803     0.641968801823    15.994914619570
         O           -3.291980533278    -0.044644268803     0.493046801823    15.994914619570
         N            0.204474266722     0.251815831197    -0.261927598177    14.003074004430
         C           -0.951683533278    -0.493760268803     0.115793801823    12.000000000000
         C           -1.197433533278    -1.678381268803    -0.820302198177    12.000000000000
         C            2.596212766722     0.793501331197    -0.329145598177    12.000000000000
         C            1.467642466722    -0.144900268803     0.068789801823    12.000000000000
         C           -2.191438533278     0.369153731197     0.182651801823    12.000000000000
         C            3.950057466722     0.335352731197     0.113559801823    12.000000000000
         H           -0.784463533278    -0.886434268803     1.127022801823     1.007825032230
         H            0.074420466722     1.199890731197    -0.646965198177     1.007825032230
         H           -1.352148533278    -1.325037268803    -1.842702198177     1.007825032230
         H           -0.324502533278    -2.331417268803    -0.793373198177     1.007825032230
         H           -2.079414533278    -2.232860268803    -0.494200198177     1.007825032230
         H            2.547380466722     0.920023731197    -1.430709198177     1.007825032230
         H            2.354875466722     1.802341731197     0.071538801823     1.007825032230
         H            4.177601466722    -0.644159268803    -0.308806198177     1.007825032230
         H            4.718848466722     1.043693731197    -0.206875198177     1.007825032230
         H            3.989729466722     0.244677731197     1.199865801823     1.007825032230
         H           -2.846811533278     2.100999731197    -0.125737198177     1.007825032230

  Basis Set: AUG-CC-PVTZ
    Blend: AUG-CC-PVTZ
  Basis Set: (AUG-CC-PVTZ AUX)
    Blend: AUG-CC-PVTZ-JKFIT
	 Reference Energy          =    -512.8837513523739062 [Eh]
	 Singles Energy            =      -0.0000000000000000 [Eh]
	 Same-Spin Energy          =      -0.5117187413383691 [Eh]
	 Opposite-Spin Energy      =      -1.6153081422180615 [Eh]
	 Correlation Energy        =      -2.1270268835564305 [Eh]
	 Total Energy              =    -515.0107782359303883 [Eh]

	 ================> DF-SCS-MP2 Energies <==================
	-----------------------------------------------------------
	 SCS Same-Spin Scale       =       0.3333333333333333 [-]
	 SCS Opposite-Spin Scale   =       1.2000000000000000 [-]
	 SCS Same-Spin Energy      =      -0.1705729137794564 [Eh]
	 SCS Opposite-Spin Energy  =      -1.9383697706616738 [Eh]
	 SCS Correlation Energy    =      -2.1089426844411303 [Eh]
	 SCS Total Energy          =    -514.9926940368150099 [Eh]
	-----------------------------------------------------------

  Dipole Moment: [D]
     X:    -0.0362      Y:     3.4125      Z:    -1.8711     Total:     3.8920

*** Psi4 exiting successfully. Buy a developer a beer!
