                               Psi4 1.3.2 release

  ==> Input File <==

--------------------------------------------------------------------------
#psi4
#
memory 32 gb

molecule  {
0 1
  O       -1.9705880     1.6613530    -0.1848000
  O        1.6688240    -1.2224340     0.6437850
  O       -3.2913740    -0.0479250     0.4948630
  N        0.2140730     0.2683100    -0.2698780
  C       -0.9510770    -0.4970410     0.1176100
  C       -1.1844223    -1.6860057    -0.8161505
  C        2.5789920     0.8068070    -0.3378900
  C        1.4682490    -0.1481810     0.0706060
  C       -2.1846568     0.3739960     0.1928333
  C        3.9506640     0.3320720     0.1153760
  H       -0.7838570    -0.8897150     1.1288390
  H        0.0750270     1.1966100    -0.6451490
  H       -1.3515420    -1.3283180    -1.8408860
  H       -0.3238960    -2.3346980    -0.7915570
  H       -2.0788080    -2.2361410    -0.4923840
  H        2.5479870     0.9167430    -1.4288930
  H        2.3554820     1.7990610     0.0733550
  H        4.1782080    -0.6474400    -0.3069900
  H        4.7194550     1.0404130    -0.2050590
  H        3.9903360     0.2413970     1.2016820
  H       -2.8462050     2.0977190    -0.1239210
units angstrom
no_reorient  #important for SAPT in psi4, default
symmetry c1  #important for SAPT in psi4, default
}

set PROPERTIES_ORIGIN ["COM"]
properties('MP2/aug-cc-pvtz', properties = ['dipole'])
--------------------------------------------------------------------------

    Molecular point group: c1
  Charge       = 0
  Multiplicity = 1
  Basis Set: AUG-CC-PVTZ
    Blend: AUG-CC-PVTZ
  Basis Set: (AUG-CC-PVTZ AUX)
    Blend: AUG-CC-PVTZ-JKFIT

    Orbital Energies [Eh]
    ---------------------

    Doubly Occupied:

       1A    -20.638710     2A    -20.563448     3A    -20.524656
       4A    -15.591490     5A    -11.406478     6A    -11.355894
       7A    -11.297176     8A    -11.247301     9A    -11.226928
      10A    -11.219617    11A     -1.480358    12A     -1.380574
      13A     -1.371317    14A     -1.246256    15A     -1.075368
      16A     -1.035421    17A     -0.929379    18A     -0.886292
      19A     -0.818252    20A     -0.793101    21A     -0.731264
      22A     -0.715148    23A     -0.682930    24A     -0.666390
      25A     -0.641662    26A     -0.633627    27A     -0.610196
      28A     -0.602430    29A     -0.580605    30A     -0.549742
      31A     -0.543339    32A     -0.523620    33A     -0.521087
      34A     -0.519720    35A     -0.496929    36A     -0.487578
      37A     -0.468089    38A     -0.428263    39A     -0.400136

  @DF-RHF Final Energy:  -512.88524859933864

   => Energetics <=

    Nuclear Repulsion Energy =            548.0410208611195912
    One-Electron Energy =               -1788.0709946669730925
    Two-Electron Energy =                 727.1447252065147495
    Total Energy =                       -512.8852485993386381
  Basis Set: (AUG-CC-PVTZ AUX)
    Blend: AUG-CC-PVTZ-RI
    Molecular point group: c1

    Geometry (in Angstrom), charge = 0, multiplicity = 1:

       Center              X                  Y                   Z               Mass
    ------------   -----------------  -----------------  -----------------  -----------------
         O           -1.972124746421     1.661040405226    -0.185685086317    15.994914619570
         O            1.667287253579    -1.222746594774     0.642899913683    15.994914619570
         O           -3.292910746421    -0.048237594774     0.493977913683    15.994914619570
         N            0.212536253579     0.267997405226    -0.270763086317    14.003074004430
         C           -0.952613746421    -0.497353594774     0.116724913683    12.000000000000
         C           -1.185959046421    -1.686318294774    -0.817035586317    12.000000000000
         C            2.577455253579     0.806494405226    -0.338775086317    12.000000000000
         C            1.466712253579    -0.148493594774     0.069720913683    12.000000000000
         C           -2.186193546421     0.373683405226     0.191948213683    12.000000000000
         C            3.949127253579     0.331759405226     0.114490913683    12.000000000000
         H           -0.785393746421    -0.890027594774     1.127953913683     1.007825032230
         H            0.073490253579     1.196297405226    -0.646034086317     1.007825032230
         H           -1.353078746421    -1.328630594774    -1.841771086317     1.007825032230
         H           -0.325432746421    -2.335010594774    -0.792442086317     1.007825032230
         H           -2.080344746421    -2.236453594774    -0.493269086317     1.007825032230
         H            2.546450253579     0.916430405226    -1.429778086317     1.007825032230
         H            2.353945253579     1.798748405226     0.072469913683     1.007825032230
         H            4.176671253579    -0.647752594774    -0.307875086317     1.007825032230
         H            4.717918253579     1.040100405226    -0.205944086317     1.007825032230
         H            3.988799253579     0.241084405226     1.200796913683     1.007825032230
         H           -2.847741746421     2.097406405226    -0.124806086317     1.007825032230

  Basis Set: AUG-CC-PVTZ
    Blend: AUG-CC-PVTZ
  Basis Set: (AUG-CC-PVTZ AUX)
    Blend: AUG-CC-PVTZ-JKFIT
	 Reference Energy          =    -512.8852485993386381 [Eh]
	 Singles Energy            =      -0.0000000000000000 [Eh]
	 Same-Spin Energy          =      -0.5114065160158233 [Eh]
	 Opposite-Spin Energy      =      -1.6150969295719462 [Eh]
	 Correlation Energy        =      -2.1265034455877694 [Eh]
	 Total Energy              =    -515.0117520449264248 [Eh]

	 ================> DF-SCS-MP2 Energies <==================
	-----------------------------------------------------------
	 SCS Same-Spin Scale       =       0.3333333333333333 [-]
	 SCS Opposite-Spin Scale   =       1.2000000000000000 [-]
	 SCS Same-Spin Energy      =      -0.1704688386719411 [Eh]
	 SCS Opposite-Spin Energy  =      -1.9381163154863352 [Eh]
	 SCS Correlation Energy    =      -2.1085851541582765 [Eh]
	 SCS Total Energy          =    -514.9938337534969151 [Eh]
	-----------------------------------------------------------

  Dipole Moment: [D]
     X:    -0.0678      Y:     3.4172      Z:    -1.8646     Total:     3.8934

*** Psi4 exiting successfully. Buy a developer a beer!
