                               Psi4 1.4a3.dev225

  ==> Input File <==

--------------------------------------------------------------------------
#psi4
#
memory 32 gb

molecule  {
0 1
  O       -2.1439760    -1.5096120     0.4578230
  O        1.6019480     1.2946100    -0.5777250
  O       -3.1849820    -0.0999640    -0.9818910
  N        0.1649120    -0.2715720     0.2333030
  C       -1.0051050     0.5087660    -0.1211110
  C       -1.3212480     1.5963590     0.9125160
  C        2.5597860    -0.6480590     0.5035240
  C        1.4109257     0.1725903     0.0193187
  C       -2.2159370    -0.3767160    -0.3010400
  C        3.7806550    -0.5458820    -0.4040570
  H       -0.8075500     0.9861290    -1.0847450
  H        0.0342290    -1.1271740     0.7572540
  H       -1.5188550     1.1449870     1.8886910
  H       -0.4592110     2.2615650     0.9886780
  H       -2.1947650     2.1753270     0.6002850
  H        2.8115640    -0.2961200     1.5118980
  H        2.2315720    -1.6889350     0.6045970
  H        4.0689510     0.4992230    -0.5227640
  H        4.6219880    -1.1034150     0.0157220
  H        3.5611410    -0.9492480    -1.3958190
  H       -2.9864200    -1.9858630     0.3018850
units angstrom
no_reorient  #important for SAPT in psi4, default
symmetry c1  #important for SAPT in psi4, default
}

set PROPERTIES_ORIGIN ["COM"]
properties('MP2/aug-cc-pvtz', properties = ['dipole'])
--------------------------------------------------------------------------

    Molecular point group: c1
  Charge       = 0
  Multiplicity = 1
  Basis Set: AUG-CC-PVTZ
    Blend: AUG-CC-PVTZ
  Basis Set: (AUG-CC-PVTZ AUX)
    Blend: AUG-CC-PVTZ-JKFIT

    Orbital Energies [Eh]
    ---------------------

    Doubly Occupied:

       1A    -20.636298     2A    -20.567112     3A    -20.512431
       4A    -15.603425     5A    -11.406192     6A    -11.357704
       7A    -11.299935     8A    -11.249341     9A    -11.234826
      10A    -11.222645    11A     -1.478447    12A     -1.374634
      13A     -1.354752    14A     -1.245492    15A     -1.081805
      16A     -1.041794    17A     -0.931490    18A     -0.891057
      19A     -0.824558    20A     -0.799607    21A     -0.731532
      22A     -0.715969    23A     -0.679258    24A     -0.663421
      25A     -0.643830    26A     -0.629726    27A     -0.611193
      28A     -0.600481    29A     -0.581486    30A     -0.553617
      31A     -0.541307    32A     -0.536643    33A     -0.520908
      34A     -0.512659    35A     -0.498971    36A     -0.483801
      37A     -0.468461    38A     -0.423690    39A     -0.397925

  @DF-RHF Final Energy:  -512.87880627364495

   => Energetics <=

    Nuclear Repulsion Energy =            547.6020850176023487
    One-Electron Energy =               -1787.1449431512437513
    Two-Electron Energy =                 726.6640518599964480
    Total Energy =                       -512.8788062736449547
  Basis Set: (AUG-CC-PVTZ AUX)
    Blend: AUG-CC-PVTZ-RI
    Molecular point group: c1

    Geometry (in Angstrom), charge = 0, multiplicity = 1:

       Center              X                  Y                   Z               Mass
    ------------   -----------------  -----------------  -----------------  -----------------
         O           -2.079463328578    -1.506577856090     0.480928131012    15.994914619570
         O            1.666460671422     1.297644143910    -0.554619868988    15.994914619570
         O           -3.120469328578    -0.096929856090    -0.958785868988    15.994914619570
         N            0.229424671422    -0.268537856090     0.256408131012    14.003074004430
         C           -0.940592328578     0.511800143910    -0.098005868988    12.000000000000
         C           -1.256735328578     1.599393143910     0.935621131012    12.000000000000
         C            2.624298671422    -0.645024856090     0.526629131012    12.000000000000
         C            1.475438371422     0.175624443910     0.042423831012    12.000000000000
         C           -2.151424328578    -0.373681856090    -0.277934868988    12.000000000000
         C            3.845167671422    -0.542847856090    -0.380951868988    12.000000000000
         H           -0.743037328578     0.989163143910    -1.061639868988     1.007825032230
         H            0.098741671422    -1.124139856090     0.780359131012     1.007825032230
         H           -1.454342328578     1.148021143910     1.911796131012     1.007825032230
         H           -0.394698328578     2.264599143910     1.011783131012     1.007825032230
         H           -2.130252328578     2.178361143910     0.623390131012     1.007825032230
         H            2.876076671422    -0.293085856090     1.535003131012     1.007825032230
         H            2.296084671422    -1.685900856090     0.627702131012     1.007825032230
         H            4.133463671422     0.502257143910    -0.499658868988     1.007825032230
         H            4.686500671422    -1.100380856090     0.038827131012     1.007825032230
         H            3.625653671422    -0.946213856090    -1.372713868988     1.007825032230
         H           -2.921907328578    -1.982828856090     0.324990131012     1.007825032230

  Basis Set: AUG-CC-PVTZ
    Blend: AUG-CC-PVTZ
  Basis Set: (AUG-CC-PVTZ AUX)
    Blend: AUG-CC-PVTZ-JKFIT
	 Reference Energy          =    -512.8788062736449547 [Eh]
	 Singles Energy            =      -0.0000000000000000 [Eh]
	 Same-Spin Energy          =      -0.5122457894372023 [Eh]
	 Opposite-Spin Energy      =      -1.6171478406576287 [Eh]
	 Correlation Energy        =      -2.1293936300948308 [Eh]
	 Total Energy              =    -515.0081999037397509 [Eh]

	 ================> DF-SCS-MP2 Energies <==================
	-----------------------------------------------------------
	 SCS Same-Spin Scale       =       0.3333333333333333 [-]
	 SCS Opposite-Spin Scale   =       1.2000000000000000 [-]
	 SCS Same-Spin Energy      =      -0.1707485964790674 [Eh]
	 SCS Opposite-Spin Energy  =      -1.9405774087891543 [Eh]
	 SCS Correlation Energy    =      -2.1113260052682219 [Eh]
	 SCS Total Energy          =    -514.9901322789131655 [Eh]
	-----------------------------------------------------------

  Dipole Moment: [D]
     X:    -0.4009      Y:    -3.2685      Z:     2.7782     Total:     4.3084

*** Psi4 exiting successfully. Buy a developer a beer!
