                               Psi4 1.3.2 release

  ==> Input File <==

--------------------------------------------------------------------------
#psi4
#
memory 32 gb

molecule  {
0 1
  O       -1.9705880     1.6613530    -0.1848000
  O        1.6688240    -1.2224340     0.6437850
  O       -3.2913740    -0.0479250     0.4948630
  N        0.2140730     0.2683100    -0.2698780
  C       -0.9510770    -0.4970410     0.1176100
  C       -1.1968270    -1.6816620    -0.8184860
  C        2.5789920     0.8068070    -0.3378900
  C        1.4682490    -0.1481810     0.0706060
  C       -2.1445265     0.3569433     0.1776852
  C        3.9506640     0.3320720     0.1153760
  H       -0.7838570    -0.8897150     1.1288390
  H        0.0750270     1.1966100    -0.6451490
  H       -1.3515420    -1.3283180    -1.8408860
  H       -0.3238960    -2.3346980    -0.7915570
  H       -2.0788080    -2.2361410    -0.4923840
  H        2.5479870     0.9167430    -1.4288930
  H        2.3554820     1.7990610     0.0733550
  H        4.1782080    -0.6474400    -0.3069900
  H        4.7194550     1.0404130    -0.2050590
  H        3.9903360     0.2413970     1.2016820
  H       -2.8316711     2.1269648    -0.1341224
units angstrom
no_reorient  #important for SAPT in psi4, default
symmetry c1  #important for SAPT in psi4, default
}

set PROPERTIES_ORIGIN ["COM"]
properties('MP2/aug-cc-pvtz', properties = ['dipole'])
--------------------------------------------------------------------------

    Molecular point group: c1
  Charge       = 0
  Multiplicity = 1
  Basis Set: AUG-CC-PVTZ
    Blend: AUG-CC-PVTZ
  Basis Set: (AUG-CC-PVTZ AUX)
    Blend: AUG-CC-PVTZ-JKFIT

    Orbital Energies [Eh]
    ---------------------

    Doubly Occupied:

       1A    -20.636974     2A    -20.557920     3A    -20.526562
       4A    -15.593903     5A    -11.409969     6A    -11.357741
       7A    -11.299136     8A    -11.248580     9A    -11.229779
      10A    -11.220603    11A     -1.470683    12A     -1.382493
      13A     -1.349575    14A     -1.250231    15A     -1.081268
      16A     -1.040134    17A     -0.935972    18A     -0.888981
      19A     -0.822833    20A     -0.794342    21A     -0.734021
      22A     -0.707745    23A     -0.684565    24A     -0.665889
      25A     -0.641892    26A     -0.629292    27A     -0.605893
      28A     -0.601846    29A     -0.582512    30A     -0.549896
      31A     -0.544715    32A     -0.525672    33A     -0.522493
      34A     -0.521040    35A     -0.495160    36A     -0.479355
      37A     -0.466960    38A     -0.430038    39A     -0.402575

  @DF-RHF Final Energy:  -512.87805402738672

   => Energetics <=

    Nuclear Repulsion Energy =            548.1982891641873721
    One-Electron Energy =               -1788.3742137933254526
    Two-Electron Energy =                 727.2978706017513559
    Total Energy =                       -512.8780540273867246
  Basis Set: (AUG-CC-PVTZ AUX)
    Blend: AUG-CC-PVTZ-RI
    Molecular point group: c1

    Geometry (in Angstrom), charge = 0, multiplicity = 1:

       Center              X                  Y                   Z               Mass
    ------------   -----------------  -----------------  -----------------  -----------------
         O           -1.974519076789     1.661888478908    -0.184168035789    15.994914619570
         O            1.664892923211    -1.221898521092     0.644416964211    15.994914619570
         O           -3.295305076789    -0.047389521092     0.495494964211    15.994914619570
         N            0.210141923211     0.268845478908    -0.269246035789    14.003074004430
         C           -0.955008076789    -0.496505521092     0.118241964211    12.000000000000
         C           -1.200758076789    -1.681126521092    -0.817854035789    12.000000000000
         C            2.575060923211     0.807342478908    -0.337258035789    12.000000000000
         C            1.464317923211    -0.147645521092     0.071237964211    12.000000000000
         C           -2.148457576789     0.357478778908     0.178317164211    12.000000000000
         C            3.946732923211     0.332607478908     0.116007964211    12.000000000000
         H           -0.787788076789    -0.889179521092     1.129470964211     1.007825032230
         H            0.071095923211     1.197145478908    -0.644517035789     1.007825032230
         H           -1.355473076789    -1.327782521092    -1.840254035789     1.007825032230
         H           -0.327827076789    -2.334162521092    -0.790925035789     1.007825032230
         H           -2.082739076789    -2.235605521092    -0.491752035789     1.007825032230
         H            2.544055923211     0.917278478908    -1.428261035789     1.007825032230
         H            2.351550923211     1.799596478908     0.073986964211     1.007825032230
         H            4.174276923211    -0.646904521092    -0.306358035789     1.007825032230
         H            4.715523923211     1.040948478908    -0.204427035789     1.007825032230
         H            3.986404923211     0.241932478908     1.202313964211     1.007825032230
         H           -2.835602176789     2.127500278908    -0.133490435789     1.007825032230

  Basis Set: AUG-CC-PVTZ
    Blend: AUG-CC-PVTZ
  Basis Set: (AUG-CC-PVTZ AUX)
    Blend: AUG-CC-PVTZ-JKFIT
	 Reference Energy          =    -512.8780540273867246 [Eh]
	 Singles Energy            =      -0.0000000000000000 [Eh]
	 Same-Spin Energy          =      -0.5123979546751583 [Eh]
	 Opposite-Spin Energy      =      -1.6169873397705603 [Eh]
	 Correlation Energy        =      -2.1293852944457186 [Eh]
	 Total Energy              =    -515.0074393218324076 [Eh]

	 ================> DF-SCS-MP2 Energies <==================
	-----------------------------------------------------------
	 SCS Same-Spin Scale       =       0.3333333333333333 [-]
	 SCS Opposite-Spin Scale   =       1.2000000000000000 [-]
	 SCS Same-Spin Energy      =      -0.1707993182250527 [Eh]
	 SCS Opposite-Spin Energy  =      -1.9403848077246724 [Eh]
	 SCS Correlation Energy    =      -2.1111841259497250 [Eh]
	 SCS Total Energy          =    -514.9892381533364869 [Eh]
	-----------------------------------------------------------

  Dipole Moment: [D]
     X:     0.1997      Y:     3.3769      Z:    -1.9348     Total:     3.8970

*** Psi4 exiting successfully. Buy a developer a beer!
