                               Psi4 1.3.2 release

  ==> Input File <==

--------------------------------------------------------------------------
#psi4
#
memory 32 gb

molecule  {
0 1
  O       -1.9705880     1.6613530    -0.1848000
  O        1.6688240    -1.2224340     0.6437850
  O       -3.2913740    -0.0479250     0.4948630
  N        0.2140730     0.2683100    -0.2698780
  C       -0.9510770    -0.4970410     0.1176100
  C       -1.1878678    -1.7304795    -0.7556342
  C        2.5789920     0.8068070    -0.3378900
  C        1.4682490    -0.1481810     0.0706060
  C       -2.1908320     0.3658730     0.1844680
  C        3.9506640     0.3320720     0.1153760
  H       -0.7909310    -0.9427169     1.1077947
  H        0.0750270     1.1966100    -0.6451490
  H       -1.3515420    -1.3283180    -1.8408860
  H       -0.3238960    -2.3346980    -0.7915570
  H       -2.0788080    -2.2361410    -0.4923840
  H        2.5479870     0.9167430    -1.4288930
  H        2.3554820     1.7990610     0.0733550
  H        4.1782080    -0.6474400    -0.3069900
  H        4.7194550     1.0404130    -0.2050590
  H        3.9903360     0.2413970     1.2016820
  H       -2.8462050     2.0977190    -0.1239210
units angstrom
no_reorient  #important for SAPT in psi4, default
symmetry c1  #important for SAPT in psi4, default
}

set PROPERTIES_ORIGIN ["COM"]
properties('MP2/aug-cc-pvtz', properties = ['dipole'])
--------------------------------------------------------------------------

    Molecular point group: c1
  Charge       = 0
  Multiplicity = 1
  Basis Set: AUG-CC-PVTZ
    Blend: AUG-CC-PVTZ
  Basis Set: (AUG-CC-PVTZ AUX)
    Blend: AUG-CC-PVTZ-JKFIT

    Orbital Energies [Eh]
    ---------------------

    Doubly Occupied:

       1A    -20.637210     2A    -20.565109     3A    -20.525354
       4A    -15.593210     5A    -11.407011     6A    -11.356597
       7A    -11.297260     8A    -11.247671     9A    -11.228147
      10A    -11.219876    11A     -1.479148    12A     -1.381243
      13A     -1.374341    14A     -1.246349    15A     -1.076080
      16A     -1.036641    17A     -0.929514    18A     -0.886301
      19A     -0.816123    20A     -0.793324    21A     -0.732185
      22A     -0.715334    23A     -0.683129    24A     -0.666302
      25A     -0.641976    26A     -0.634783    27A     -0.612639
      28A     -0.603330    29A     -0.582674    30A     -0.562173
      31A     -0.542127    32A     -0.526743    33A     -0.520522
      34A     -0.507921    35A     -0.498956    36A     -0.484396
      37A     -0.466935    38A     -0.429195    39A     -0.400132

  @DF-RHF Final Energy:  -512.87871979607030

   => Energetics <=

    Nuclear Repulsion Energy =            547.8445083573006968
    One-Electron Energy =               -1787.6305315677689123
    Two-Electron Energy =                 726.9073034143978020
    Total Energy =                       -512.8787197960702997
  Basis Set: (AUG-CC-PVTZ AUX)
    Blend: AUG-CC-PVTZ-RI
    Molecular point group: c1

    Geometry (in Angstrom), charge = 0, multiplicity = 1:

       Center              X                  Y                   Z               Mass
    ------------   -----------------  -----------------  -----------------  -----------------
         O           -1.971279813183     1.665759229726    -0.189852638550    15.994914619570
         O            1.668132186817    -1.218027770274     0.638732361450    15.994914619570
         O           -3.292065813183    -0.043518770274     0.489810361450    15.994914619570
         N            0.213381186817     0.272716229726    -0.274930638550    14.003074004430
         C           -0.951768813183    -0.492634770274     0.112557361450    12.000000000000
         C           -1.188559613183    -1.726073270274    -0.760686838550    12.000000000000
         C            2.578300186817     0.811213229726    -0.342942638550    12.000000000000
         C            1.467557186817    -0.143774770274     0.065553361450    12.000000000000
         C           -2.191523813183     0.370279229726     0.179415361450    12.000000000000
         C            3.949972186817     0.336478229726     0.110323361450    12.000000000000
         H           -0.791622813183    -0.938310670274     1.102742061450     1.007825032230
         H            0.074335186817     1.201016229726    -0.650201638550     1.007825032230
         H           -1.352233813183    -1.323911770274    -1.845938638550     1.007825032230
         H           -0.324587813183    -2.330291770274    -0.796609638550     1.007825032230
         H           -2.079499813183    -2.231734770274    -0.497436638550     1.007825032230
         H            2.547295186817     0.921149229726    -1.433945638550     1.007825032230
         H            2.354790186817     1.803467229726     0.068302361450     1.007825032230
         H            4.177516186817    -0.643033770274    -0.312042638550     1.007825032230
         H            4.718763186817     1.044819229726    -0.210111638550     1.007825032230
         H            3.989644186817     0.245803229726     1.196629361450     1.007825032230
         H           -2.846896813183     2.102125229726    -0.128973638550     1.007825032230

  Basis Set: AUG-CC-PVTZ
    Blend: AUG-CC-PVTZ
  Basis Set: (AUG-CC-PVTZ AUX)
    Blend: AUG-CC-PVTZ-JKFIT
	 Reference Energy          =    -512.8787197960702997 [Eh]
	 Singles Energy            =      -0.0000000000000000 [Eh]
	 Same-Spin Energy          =      -0.5113866098625870 [Eh]
	 Opposite-Spin Energy      =      -1.6151784097927362 [Eh]
	 Correlation Energy        =      -2.1265650196553230 [Eh]
	 Total Energy              =    -515.0052848157256449 [Eh]

	 ================> DF-SCS-MP2 Energies <==================
	-----------------------------------------------------------
	 SCS Same-Spin Scale       =       0.3333333333333333 [-]
	 SCS Opposite-Spin Scale   =       1.2000000000000000 [-]
	 SCS Same-Spin Energy      =      -0.1704622032875290 [Eh]
	 SCS Opposite-Spin Energy  =      -1.9382140917512833 [Eh]
	 SCS Correlation Energy    =      -2.1086762950388125 [Eh]
	 SCS Total Energy          =    -514.9873960911090762 [Eh]
	-----------------------------------------------------------

  Dipole Moment: [D]
     X:    -0.0610      Y:     3.3476      Z:    -1.8123     Total:     3.8072

*** Psi4 exiting successfully. Buy a developer a beer!
