                               Psi4 1.3.2 release

  ==> Input File <==

--------------------------------------------------------------------------
#psi4
#
memory 32 gb

molecule  {
0 1
  O       -1.9705880     1.6613530    -0.1848000
  O        1.6688240    -1.2224340     0.6437850
  O       -3.2746347    -0.0866276     0.4997164
  N        0.2140730     0.2683100    -0.2698780
  C       -0.9802528    -0.5384842     0.1323229
  C       -1.1968270    -1.6816620    -0.8184860
  C        2.5789920     0.8068070    -0.3378900
  C        1.4682490    -0.1481810     0.0706060
  C       -2.1908320     0.3658730     0.1844680
  C        3.9506640     0.3320720     0.1153760
  H       -0.7838570    -0.8897150     1.1288390
  H        0.0750270     1.1966100    -0.6451490
  H       -1.3515420    -1.3283180    -1.8408860
  H       -0.3238960    -2.3346980    -0.7915570
  H       -2.0788080    -2.2361410    -0.4923840
  H        2.5479870     0.9167430    -1.4288930
  H        2.3554820     1.7990610     0.0733550
  H        4.1782080    -0.6474400    -0.3069900
  H        4.7194550     1.0404130    -0.2050590
  H        3.9903360     0.2413970     1.2016820
  H       -2.8462050     2.0977190    -0.1239210
units angstrom
no_reorient  #important for SAPT in psi4, default
symmetry c1  #important for SAPT in psi4, default
}

set PROPERTIES_ORIGIN ["COM"]
properties('MP2/aug-cc-pvtz', properties = ['dipole'])
--------------------------------------------------------------------------

    Molecular point group: c1
  Charge       = 0
  Multiplicity = 1
  Basis Set: AUG-CC-PVTZ
    Blend: AUG-CC-PVTZ
  Basis Set: (AUG-CC-PVTZ AUX)
    Blend: AUG-CC-PVTZ-JKFIT

    Orbital Energies [Eh]
    ---------------------

    Doubly Occupied:

       1A    -20.641674     2A    -20.565798     3A    -20.521354
       4A    -15.587981     5A    -11.406663     6A    -11.352539
       7A    -11.297019     8A    -11.245101     9A    -11.225960
      10A    -11.218032    11A     -1.479822    12A     -1.378375
      13A     -1.376419    14A     -1.234211    15A     -1.075984
      16A     -1.036953    17A     -0.928034    18A     -0.882982
      19A     -0.818983    20A     -0.787658    21A     -0.727260
      22A     -0.716862    23A     -0.678868    24A     -0.667558
      25A     -0.640082    26A     -0.634236    27A     -0.613331
      28A     -0.601092    29A     -0.579117    30A     -0.550415
      31A     -0.543953    32A     -0.524108    33A     -0.518716
      34A     -0.518200    35A     -0.497988    36A     -0.489408
      37A     -0.468565    38A     -0.424665    39A     -0.399833

  @DF-RHF Final Energy:  -512.88283031470507

   => Energetics <=

    Nuclear Repulsion Energy =            547.7111513146016932
    One-Electron Energy =               -1787.4763701610472708
    Two-Electron Energy =                 726.8823885317405029
    Total Energy =                       -512.8828303147050747
  Basis Set: (AUG-CC-PVTZ AUX)
    Blend: AUG-CC-PVTZ-RI
    Molecular point group: c1

    Geometry (in Angstrom), charge = 0, multiplicity = 1:

       Center              X                  Y                   Z               Mass
    ------------   -----------------  -----------------  -----------------  -----------------
         O           -1.970020131187     1.669048150499    -0.186552057733    15.994914619570
         O            1.669391868813    -1.214738849501     0.642032942267    15.994914619570
         O           -3.274066831187    -0.078932449501     0.497964342267    15.994914619570
         N            0.214640868813     0.276005150499    -0.271630057733    14.003074004430
         C           -0.979684931187    -0.530789049501     0.130570842267    12.000000000000
         C           -1.196259131187    -1.673966849501    -0.820238057733    12.000000000000
         C            2.579559868813     0.814502150499    -0.339642057733    12.000000000000
         C            1.468816868813    -0.140485849501     0.068853942267    12.000000000000
         C           -2.190264131187     0.373568150499     0.182715942267    12.000000000000
         C            3.951231868813     0.339767150499     0.113623942267    12.000000000000
         H           -0.783289131187    -0.882019849501     1.127086942267     1.007825032230
         H            0.075594868813     1.204305150499    -0.646901057733     1.007825032230
         H           -1.350974131187    -1.320622849501    -1.842638057733     1.007825032230
         H           -0.323328131187    -2.327002849501    -0.793309057733     1.007825032230
         H           -2.078240131187    -2.228445849501    -0.494136057733     1.007825032230
         H            2.548554868813     0.924438150499    -1.430645057733     1.007825032230
         H            2.356049868813     1.806756150499     0.071602942267     1.007825032230
         H            4.178775868813    -0.639744849501    -0.308742057733     1.007825032230
         H            4.720022868813     1.048108150499    -0.206811057733     1.007825032230
         H            3.990903868813     0.249092150499     1.199929942267     1.007825032230
         H           -2.845637131187     2.105414150499    -0.125673057733     1.007825032230

  Basis Set: AUG-CC-PVTZ
    Blend: AUG-CC-PVTZ
  Basis Set: (AUG-CC-PVTZ AUX)
    Blend: AUG-CC-PVTZ-JKFIT
	 Reference Energy          =    -512.8828303147050747 [Eh]
	 Singles Energy            =      -0.0000000000000000 [Eh]
	 Same-Spin Energy          =      -0.5112053150916489 [Eh]
	 Opposite-Spin Energy      =      -1.6151823199537962 [Eh]
	 Correlation Energy        =      -2.1263876350454449 [Eh]
	 Total Energy              =    -515.0092179497505640 [Eh]

	 ================> DF-SCS-MP2 Energies <==================
	-----------------------------------------------------------
	 SCS Same-Spin Scale       =       0.3333333333333333 [-]
	 SCS Opposite-Spin Scale   =       1.2000000000000000 [-]
	 SCS Same-Spin Energy      =      -0.1704017716972163 [Eh]
	 SCS Opposite-Spin Energy  =      -1.9382187839445555 [Eh]
	 SCS Correlation Energy    =      -2.1086205556417719 [Eh]
	 SCS Total Energy          =    -514.9914508703468528 [Eh]
	-----------------------------------------------------------

  Dipole Moment: [D]
     X:    -0.3443      Y:     3.4110      Z:    -1.8628     Total:     3.9017

*** Psi4 exiting successfully. Buy a developer a beer!
