                               Psi4 1.3.2 release

  ==> Input File <==

--------------------------------------------------------------------------
#psi4
#
memory 32 gb

molecule  {
0 1
  O       -1.9705880     1.6613530    -0.1848000
  O        1.6688240    -1.2224340     0.6437850
  O       -3.2913740    -0.0479250     0.4948630
  N        0.2140730     0.2683100    -0.2698780
  C       -0.9510770    -0.4970410     0.1176100
  C       -1.1968270    -1.6816620    -0.8184860
  C        2.5789920     0.8068070    -0.3378900
  C        1.4682490    -0.1481810     0.0706060
  C       -2.1908320     0.3658730     0.1844680
  C        3.9663003     0.3317904     0.0646550
  H       -0.7838570    -0.8897150     1.1288390
  H        0.0750270     1.1966100    -0.6451490
  H       -1.3515420    -1.3283180    -1.8408860
  H       -0.3238960    -2.3346980    -0.7915570
  H       -2.0788080    -2.2361410    -0.4923840
  H        2.5845105     0.9053491    -1.4304072
  H        2.3554820     1.7990610     0.0733550
  H        4.1782080    -0.6474400    -0.3069900
  H        4.7194550     1.0404130    -0.2050590
  H        3.9903360     0.2413970     1.2016820
  H       -2.8462050     2.0977190    -0.1239210
units angstrom
no_reorient  #important for SAPT in psi4, default
symmetry c1  #important for SAPT in psi4, default
}

set PROPERTIES_ORIGIN ["COM"]
properties('MP2/aug-cc-pvtz', properties = ['dipole'])
--------------------------------------------------------------------------

    Molecular point group: c1
  Charge       = 0
  Multiplicity = 1
  Basis Set: AUG-CC-PVTZ
    Blend: AUG-CC-PVTZ
  Basis Set: (AUG-CC-PVTZ AUX)
    Blend: AUG-CC-PVTZ-JKFIT

    Orbital Energies [Eh]
    ---------------------

    Doubly Occupied:

       1A    -20.636714     2A    -20.564709     3A    -20.524967
       4A    -15.592039     5A    -11.405879     6A    -11.356777
       7A    -11.297392     8A    -11.247262     9A    -11.226980
      10A    -11.219646    11A     -1.478772    12A     -1.380809
      13A     -1.373949    14A     -1.246364    15A     -1.075581
      16A     -1.036217    17A     -0.928422    18A     -0.885844
      19A     -0.817072    20A     -0.792820    21A     -0.731335
      22A     -0.714885    23A     -0.683423    24A     -0.666326
      25A     -0.641375    26A     -0.634353    27A     -0.610991
      28A     -0.602353    29A     -0.583239    30A     -0.548428
      31A     -0.544555    32A     -0.531492    33A     -0.523722
      34A     -0.513775    35A     -0.494329    36A     -0.483958
      37A     -0.468572    38A     -0.428904    39A     -0.400264

  @DF-RHF Final Energy:  -512.88273012788613

   => Energetics <=

    Nuclear Repulsion Energy =            547.8297021629933852
    One-Electron Energy =               -1787.6358792515218283
    Two-Electron Energy =                 726.9234469606421953
    Total Energy =                       -512.8827301278861341
  Basis Set: (AUG-CC-PVTZ AUX)
    Blend: AUG-CC-PVTZ-RI
    Molecular point group: c1

    Geometry (in Angstrom), charge = 0, multiplicity = 1:

       Center              X                  Y                   Z               Mass
    ------------   -----------------  -----------------  -----------------  -----------------
         O           -1.972134990149     1.661455461694    -0.180593972869    15.994914619570
         O            1.667277009851    -1.222331538306     0.647991027131    15.994914619570
         O           -3.292920990149    -0.047822538306     0.499069027131    15.994914619570
         N            0.212526009851     0.268412461694    -0.265671972869    14.003074004430
         C           -0.952623990149    -0.496938538306     0.121816027131    12.000000000000
         C           -1.198373990149    -1.681559538306    -0.814279972869    12.000000000000
         C            2.577445009851     0.806909461694    -0.333683972869    12.000000000000
         C            1.466702009851    -0.148078538306     0.074812027131    12.000000000000
         C           -2.192378990149     0.365975461694     0.188674027131    12.000000000000
         C            3.964753309851     0.331892861694     0.068861027131    12.000000000000
         H           -0.785403990149    -0.889612538306     1.133045027131     1.007825032230
         H            0.073480009851     1.196712461694    -0.640942972869     1.007825032230
         H           -1.353088990149    -1.328215538306    -1.836679972869     1.007825032230
         H           -0.325442990149    -2.334595538306    -0.787350972869     1.007825032230
         H           -2.080354990149    -2.236038538306    -0.488177972869     1.007825032230
         H            2.582963509851     0.905451561694    -1.426201172869     1.007825032230
         H            2.353935009851     1.799163461694     0.077561027131     1.007825032230
         H            4.176661009851    -0.647337538306    -0.302783972869     1.007825032230
         H            4.717908009851     1.040515461694    -0.200852972869     1.007825032230
         H            3.988789009851     0.241499461694     1.205888027131     1.007825032230
         H           -2.847751990149     2.097821461694    -0.119714972869     1.007825032230

  Basis Set: AUG-CC-PVTZ
    Blend: AUG-CC-PVTZ
  Basis Set: (AUG-CC-PVTZ AUX)
    Blend: AUG-CC-PVTZ-JKFIT
	 Reference Energy          =    -512.8827301278861341 [Eh]
	 Singles Energy            =      -0.0000000000000000 [Eh]
	 Same-Spin Energy          =      -0.5113719913611102 [Eh]
	 Opposite-Spin Energy      =      -1.6151227863869111 [Eh]
	 Correlation Energy        =      -2.1264947777480212 [Eh]
	 Total Energy              =    -515.0092249056341416 [Eh]

	 ================> DF-SCS-MP2 Energies <==================
	-----------------------------------------------------------
	 SCS Same-Spin Scale       =       0.3333333333333333 [-]
	 SCS Opposite-Spin Scale   =       1.2000000000000000 [-]
	 SCS Same-Spin Energy      =      -0.1704573304537034 [Eh]
	 SCS Opposite-Spin Energy  =      -1.9381473436642933 [Eh]
	 SCS Correlation Energy    =      -2.1086046741179967 [Eh]
	 SCS Total Energy          =    -514.9913348020040758 [Eh]
	-----------------------------------------------------------

  Dipole Moment: [D]
     X:    -0.0971      Y:     3.3652      Z:    -1.8841     Total:     3.8579

*** Psi4 exiting successfully. Buy a developer a beer!
