                               Psi4 1.3.2 release

  ==> Input File <==

--------------------------------------------------------------------------
#psi4
#
memory 32 gb

molecule  {
0 1
  O       -1.9705880     1.6613530    -0.1848000
  O        1.6688240    -1.2224340     0.6437850
  O       -3.2913740    -0.0479250     0.4948630
  N        0.2140730     0.2683100    -0.2698780
  C       -0.9390830    -0.5020317     0.1206818
  C       -1.1968270    -1.6816620    -0.8184860
  C        2.5789920     0.8068070    -0.3378900
  C        1.4682490    -0.1481810     0.0706060
  C       -2.1908320     0.3658730     0.1844680
  C        3.9506640     0.3320720     0.1153760
  H       -0.7838570    -0.8897150     1.1288390
  H        0.0750270     1.1966100    -0.6451490
  H       -1.3515420    -1.3283180    -1.8408860
  H       -0.3197423    -2.3288196    -0.7853319
  H       -2.0788080    -2.2361410    -0.4923840
  H        2.5479870     0.9167430    -1.4288930
  H        2.3554820     1.7990610     0.0733550
  H        4.1782080    -0.6474400    -0.3069900
  H        4.7194550     1.0404130    -0.2050590
  H        3.9903360     0.2413970     1.2016820
  H       -2.8462050     2.0977190    -0.1239210
units angstrom
no_reorient  #important for SAPT in psi4, default
symmetry c1  #important for SAPT in psi4, default
}

set PROPERTIES_ORIGIN ["COM"]
properties('MP2/aug-cc-pvtz', properties = ['dipole'])
--------------------------------------------------------------------------

    Molecular point group: c1
  Charge       = 0
  Multiplicity = 1
  Basis Set: AUG-CC-PVTZ
    Blend: AUG-CC-PVTZ
  Basis Set: (AUG-CC-PVTZ AUX)
    Blend: AUG-CC-PVTZ-JKFIT

    Orbital Energies [Eh]
    ---------------------

    Doubly Occupied:

       1A    -20.636339     2A    -20.564381     3A    -20.524965
       4A    -15.591838     5A    -11.405500     6A    -11.356054
       7A    -11.296939     8A    -11.247390     9A    -11.226395
      10A    -11.219692    11A     -1.478107    12A     -1.381148
      13A     -1.373407    14A     -1.247484    15A     -1.075088
      16A     -1.035171    17A     -0.927020    18A     -0.885497
      19A     -0.817773    20A     -0.793000    21A     -0.730603
      22A     -0.714491    23A     -0.683325    24A     -0.665682
      25A     -0.641548    26A     -0.634502    27A     -0.609988
      28A     -0.603311    29A     -0.582154    30A     -0.546798
      31A     -0.543332    32A     -0.525012    33A     -0.521953
      34A     -0.520043    35A     -0.497744    36A     -0.488892
      37A     -0.467049    38A     -0.428478    39A     -0.400348

  @DF-RHF Final Energy:  -512.88600275809631

   => Energetics <=

    Nuclear Repulsion Energy =            548.0432750744868144
    One-Electron Energy =               -1788.0816676866515991
    Two-Electron Energy =                 727.1523898540685877
    Total Energy =                       -512.8860027580963106
  Basis Set: (AUG-CC-PVTZ AUX)
    Blend: AUG-CC-PVTZ-RI
    Molecular point group: c1

    Geometry (in Angstrom), charge = 0, multiplicity = 1:

       Center              X                  Y                   Z               Mass
    ------------   -----------------  -----------------  -----------------  -----------------
         O           -1.971608839695     1.661724991537    -0.185097288013    15.994914619570
         O            1.667803160305    -1.222062008463     0.643487711987    15.994914619570
         O           -3.292394839695    -0.047553008463     0.494565711987    15.994914619570
         N            0.213052160305     0.268681991537    -0.270175288013    14.003074004430
         C           -0.940103839695    -0.501659708463     0.120384511987    12.000000000000
         C           -1.197847839695    -1.681290008463    -0.818783288013    12.000000000000
         C            2.577971160305     0.807178991537    -0.338187288013    12.000000000000
         C            1.467228160305    -0.147809008463     0.070308711987    12.000000000000
         C           -2.191852839695     0.366244991537     0.184170711987    12.000000000000
         C            3.949643160305     0.332443991537     0.115078711987    12.000000000000
         H           -0.784877839695    -0.889343008463     1.128541711987     1.007825032230
         H            0.074006160305     1.196981991537    -0.645446288013     1.007825032230
         H           -1.352562839695    -1.327946008463    -1.841183288013     1.007825032230
         H           -0.320763139695    -2.328447608463    -0.785629188013     1.007825032230
         H           -2.079828839695    -2.235769008463    -0.492681288013     1.007825032230
         H            2.546966160305     0.917114991537    -1.429190288013     1.007825032230
         H            2.354461160305     1.799432991537     0.073057711987     1.007825032230
         H            4.177187160305    -0.647068008463    -0.307287288013     1.007825032230
         H            4.718434160305     1.040784991537    -0.205356288013     1.007825032230
         H            3.989315160305     0.241768991537     1.201384711987     1.007825032230
         H           -2.847225839695     2.098090991537    -0.124218288013     1.007825032230

  Basis Set: AUG-CC-PVTZ
    Blend: AUG-CC-PVTZ
  Basis Set: (AUG-CC-PVTZ AUX)
    Blend: AUG-CC-PVTZ-JKFIT
	 Reference Energy          =    -512.8860027580963106 [Eh]
	 Singles Energy            =      -0.0000000000000000 [Eh]
	 Same-Spin Energy          =      -0.5112873554339272 [Eh]
	 Opposite-Spin Energy      =      -1.6148452544463168 [Eh]
	 Correlation Energy        =      -2.1261326098802442 [Eh]
	 Total Energy              =    -515.0121353679764979 [Eh]

	 ================> DF-SCS-MP2 Energies <==================
	-----------------------------------------------------------
	 SCS Same-Spin Scale       =       0.3333333333333333 [-]
	 SCS Opposite-Spin Scale   =       1.2000000000000000 [-]
	 SCS Same-Spin Energy      =      -0.1704291184779757 [Eh]
	 SCS Opposite-Spin Energy  =      -1.9378143053355801 [Eh]
	 SCS Correlation Energy    =      -2.1082434238135557 [Eh]
	 SCS Total Energy          =    -514.9942461819098298 [Eh]
	-----------------------------------------------------------

  Dipole Moment: [D]
     X:    -0.0769      Y:     3.3789      Z:    -1.8559     Total:     3.8558

*** Psi4 exiting successfully. Buy a developer a beer!
