                               Psi4 1.4a3.dev225

  ==> Input File <==

--------------------------------------------------------------------------
#psi4
#
memory 32 gb

molecule  {
0 1
  O       -2.1439760    -1.5096120     0.4578230
  O        1.6019480     1.2946100    -0.5777250
  O       -3.1849820    -0.0999640    -0.9818910
  N        0.1649120    -0.2715720     0.2333030
  C       -1.0051050     0.5087660    -0.1211110
  C       -1.3109392     1.5608946     0.8788113
  C        2.5597860    -0.6480590     0.5035240
  C        1.4183570     0.2162400    -0.0039080
  C       -2.2159370    -0.3767160    -0.3010400
  C        3.7806550    -0.5458820    -0.4040570
  H       -0.8075500     0.9861290    -1.0847450
  H        0.0342290    -1.1271740     0.7572540
  H       -1.5188550     1.1449870     1.8886910
  H       -0.4592110     2.2615650     0.9886780
  H       -2.1947650     2.1753270     0.6002850
  H        2.8115640    -0.2961200     1.5118980
  H        2.2315720    -1.6889350     0.6045970
  H        4.0689510     0.4992230    -0.5227640
  H        4.6219880    -1.1034150     0.0157220
  H        3.5611410    -0.9492480    -1.3958190
  H       -2.9864200    -1.9858630     0.3018850
units angstrom
no_reorient  #important for SAPT in psi4, default
symmetry c1  #important for SAPT in psi4, default
}

set PROPERTIES_ORIGIN ["COM"]
properties('MP2/aug-cc-pvtz', properties = ['dipole'])
--------------------------------------------------------------------------

    Molecular point group: c1
  Charge       = 0
  Multiplicity = 1
  Basis Set: AUG-CC-PVTZ
    Blend: AUG-CC-PVTZ
  Basis Set: (AUG-CC-PVTZ AUX)
    Blend: AUG-CC-PVTZ-JKFIT

    Orbital Energies [Eh]
    ---------------------

    Doubly Occupied:

       1A    -20.634716     2A    -20.565653     3A    -20.522798
       4A    -15.595609     5A    -11.404355     6A    -11.357027
       7A    -11.294931     8A    -11.247773     9A    -11.234673
      10A    -11.221873    11A     -1.476880    12A     -1.379701
      13A     -1.373061    14A     -1.247493    15A     -1.080324
      16A     -1.040520    17A     -0.926133    18A     -0.886170
      19A     -0.821488    20A     -0.794807    21A     -0.729287
      22A     -0.714787    23A     -0.681275    24A     -0.662573
      25A     -0.643946    26A     -0.630333    27A     -0.609780
      28A     -0.602430    29A     -0.596402    30A     -0.552837
      31A     -0.536540    32A     -0.532167    33A     -0.521346
      34A     -0.512484    35A     -0.497050    36A     -0.488763
      37A     -0.468352    38A     -0.427316    39A     -0.402860

  @DF-RHF Final Energy:  -512.88344575827625

   => Energetics <=

    Nuclear Repulsion Energy =            548.7147152207146519
    One-Electron Energy =               -1789.3632938237524286
    Two-Electron Energy =                 727.7651328447615242
    Total Energy =                       -512.8834457582762525
  Basis Set: (AUG-CC-PVTZ AUX)
    Blend: AUG-CC-PVTZ-RI
    Molecular point group: c1

    Geometry (in Angstrom), charge = 0, multiplicity = 1:

       Center              X                  Y                   Z               Mass
    ------------   -----------------  -----------------  -----------------  -----------------
         O           -2.080930726987    -1.507254915193     0.485637295320    15.994914619570
         O            1.664993273013     1.296967084807    -0.549910704680    15.994914619570
         O           -3.121936726987    -0.097606915193    -0.954076704680    15.994914619570
         N            0.227957273013    -0.269214915193     0.261117295320    14.003074004430
         C           -0.942059726987     0.511123084807    -0.093296704680    12.000000000000
         C           -1.247893926987     1.563251684807     0.906625595320    12.000000000000
         C            2.622831273013    -0.645701915193     0.531338295320    12.000000000000
         C            1.481402273013     0.218597084807     0.023906295320    12.000000000000
         C           -2.152891726987    -0.374358915193    -0.273225704680    12.000000000000
         C            3.843700273013    -0.543524915193    -0.376242704680    12.000000000000
         H           -0.744504726987     0.988486084807    -1.056930704680     1.007825032230
         H            0.097274273013    -1.124816915193     0.785068295320     1.007825032230
         H           -1.455809726987     1.147344084807     1.916505295320     1.007825032230
         H           -0.396165726987     2.263922084807     1.016492295320     1.007825032230
         H           -2.131719726987     2.177684084807     0.628099295320     1.007825032230
         H            2.874609273013    -0.293762915193     1.539712295320     1.007825032230
         H            2.294617273013    -1.686577915193     0.632411295320     1.007825032230
         H            4.131996273013     0.501580084807    -0.494949704680     1.007825032230
         H            4.685033273013    -1.101057915193     0.043536295320     1.007825032230
         H            3.624186273013    -0.946890915193    -1.368004704680     1.007825032230
         H           -2.923374726987    -1.983505915193     0.329699295320     1.007825032230

  Basis Set: AUG-CC-PVTZ
    Blend: AUG-CC-PVTZ
  Basis Set: (AUG-CC-PVTZ AUX)
    Blend: AUG-CC-PVTZ-JKFIT
	 Reference Energy          =    -512.8834457582762525 [Eh]
	 Singles Energy            =      -0.0000000000000000 [Eh]
	 Same-Spin Energy          =      -0.5115726922403532 [Eh]
	 Opposite-Spin Energy      =      -1.6155548984105308 [Eh]
	 Correlation Energy        =      -2.1271275906508840 [Eh]
	 Total Energy              =    -515.0105733489270960 [Eh]

	 ================> DF-SCS-MP2 Energies <==================
	-----------------------------------------------------------
	 SCS Same-Spin Scale       =       0.3333333333333333 [-]
	 SCS Opposite-Spin Scale   =       1.2000000000000000 [-]
	 SCS Same-Spin Energy      =      -0.1705242307467844 [Eh]
	 SCS Opposite-Spin Energy  =      -1.9386658780926369 [Eh]
	 SCS Correlation Energy    =      -2.1091901088394214 [Eh]
	 SCS Total Energy          =    -514.9926358671157232 [Eh]
	-----------------------------------------------------------

  Dipole Moment: [D]
     X:    -0.2307      Y:    -3.0361      Z:     2.6430     Total:     4.0320

*** Psi4 exiting successfully. Buy a developer a beer!
