                               Psi4 1.3.2 release

  ==> Input File <==

--------------------------------------------------------------------------
#psi4
#
memory 32 gb

molecule  {
0 1
  O       -1.9705880     1.6613530    -0.1848000
  O        1.6688240    -1.2224340     0.6437850
  O       -3.2913740    -0.0479250     0.4948630
  N        0.2140730     0.2683100    -0.2698780
  C       -0.9510770    -0.4970410     0.1176100
  C       -1.1968270    -1.6816620    -0.8184860
  C        2.5789920     0.8068070    -0.3378900
  C        1.4682490    -0.1481810     0.0706060
  C       -2.1792786     0.3634922     0.1828142
  C        3.9506640     0.3320720     0.1153760
  H       -0.7838570    -0.8897150     1.1288390
  H        0.0750270     1.1966100    -0.6451490
  H       -1.3515420    -1.3283180    -1.8408860
  H       -0.3238960    -2.3346980    -0.7915570
  H       -2.0788080    -2.2361410    -0.4923840
  H        2.5479870     0.9167430    -1.4288930
  H        2.3554820     1.7990610     0.0733550
  H        4.1782080    -0.6474400    -0.3069900
  H        4.7194550     1.0404130    -0.2050590
  H        3.9903360     0.2413970     1.2016820
  H       -2.8426709     2.1050817    -0.1264649
units angstrom
no_reorient  #important for SAPT in psi4, default
symmetry c1  #important for SAPT in psi4, default
}

set PROPERTIES_ORIGIN ["COM"]
properties('MP2/aug-cc-pvtz', properties = ['dipole'])
--------------------------------------------------------------------------

    Molecular point group: c1
  Charge       = 0
  Multiplicity = 1
  Basis Set: AUG-CC-PVTZ
    Blend: AUG-CC-PVTZ
  Basis Set: (AUG-CC-PVTZ AUX)
    Blend: AUG-CC-PVTZ-JKFIT

    Orbital Energies [Eh]
    ---------------------

    Doubly Occupied:

       1A    -20.636692     2A    -20.562949     3A    -20.525103
       4A    -15.592200     5A    -11.406788     6A    -11.356374
       7A    -11.297739     8A    -11.247596     9A    -11.227571
      10A    -11.219836    11A     -1.476385    12A     -1.381019
      13A     -1.367949    14A     -1.247114    15A     -1.076872
      16A     -1.036896    17A     -0.930181    18A     -0.886747
      19A     -0.818388    20A     -0.793054    21A     -0.731560
      22A     -0.713052    23A     -0.683213    24A     -0.665902
      25A     -0.641446    26A     -0.632496    27A     -0.609484
      28A     -0.602925    29A     -0.581415    30A     -0.547909
      31A     -0.544385    32A     -0.524757    33A     -0.521490
      34A     -0.520087    35A     -0.496339    36A     -0.487121
      37A     -0.468552    38A     -0.428695    39A     -0.400795

  @DF-RHF Final Energy:  -512.88483825815706

   => Energetics <=

    Nuclear Repulsion Energy =            548.0704274287040789
    One-Electron Energy =               -1788.1323790077847207
    Two-Electron Energy =                 727.1771133209235813
    Total Energy =                       -512.8848382581570604
  Basis Set: (AUG-CC-PVTZ AUX)
    Blend: AUG-CC-PVTZ-RI
    Molecular point group: c1

    Geometry (in Angstrom), charge = 0, multiplicity = 1:

       Center              X                  Y                   Z               Mass
    ------------   -----------------  -----------------  -----------------  -----------------
         O           -1.971568090473     1.661498798430    -0.184645485030    15.994914619570
         O            1.667843909527    -1.222288201570     0.643939514970    15.994914619570
         O           -3.292354090473    -0.047779201570     0.495017514970    15.994914619570
         N            0.213092909527     0.268455798430    -0.269723485030    14.003074004430
         C           -0.952057090473    -0.496895201570     0.117764514970    12.000000000000
         C           -1.197807090473    -1.681516201570    -0.818331485030    12.000000000000
         C            2.578011909527     0.806952798430    -0.337735485030    12.000000000000
         C            1.467268909527    -0.148035201570     0.070760514970    12.000000000000
         C           -2.180258690473     0.363637998430     0.182968714970    12.000000000000
         C            3.949683909527     0.332217798430     0.115530514970    12.000000000000
         H           -0.784837090473    -0.889569201570     1.128993514970     1.007825032230
         H            0.074046909527     1.196755798430    -0.644994485030     1.007825032230
         H           -1.352522090473    -1.328172201570    -1.840731485030     1.007825032230
         H           -0.324876090473    -2.334552201570    -0.791402485030     1.007825032230
         H           -2.079788090473    -2.235995201570    -0.492229485030     1.007825032230
         H            2.547006909527     0.916888798430    -1.428738485030     1.007825032230
         H            2.354501909527     1.799206798430     0.073509514970     1.007825032230
         H            4.177227909527    -0.647294201570    -0.306835485030     1.007825032230
         H            4.718474909527     1.040558798430    -0.204904485030     1.007825032230
         H            3.989355909527     0.241542798430     1.201836514970     1.007825032230
         H           -2.843650990473     2.105227498430    -0.126310385030     1.007825032230

  Basis Set: AUG-CC-PVTZ
    Blend: AUG-CC-PVTZ
  Basis Set: (AUG-CC-PVTZ AUX)
    Blend: AUG-CC-PVTZ-JKFIT
	 Reference Energy          =    -512.8848382581570604 [Eh]
	 Singles Energy            =      -0.0000000000000000 [Eh]
	 Same-Spin Energy          =      -0.5115655938392862 [Eh]
	 Opposite-Spin Energy      =      -1.6154017085038959 [Eh]
	 Correlation Energy        =      -2.1269673023431821 [Eh]
	 Total Energy              =    -515.0118055605001928 [Eh]

	 ================> DF-SCS-MP2 Energies <==================
	-----------------------------------------------------------
	 SCS Same-Spin Scale       =       0.3333333333333333 [-]
	 SCS Opposite-Spin Scale   =       1.2000000000000000 [-]
	 SCS Same-Spin Energy      =      -0.1705218646130954 [Eh]
	 SCS Opposite-Spin Energy  =      -1.9384820502046749 [Eh]
	 SCS Correlation Energy    =      -2.1090039148177704 [Eh]
	 SCS Total Energy          =    -514.9938421729748370 [Eh]
	-----------------------------------------------------------

  Dipole Moment: [D]
     X:    -0.0182      Y:     3.3700      Z:    -1.8788     Total:     3.8584

*** Psi4 exiting successfully. Buy a developer a beer!
