                               Psi4 1.3.2 release

  ==> Input File <==

--------------------------------------------------------------------------
#psi4
#
memory 32 gb

molecule  {
0 1
  O       -1.9476710     1.6561312    -0.1886826
  O        1.6688240    -1.2224340     0.6437850
  O       -3.2913740    -0.0479250     0.4948630
  N        0.2140730     0.2683100    -0.2698780
  C       -0.9372559    -0.4761395     0.1093355
  C       -1.1968270    -1.6816620    -0.8184860
  C        2.5789920     0.8068070    -0.3378900
  C        1.4682490    -0.1481810     0.0706060
  C       -2.1908320     0.3658730     0.1844680
  C        3.9506640     0.3320720     0.1153760
  H       -0.7838570    -0.8897150     1.1288390
  H        0.0750270     1.1966100    -0.6451490
  H       -1.3515420    -1.3283180    -1.8408860
  H       -0.3238960    -2.3346980    -0.7915570
  H       -2.0788080    -2.2361410    -0.4923840
  H        2.5479870     0.9167430    -1.4288930
  H        2.3554820     1.7990610     0.0733550
  H        4.1782080    -0.6474400    -0.3069900
  H        4.7194550     1.0404130    -0.2050590
  H        3.9903360     0.2413970     1.2016820
  H       -2.8462050     2.0977190    -0.1239210
units angstrom
no_reorient  #important for SAPT in psi4, default
symmetry c1  #important for SAPT in psi4, default
}

set PROPERTIES_ORIGIN ["COM"]
properties('MP2/aug-cc-pvtz', properties = ['dipole'])
--------------------------------------------------------------------------

    Molecular point group: c1
  Charge       = 0
  Multiplicity = 1
  Basis Set: AUG-CC-PVTZ
    Blend: AUG-CC-PVTZ
  Basis Set: (AUG-CC-PVTZ AUX)
    Blend: AUG-CC-PVTZ-JKFIT

    Orbital Energies [Eh]
    ---------------------

    Doubly Occupied:

       1A    -20.638907     2A    -20.565570     3A    -20.525412
       4A    -15.591968     5A    -11.405754     6A    -11.356710
       7A    -11.295446     8A    -11.247793     9A    -11.226236
      10A    -11.219922    11A     -1.476398    12A     -1.381801
      13A     -1.373467    14A     -1.251155    15A     -1.074578
      16A     -1.034005    17A     -0.926805    18A     -0.886262
      19A     -0.812677    20A     -0.794856    21A     -0.732557
      22A     -0.713549    23A     -0.684089    24A     -0.665251
      25A     -0.641819    26A     -0.634047    27A     -0.608972
      28A     -0.602581    29A     -0.581382    30A     -0.546053
      31A     -0.543063    32A     -0.526226    33A     -0.520735
      34A     -0.518621    35A     -0.498528    36A     -0.487856
      37A     -0.467791    38A     -0.429129    39A     -0.398613

  @DF-RHF Final Energy:  -512.88236776416772

   => Energetics <=

    Nuclear Repulsion Energy =            548.4721233001222345
    One-Electron Energy =               -1788.9358160759193197
    Two-Electron Energy =                 727.5813250116292465
    Total Energy =                       -512.8823677641677250
  Basis Set: (AUG-CC-PVTZ AUX)
    Blend: AUG-CC-PVTZ-RI
    Molecular point group: c1

    Geometry (in Angstrom), charge = 0, multiplicity = 1:

       Center              X                  Y                   Z               Mass
    ------------   -----------------  -----------------  -----------------  -----------------
         O           -1.951340796355     1.654978039414    -0.187570046017    15.994914619570
         O            1.665154203645    -1.223587160586     0.644897553983    15.994914619570
         O           -3.295043796355    -0.049078160586     0.495975553983    15.994914619570
         N            0.210403203645     0.267156839414    -0.268765446017    14.003074004430
         C           -0.940925696355    -0.477292660586     0.110448053983    12.000000000000
         C           -1.200496796355    -1.682815160586    -0.817373446017    12.000000000000
         C            2.575322203645     0.805653839414    -0.336777446017    12.000000000000
         C            1.464579203645    -0.149334160586     0.071718553983    12.000000000000
         C           -2.194501796355     0.364719839414     0.185580553983    12.000000000000
         C            3.946994203645     0.330918839414     0.116488553983    12.000000000000
         H           -0.787526796355    -0.890868160586     1.129951553983     1.007825032230
         H            0.071357203645     1.195456839414    -0.644036446017     1.007825032230
         H           -1.355211796355    -1.329471160586    -1.839773446017     1.007825032230
         H           -0.327565796355    -2.335851160586    -0.790444446017     1.007825032230
         H           -2.082477796355    -2.237294160586    -0.491271446017     1.007825032230
         H            2.544317203645     0.915589839414    -1.427780446017     1.007825032230
         H            2.351812203645     1.797907839414     0.074467553983     1.007825032230
         H            4.174538203645    -0.648593160586    -0.305877446017     1.007825032230
         H            4.715785203645     1.039259839414    -0.203946446017     1.007825032230
         H            3.986666203645     0.240243839414     1.202794553983     1.007825032230
         H           -2.849874796355     2.096565839414    -0.122808446017     1.007825032230

  Basis Set: AUG-CC-PVTZ
    Blend: AUG-CC-PVTZ
  Basis Set: (AUG-CC-PVTZ AUX)
    Blend: AUG-CC-PVTZ-JKFIT
	 Reference Energy          =    -512.8823677641677250 [Eh]
	 Singles Energy            =      -0.0000000000000000 [Eh]
	 Same-Spin Energy          =      -0.5120733102431094 [Eh]
	 Opposite-Spin Energy      =      -1.6161710779419920 [Eh]
	 Correlation Energy        =      -2.1282443881851014 [Eh]
	 Total Energy              =    -515.0106121523527918 [Eh]

	 ================> DF-SCS-MP2 Energies <==================
	-----------------------------------------------------------
	 SCS Same-Spin Scale       =       0.3333333333333333 [-]
	 SCS Opposite-Spin Scale   =       1.2000000000000000 [-]
	 SCS Same-Spin Energy      =      -0.1706911034143698 [Eh]
	 SCS Opposite-Spin Energy  =      -1.9394052935303903 [Eh]
	 SCS Correlation Energy    =      -2.1100963969447601 [Eh]
	 SCS Total Energy          =    -514.9924641611124798 [Eh]
	-----------------------------------------------------------

  Dipole Moment: [D]
     X:    -0.0627      Y:     3.4279      Z:    -1.8557     Total:     3.8984

*** Psi4 exiting successfully. Buy a developer a beer!
