                               Psi4 1.3.2 release

  ==> Input File <==

--------------------------------------------------------------------------
#psi4
#
memory 32 gb

molecule  {
0 1
  O       -1.9705880     1.6613530    -0.1848000
  O        1.6688240    -1.2224340     0.6437850
  O       -3.2913740    -0.0479250     0.4948630
  N        0.2140730     0.2683100    -0.2698780
  C       -0.9510770    -0.4970410     0.1176100
  C       -1.2708294    -1.6537173    -0.8309963
  C        2.5789920     0.8068070    -0.3378900
  C        1.4682490    -0.1481810     0.0706060
  C       -2.2258848     0.3157771     0.1341918
  C        3.9506640     0.3320720     0.1153760
  H       -0.7838570    -0.8897150     1.1288390
  H        0.0750270     1.1966100    -0.6451490
  H       -1.3515420    -1.3283180    -1.8408860
  H       -0.3238960    -2.3346980    -0.7915570
  H       -2.0788080    -2.2361410    -0.4923840
  H        2.5479870     0.9167430    -1.4288930
  H        2.3554820     1.7990610     0.0733550
  H        4.1782080    -0.6474400    -0.3069900
  H        4.7194550     1.0404130    -0.2050590
  H        3.9903360     0.2413970     1.2016820
  H       -2.8462050     2.0977190    -0.1239210
units angstrom
no_reorient  #important for SAPT in psi4, default
symmetry c1  #important for SAPT in psi4, default
}

set PROPERTIES_ORIGIN ["COM"]
properties('MP2/aug-cc-pvtz', properties = ['dipole'])
--------------------------------------------------------------------------

    Molecular point group: c1
  Charge       = 0
  Multiplicity = 1
  Basis Set: AUG-CC-PVTZ
    Blend: AUG-CC-PVTZ
  Basis Set: (AUG-CC-PVTZ AUX)
    Blend: AUG-CC-PVTZ-JKFIT

    Orbital Energies [Eh]
    ---------------------

    Doubly Occupied:

       1A    -20.623552     2A    -20.572054     3A    -20.524541
       4A    -15.592629     5A    -11.402642     6A    -11.356170
       7A    -11.298367     8A    -11.247137     9A    -11.227939
      10A    -11.219409    11A     -1.475360    12A     -1.382375
      13A     -1.378762    14A     -1.245481    15A     -1.077196
      16A     -1.038349    17A     -0.923310    18A     -0.883691
      19A     -0.810667    20A     -0.789920    21A     -0.729732
      22A     -0.713548    23A     -0.682734    24A     -0.665793
      25A     -0.640642    26A     -0.635867    27A     -0.613318
      28A     -0.605798    29A     -0.583468    30A     -0.559499
      31A     -0.532849    32A     -0.526838    33A     -0.519960
      34A     -0.516214    35A     -0.502316    36A     -0.491279
      37A     -0.466343    38A     -0.427977    39A     -0.400063

  @DF-RHF Final Energy:  -512.87578603175177

   => Energetics <=

    Nuclear Repulsion Energy =            547.9924082375498529
    One-Electron Energy =               -1787.9688120425153102
    Two-Electron Energy =                 727.1006177732136848
    Total Energy =                       -512.8757860317517725
  Basis Set: (AUG-CC-PVTZ AUX)
    Blend: AUG-CC-PVTZ-RI
    Molecular point group: c1

    Geometry (in Angstrom), charge = 0, multiplicity = 1:

       Center              X                  Y                   Z               Mass
    ------------   -----------------  -----------------  -----------------  -----------------
         O           -1.961567221796     1.663185284592    -0.179606476441    15.994914619570
         O            1.677844778204    -1.220601715408     0.648978523559    15.994914619570
         O           -3.282353221796    -0.046092715408     0.500056523559    15.994914619570
         N            0.223093778204     0.270142284592    -0.264684476441    14.003074004430
         C           -0.942056221796    -0.495208715408     0.122803523559    12.000000000000
         C           -1.261808621796    -1.651885015408    -0.825802776441    12.000000000000
         C            2.588012778204     0.808639284592    -0.332696476441    12.000000000000
         C            1.477269778204    -0.146348715408     0.075799523559    12.000000000000
         C           -2.216864021796     0.317609384592     0.139385323559    12.000000000000
         C            3.959684778204     0.333904284592     0.120569523559    12.000000000000
         H           -0.774836221796    -0.887882715408     1.134032523559     1.007825032230
         H            0.084047778204     1.198442284592    -0.639955476441     1.007825032230
         H           -1.342521221796    -1.326485715408    -1.835692476441     1.007825032230
         H           -0.314875221796    -2.332865715408    -0.786363476441     1.007825032230
         H           -2.069787221796    -2.234308715408    -0.487190476441     1.007825032230
         H            2.557007778204     0.918575284592    -1.423699476441     1.007825032230
         H            2.364502778204     1.800893284592     0.078548523559     1.007825032230
         H            4.187228778204    -0.645607715408    -0.301796476441     1.007825032230
         H            4.728475778204     1.042245284592    -0.199865476441     1.007825032230
         H            3.999356778204     0.243229284592     1.206875523559     1.007825032230
         H           -2.837184221796     2.099551284592    -0.118727476441     1.007825032230

  Basis Set: AUG-CC-PVTZ
    Blend: AUG-CC-PVTZ
  Basis Set: (AUG-CC-PVTZ AUX)
    Blend: AUG-CC-PVTZ-JKFIT
	 Reference Energy          =    -512.8757860317517725 [Eh]
	 Singles Energy            =      -0.0000000000000000 [Eh]
	 Same-Spin Energy          =      -0.5113163263414054 [Eh]
	 Opposite-Spin Energy      =      -1.6151279457208902 [Eh]
	 Correlation Energy        =      -2.1264442720622956 [Eh]
	 Total Energy              =    -515.0022303038140308 [Eh]

	 ================> DF-SCS-MP2 Energies <==================
	-----------------------------------------------------------
	 SCS Same-Spin Scale       =       0.3333333333333333 [-]
	 SCS Opposite-Spin Scale   =       1.2000000000000000 [-]
	 SCS Same-Spin Energy      =      -0.1704387754471351 [Eh]
	 SCS Opposite-Spin Energy  =      -1.9381535348650683 [Eh]
	 SCS Correlation Energy    =      -2.1085923103122033 [Eh]
	 SCS Total Energy          =    -514.9843783420640193 [Eh]
	-----------------------------------------------------------

  Dipole Moment: [D]
     X:    -0.2386      Y:     3.0605      Z:    -1.8293     Total:     3.5735

*** Psi4 exiting successfully. Buy a developer a beer!
