                               Psi4 1.4a3.dev225

  ==> Input File <==

--------------------------------------------------------------------------
#psi4
#
memory 32 gb

molecule  {
0 1
  O       -2.1439760    -1.5096120     0.4578230
  O        1.6019480     1.2946100    -0.5777250
  O       -3.1849820    -0.0999640    -0.9818910
  N        0.1649120    -0.2715720     0.2333030
  C       -1.0051050     0.5087660    -0.1211110
  C       -1.3212480     1.5963590     0.9125160
  C        2.5597860    -0.6480590     0.5035240
  C        1.4183570     0.2162400    -0.0039080
  C       -2.2133020    -0.4181998    -0.2732524
  C        3.7806550    -0.5458820    -0.4040570
  H       -0.8075500     0.9861290    -1.0847450
  H        0.0342290    -1.1271740     0.7572540
  H       -1.5188550     1.1449870     1.8886910
  H       -0.4592110     2.2615650     0.9886780
  H       -2.1947650     2.1753270     0.6002850
  H        2.8115640    -0.2961200     1.5118980
  H        2.2315720    -1.6889350     0.6045970
  H        4.0689510     0.4992230    -0.5227640
  H        4.6219880    -1.1034150     0.0157220
  H        3.5611410    -0.9492480    -1.3958190
  H       -2.9864200    -1.9858630     0.3018850
units angstrom
no_reorient  #important for SAPT in psi4, default
symmetry c1  #important for SAPT in psi4, default
}

set PROPERTIES_ORIGIN ["COM"]
properties('MP2/aug-cc-pvtz', properties = ['dipole'])
--------------------------------------------------------------------------

    Molecular point group: c1
  Charge       = 0
  Multiplicity = 1
  Basis Set: AUG-CC-PVTZ
    Blend: AUG-CC-PVTZ
  Basis Set: (AUG-CC-PVTZ AUX)
    Blend: AUG-CC-PVTZ-JKFIT

    Orbital Energies [Eh]
    ---------------------

    Doubly Occupied:

       1A    -20.648626     2A    -20.556983     3A    -20.522565
       4A    -15.595179     5A    -11.404602     6A    -11.356523
       7A    -11.295791     8A    -11.247697     9A    -11.231758
      10A    -11.221805    11A     -1.496804    12A     -1.379234
      13A     -1.360314    14A     -1.245577    15A     -1.074089
      16A     -1.035256    17A     -0.929813    18A     -0.887966
      19A     -0.830660    20A     -0.796953    21A     -0.730525
      22A     -0.718727    23A     -0.680759    24A     -0.668578
      25A     -0.643761    26A     -0.629656    27A     -0.603385
      28A     -0.602508    29A     -0.593942    30A     -0.550375
      31A     -0.540664    32A     -0.532684    33A     -0.523171
      34A     -0.513579    35A     -0.494321    36A     -0.481842
      37A     -0.464669    38A     -0.426908    39A     -0.399132

  @DF-RHF Final Energy:  -512.88271895321941

   => Energetics <=

    Nuclear Repulsion Energy =            547.7816480996302744
    One-Electron Energy =               -1787.4939718277123575
    Two-Electron Energy =                 726.8296047748626734
    Total Energy =                       -512.8827189532194097
  Basis Set: (AUG-CC-PVTZ AUX)
    Blend: AUG-CC-PVTZ-RI
    Molecular point group: c1

    Geometry (in Angstrom), charge = 0, multiplicity = 1:

       Center              X                  Y                   Z               Mass
    ------------   -----------------  -----------------  -----------------  -----------------
         O           -2.080295977357    -1.506757011687     0.480550869474    15.994914619570
         O            1.665628022643     1.297464988313    -0.554997130526    15.994914619570
         O           -3.121301977357    -0.097109011687    -0.959163130526    15.994914619570
         N            0.228592022643    -0.268717011687     0.256030869474    14.003074004430
         C           -0.941424977357     0.511620988313    -0.098383130526    12.000000000000
         C           -1.257567977357     1.599213988313     0.935243869474    12.000000000000
         C            2.623466022643    -0.645204011687     0.526251869474    12.000000000000
         C            1.482037022643     0.219094988313     0.018819869474    12.000000000000
         C           -2.149621977357    -0.415344811687    -0.250524530526    12.000000000000
         C            3.844335022643    -0.543027011687    -0.381329130526    12.000000000000
         H           -0.743869977357     0.988983988313    -1.062017130526     1.007825032230
         H            0.097909022643    -1.124319011687     0.779981869474     1.007825032230
         H           -1.455174977357     1.147841988313     1.911418869474     1.007825032230
         H           -0.395530977357     2.264419988313     1.011405869474     1.007825032230
         H           -2.131084977357     2.178181988313     0.623012869474     1.007825032230
         H            2.875244022643    -0.293265011687     1.534625869474     1.007825032230
         H            2.295252022643    -1.686080011687     0.627324869474     1.007825032230
         H            4.132631022643     0.502077988313    -0.500036130526     1.007825032230
         H            4.685668022643    -1.100560011687     0.038449869474     1.007825032230
         H            3.624821022643    -0.946393011687    -1.373091130526     1.007825032230
         H           -2.922739977357    -1.983008011687     0.324612869474     1.007825032230

  Basis Set: AUG-CC-PVTZ
    Blend: AUG-CC-PVTZ
  Basis Set: (AUG-CC-PVTZ AUX)
    Blend: AUG-CC-PVTZ-JKFIT
	 Reference Energy          =    -512.8827189532194097 [Eh]
	 Singles Energy            =      -0.0000000000000000 [Eh]
	 Same-Spin Energy          =      -0.5113751324625675 [Eh]
	 Opposite-Spin Energy      =      -1.6151911632070122 [Eh]
	 Correlation Energy        =      -2.1265662956695799 [Eh]
	 Total Energy              =    -515.0092852488890003 [Eh]

	 ================> DF-SCS-MP2 Energies <==================
	-----------------------------------------------------------
	 SCS Same-Spin Scale       =       0.3333333333333333 [-]
	 SCS Opposite-Spin Scale   =       1.2000000000000000 [-]
	 SCS Same-Spin Energy      =      -0.1704583774875225 [Eh]
	 SCS Opposite-Spin Energy  =      -1.9382293958484145 [Eh]
	 SCS Correlation Energy    =      -2.1086877733359368 [Eh]
	 SCS Total Energy          =    -514.9914067265553967 [Eh]
	-----------------------------------------------------------

  Dipole Moment: [D]
     X:    -0.1756      Y:    -3.3517      Z:     2.8640     Total:     4.4122

*** Psi4 exiting successfully. Buy a developer a beer!
