                               Psi4 1.4a3.dev225

  ==> Input File <==

--------------------------------------------------------------------------
#psi4
#
memory 32 gb

molecule  {
0 1
  O       -2.1439760    -1.5096120     0.4578230
  O        1.6019480     1.2946100    -0.5777250
  O       -3.1849820    -0.0999640    -0.9818910
  N        0.1649120    -0.2715720     0.2333030
  C       -1.0051050     0.5087660    -0.1211110
  C       -1.3212480     1.5963590     0.9125160
  C        2.5597860    -0.6480590     0.5035240
  C        1.4183570     0.2162400    -0.0039080
  C       -2.2159370    -0.3767160    -0.3010400
  C        3.7806550    -0.5458820    -0.4040570
  H       -0.8075500     0.9861290    -1.0847450
  H        0.0316457    -1.1440871     0.7676112
  H       -1.5188550     1.1449870     1.8886910
  H       -0.4592110     2.2615650     0.9886780
  H       -2.1947650     2.1753270     0.6002850
  H        2.8115640    -0.2961200     1.5118980
  H        2.2315720    -1.6889350     0.6045970
  H        4.0689510     0.4992230    -0.5227640
  H        4.6219880    -1.1034150     0.0157220
  H        3.5611410    -0.9492480    -1.3958190
  H       -2.9864200    -1.9858630     0.3018850
units angstrom
no_reorient  #important for SAPT in psi4, default
symmetry c1  #important for SAPT in psi4, default
}

set PROPERTIES_ORIGIN ["COM"]
properties('MP2/aug-cc-pvtz', properties = ['dipole'])
--------------------------------------------------------------------------

    Molecular point group: c1
  Charge       = 0
  Multiplicity = 1
  Basis Set: AUG-CC-PVTZ
    Blend: AUG-CC-PVTZ
  Basis Set: (AUG-CC-PVTZ AUX)
    Blend: AUG-CC-PVTZ-JKFIT

    Orbital Energies [Eh]
    ---------------------

    Doubly Occupied:

       1A    -20.634434     2A    -20.565128     3A    -20.522655
       4A    -15.597434     5A    -11.403925     6A    -11.356794
       7A    -11.296459     8A    -11.247631     9A    -11.233299
      10A    -11.221755    11A     -1.476473    12A     -1.379279
      13A     -1.372654    14A     -1.243886    15A     -1.075831
      16A     -1.036917    17A     -0.928317    18A     -0.885710
      19A     -0.820549    20A     -0.791943    21A     -0.727335
      22A     -0.713802    23A     -0.680384    24A     -0.660933
      25A     -0.642381    26A     -0.628965    27A     -0.609247
      28A     -0.600606    29A     -0.593118    30A     -0.552437
      31A     -0.541601    32A     -0.534283    33A     -0.523239
      34A     -0.513936    35A     -0.497819    36A     -0.487875
      37A     -0.468859    38A     -0.427303    39A     -0.400112

  @DF-RHF Final Energy:  -512.88521625346016

   => Energetics <=

    Nuclear Repulsion Energy =            547.6257116111243022
    One-Electron Energy =               -1787.2312352192086564
    Two-Electron Energy =                 726.7203073546240830
    Total Energy =                       -512.8852162534601575
  Basis Set: (AUG-CC-PVTZ AUX)
    Blend: AUG-CC-PVTZ-RI
    Molecular point group: c1

    Geometry (in Angstrom), charge = 0, multiplicity = 1:

       Center              X                  Y                   Z               Mass
    ------------   -----------------  -----------------  -----------------  -----------------
         O           -2.080060073338    -1.510070910169     0.482777410359    15.994914619570
         O            1.665863926662     1.294151089831    -0.552770589641    15.994914619570
         O           -3.121066073338    -0.100422910169    -0.956936589641    15.994914619570
         N            0.228827926662    -0.272030910169     0.258257410359    14.003074004430
         C           -0.941189073338     0.508307089831    -0.096156589641    12.000000000000
         C           -1.257332073338     1.595900089831     0.937470410359    12.000000000000
         C            2.623701926662    -0.648517910169     0.528478410359    12.000000000000
         C            1.482272926662     0.215781089831     0.021046410359    12.000000000000
         C           -2.152021073338    -0.377174910169    -0.276085589641    12.000000000000
         C            3.844570926662    -0.546340910169    -0.379102589641    12.000000000000
         H           -0.743634073338     0.985670089831    -1.059790589641     1.007825032230
         H            0.095561626662    -1.144546010169     0.792565610359     1.007825032230
         H           -1.454939073338     1.144528089831     1.913645410359     1.007825032230
         H           -0.395295073338     2.261106089831     1.013632410359     1.007825032230
         H           -2.130849073338     2.174868089831     0.625239410359     1.007825032230
         H            2.875479926662    -0.296578910169     1.536852410359     1.007825032230
         H            2.295487926662    -1.689393910169     0.629551410359     1.007825032230
         H            4.132866926662     0.498764089831    -0.497809589641     1.007825032230
         H            4.685903926662    -1.103873910169     0.040676410359     1.007825032230
         H            3.625056926662    -0.949706910169    -1.370864589641     1.007825032230
         H           -2.922504073338    -1.986321910169     0.326839410359     1.007825032230

  Basis Set: AUG-CC-PVTZ
    Blend: AUG-CC-PVTZ
  Basis Set: (AUG-CC-PVTZ AUX)
    Blend: AUG-CC-PVTZ-JKFIT
	 Reference Energy          =    -512.8852162534601575 [Eh]
	 Singles Energy            =      -0.0000000000000000 [Eh]
	 Same-Spin Energy          =      -0.5113582605446694 [Eh]
	 Opposite-Spin Energy      =      -1.6154987123712545 [Eh]
	 Correlation Energy        =      -2.1268569729159239 [Eh]
	 Total Energy              =    -515.0120732263760601 [Eh]

	 ================> DF-SCS-MP2 Energies <==================
	-----------------------------------------------------------
	 SCS Same-Spin Scale       =       0.3333333333333333 [-]
	 SCS Opposite-Spin Scale   =       1.2000000000000000 [-]
	 SCS Same-Spin Energy      =      -0.1704527535148898 [Eh]
	 SCS Opposite-Spin Energy  =      -1.9385984548455053 [Eh]
	 SCS Correlation Energy    =      -2.1090512083603952 [Eh]
	 SCS Total Energy          =    -514.9942674618205274 [Eh]
	-----------------------------------------------------------

  Dipole Moment: [D]
     X:    -0.2265      Y:    -3.0548      Z:     2.6576     Total:     4.0554

*** Psi4 exiting successfully. Buy a developer a beer!
