                               Psi4 1.4a3.dev225

  ==> Input File <==

--------------------------------------------------------------------------
#psi4
#
memory 32 gb

molecule  {
0 1
  O       -2.1439760    -1.5096120     0.4578230
  O        1.6019480     1.2946100    -0.5777250
  O       -3.1849820    -0.0999640    -0.9818910
  N        0.1649120    -0.2715720     0.2333030
  C       -1.0051050     0.5087660    -0.1211110
  C       -1.3212480     1.5963590     0.9125160
  C        2.5597860    -0.6480590     0.5035240
  C        1.4183570     0.2162400    -0.0039080
  C       -2.2560091    -0.4060207    -0.3069947
  C        3.7806550    -0.5458820    -0.4040570
  H       -0.8075500     0.9861290    -1.0847450
  H        0.0342290    -1.1271740     0.7572540
  H       -1.5188550     1.1449870     1.8886910
  H       -0.4592110     2.2615650     0.9886780
  H       -2.1947650     2.1753270     0.6002850
  H        2.8115640    -0.2961200     1.5118980
  H        2.2315720    -1.6889350     0.6045970
  H        4.0689510     0.4992230    -0.5227640
  H        4.6219880    -1.1034150     0.0157220
  H        3.5611410    -0.9492480    -1.3958190
  H       -2.9864200    -1.9858630     0.3018850
units angstrom
no_reorient  #important for SAPT in psi4, default
symmetry c1  #important for SAPT in psi4, default
}

set PROPERTIES_ORIGIN ["COM"]
properties('MP2/aug-cc-pvtz', properties = ['dipole'])
--------------------------------------------------------------------------

    Molecular point group: c1
  Charge       = 0
  Multiplicity = 1
  Basis Set: AUG-CC-PVTZ
    Blend: AUG-CC-PVTZ
  Basis Set: (AUG-CC-PVTZ AUX)
    Blend: AUG-CC-PVTZ-JKFIT

    Orbital Energies [Eh]
    ---------------------

    Doubly Occupied:

       1A    -20.639062     2A    -20.567600     3A    -20.520626
       4A    -15.593043     5A    -11.400358     6A    -11.354775
       7A    -11.293589     8A    -11.246346     9A    -11.229710
      10A    -11.220783    11A     -1.489847    12A     -1.391813
      13A     -1.377237    14A     -1.241842    15A     -1.070563
      16A     -1.031789    17A     -0.921972    18A     -0.883296
      19A     -0.820715    20A     -0.793746    21A     -0.728553
      22A     -0.719968    23A     -0.679506    24A     -0.664778
      25A     -0.648015    26A     -0.628211    27A     -0.609283
      28A     -0.600288    29A     -0.591795    30A     -0.552011
      31A     -0.539969    32A     -0.533644    33A     -0.521969
      34A     -0.513585    35A     -0.503526    36A     -0.488501
      37A     -0.464145    38A     -0.425301    39A     -0.396853

  @DF-RHF Final Energy:  -512.88641961815654

   => Energetics <=

    Nuclear Repulsion Energy =            547.5547093268271510
    One-Electron Energy =               -1787.0850292573220486
    Two-Electron Energy =                 726.6439003123383600
    Total Energy =                       -512.8864196181565376
  Basis Set: (AUG-CC-PVTZ AUX)
    Blend: AUG-CC-PVTZ-RI
    Molecular point group: c1

    Geometry (in Angstrom), charge = 0, multiplicity = 1:

       Center              X                  Y                   Z               Mass
    ------------   -----------------  -----------------  -----------------  -----------------
         O           -2.076763396900    -1.507764423819     0.483341913342    15.994914619570
         O            1.669160603100     1.296457576181    -0.552206086658    15.994914619570
         O           -3.117769396900    -0.098116423819    -0.956372086658    15.994914619570
         N            0.232124603100    -0.269724423819     0.258821913342    14.003074004430
         C           -0.937892396900     0.510613576181    -0.095592086658    12.000000000000
         C           -1.254035396900     1.598206576181     0.938034913342    12.000000000000
         C            2.626998603100    -0.646211423819     0.529042913342    12.000000000000
         C            1.485569603100     0.218087576181     0.021610913342    12.000000000000
         C           -2.188796496900    -0.404173123819    -0.281475786658    12.000000000000
         C            3.847867603100    -0.544034423819    -0.378538086658    12.000000000000
         H           -0.740337396900     0.987976576181    -1.059226086658     1.007825032230
         H            0.101441603100    -1.125326423819     0.782772913342     1.007825032230
         H           -1.451642396900     1.146834576181     1.914209913342     1.007825032230
         H           -0.391998396900     2.263412576181     1.014196913342     1.007825032230
         H           -2.127552396900     2.177174576181     0.625803913342     1.007825032230
         H            2.878776603100    -0.294272423819     1.537416913342     1.007825032230
         H            2.298784603100    -1.687087423819     0.630115913342     1.007825032230
         H            4.136163603100     0.501070576181    -0.497245086658     1.007825032230
         H            4.689200603100    -1.101567423819     0.041240913342     1.007825032230
         H            3.628353603100    -0.947400423819    -1.370300086658     1.007825032230
         H           -2.919207396900    -1.984015423819     0.327403913342     1.007825032230

  Basis Set: AUG-CC-PVTZ
    Blend: AUG-CC-PVTZ
  Basis Set: (AUG-CC-PVTZ AUX)
    Blend: AUG-CC-PVTZ-JKFIT
	 Reference Energy          =    -512.8864196181565376 [Eh]
	 Singles Energy            =      -0.0000000000000000 [Eh]
	 Same-Spin Energy          =      -0.5103689024695510 [Eh]
	 Opposite-Spin Energy      =      -1.6134714459544270 [Eh]
	 Correlation Energy        =      -2.1238403484239781 [Eh]
	 Total Energy              =    -515.0102599665805201 [Eh]

	 ================> DF-SCS-MP2 Energies <==================
	-----------------------------------------------------------
	 SCS Same-Spin Scale       =       0.3333333333333333 [-]
	 SCS Opposite-Spin Scale   =       1.2000000000000000 [-]
	 SCS Same-Spin Energy      =      -0.1701229674898503 [Eh]
	 SCS Opposite-Spin Energy  =      -1.9361657351453123 [Eh]
	 SCS Correlation Energy    =      -2.1062887026351627 [Eh]
	 SCS Total Energy          =    -514.9927083207917349 [Eh]
	-----------------------------------------------------------

  Dipole Moment: [D]
     X:    -0.4768      Y:    -3.2218      Z:     2.6032     Total:     4.1694

*** Psi4 exiting successfully. Buy a developer a beer!
