                               Psi4 1.3.2 release

  ==> Input File <==

--------------------------------------------------------------------------
#psi4
#
memory 32 gb

molecule  {
0 1
  O       -1.9705880     1.6613530    -0.1848000
  O        1.6688240    -1.2224340     0.6437850
  O       -3.2913740    -0.0479250     0.4948630
  N        0.1997111     0.2890314    -0.2713123
  C       -0.9510770    -0.4970410     0.1176100
  C       -1.1968270    -1.6816620    -0.8184860
  C        2.5789920     0.8068070    -0.3378900
  C        1.4682490    -0.1481810     0.0706060
  C       -2.1763918     0.3867700     0.1773154
  C        3.9506640     0.3320720     0.1153760
  H       -0.7838570    -0.8897150     1.1288390
  H        0.0750270     1.1966100    -0.6451490
  H       -1.3515420    -1.3283180    -1.8408860
  H       -0.3238960    -2.3346980    -0.7915570
  H       -2.0788080    -2.2361410    -0.4923840
  H        2.5479870     0.9167430    -1.4288930
  H        2.3554820     1.7990610     0.0733550
  H        4.1782080    -0.6474400    -0.3069900
  H        4.7194550     1.0404130    -0.2050590
  H        3.9903360     0.2413970     1.2016820
  H       -2.8462050     2.0977190    -0.1239210
units angstrom
no_reorient  #important for SAPT in psi4, default
symmetry c1  #important for SAPT in psi4, default
}

set PROPERTIES_ORIGIN ["COM"]
properties('MP2/aug-cc-pvtz', properties = ['dipole'])
--------------------------------------------------------------------------

    Molecular point group: c1
  Charge       = 0
  Multiplicity = 1
  Basis Set: AUG-CC-PVTZ
    Blend: AUG-CC-PVTZ
  Basis Set: (AUG-CC-PVTZ AUX)
    Blend: AUG-CC-PVTZ-JKFIT

    Orbital Energies [Eh]
    ---------------------

    Doubly Occupied:

       1A    -20.642521     2A    -20.558233     3A    -20.528942
       4A    -15.589437     5A    -11.405429     6A    -11.359333
       7A    -11.296645     8A    -11.248100     9A    -11.226236
      10A    -11.220359    11A     -1.485035    12A     -1.381157
      13A     -1.362270    14A     -1.245899    15A     -1.074678
      16A     -1.034975    17A     -0.929980    18A     -0.887254
      19A     -0.823204    20A     -0.793620    21A     -0.730730
      22A     -0.715835    23A     -0.683320    24A     -0.666497
      25A     -0.641990    26A     -0.634149    27A     -0.606866
      28A     -0.604572    29A     -0.582183    30A     -0.546601
      31A     -0.542982    32A     -0.525925    33A     -0.521393
      34A     -0.519914    35A     -0.495016    36A     -0.484242
      37A     -0.465681    38A     -0.429458    39A     -0.400401

  @DF-RHF Final Energy:  -512.88301485404406

   => Energetics <=

    Nuclear Repulsion Energy =            547.8725145155344762
    One-Electron Energy =               -1787.7289399552637406
    Two-Electron Energy =                 726.9734105856852011
    Total Energy =                       -512.8830148540440632
  Basis Set: (AUG-CC-PVTZ AUX)
    Blend: AUG-CC-PVTZ-RI
    Molecular point group: c1

    Geometry (in Angstrom), charge = 0, multiplicity = 1:

       Center              X                  Y                   Z               Mass
    ------------   -----------------  -----------------  -----------------  -----------------
         O           -1.970396060832     1.657624382628    -0.184069872140    15.994914619570
         O            1.669015939168    -1.226162617372     0.644515127860    15.994914619570
         O           -3.291182060832    -0.051653617372     0.495593127860    15.994914619570
         N            0.199903039168     0.285302782628    -0.270582172140    14.003074004430
         C           -0.950885060832    -0.500769617372     0.118340127860    12.000000000000
         C           -1.196635060832    -1.685390617372    -0.817755872140    12.000000000000
         C            2.579183939168     0.803078382628    -0.337159872140    12.000000000000
         C            1.468440939168    -0.151909617372     0.071336127860    12.000000000000
         C           -2.176199860832     0.383041382628     0.178045527860    12.000000000000
         C            3.950855939168     0.328343382628     0.116106127860    12.000000000000
         H           -0.783665060832    -0.893443617372     1.129569127860     1.007825032230
         H            0.075218939168     1.192881382628    -0.644418872140     1.007825032230
         H           -1.351350060832    -1.332046617372    -1.840155872140     1.007825032230
         H           -0.323704060832    -2.338426617372    -0.790826872140     1.007825032230
         H           -2.078616060832    -2.239869617372    -0.491653872140     1.007825032230
         H            2.548178939168     0.913014382628    -1.428162872140     1.007825032230
         H            2.355673939168     1.795332382628     0.074085127860     1.007825032230
         H            4.178399939168    -0.651168617372    -0.306259872140     1.007825032230
         H            4.719646939168     1.036684382628    -0.204328872140     1.007825032230
         H            3.990527939168     0.237668382628     1.202412127860     1.007825032230
         H           -2.846013060832     2.093990382628    -0.123190872140     1.007825032230

  Basis Set: AUG-CC-PVTZ
    Blend: AUG-CC-PVTZ
  Basis Set: (AUG-CC-PVTZ AUX)
    Blend: AUG-CC-PVTZ-JKFIT
	 Reference Energy          =    -512.8830148540440632 [Eh]
	 Singles Energy            =      -0.0000000000000000 [Eh]
	 Same-Spin Energy          =      -0.5115390654712584 [Eh]
	 Opposite-Spin Energy      =      -1.6153887409688854 [Eh]
	 Correlation Energy        =      -2.1269278064401438 [Eh]
	 Total Energy              =    -515.0099426604841710 [Eh]

	 ================> DF-SCS-MP2 Energies <==================
	-----------------------------------------------------------
	 SCS Same-Spin Scale       =       0.3333333333333333 [-]
	 SCS Opposite-Spin Scale   =       1.2000000000000000 [-]
	 SCS Same-Spin Energy      =      -0.1705130218237528 [Eh]
	 SCS Opposite-Spin Energy  =      -1.9384664891626624 [Eh]
	 SCS Correlation Energy    =      -2.1089795109864151 [Eh]
	 SCS Total Energy          =    -514.9919943650304504 [Eh]
	-----------------------------------------------------------

  Dipole Moment: [D]
     X:     0.1228      Y:     3.4751      Z:    -1.9000     Total:     3.9625

*** Psi4 exiting successfully. Buy a developer a beer!
