                               Psi4 1.3.2 release

  ==> Input File <==

--------------------------------------------------------------------------
#psi4
#
memory 32 gb

molecule  {
0 1
  O       -1.9705880     1.6613530    -0.1848000
  O        1.6688240    -1.2224340     0.6437850
  O       -3.2913740    -0.0479250     0.4948630
  N        0.2140730     0.2683100    -0.2698780
  C       -0.9992311    -0.4779839     0.1046124
  C       -1.1968270    -1.6816620    -0.8184860
  C        2.5789920     0.8068070    -0.3378900
  C        1.4682490    -0.1481810     0.0706060
  C       -2.1908320     0.3658730     0.1844680
  C        3.9506640     0.3320720     0.1153760
  H       -0.7838570    -0.8897150     1.1288390
  H        0.0750270     1.1966100    -0.6451490
  H       -1.3515420    -1.3283180    -1.8408860
  H       -0.3411724    -2.3577100    -0.8164732
  H       -2.0788080    -2.2361410    -0.4923840
  H        2.5479870     0.9167430    -1.4288930
  H        2.3554820     1.7990610     0.0733550
  H        4.1782080    -0.6474400    -0.3069900
  H        4.7194550     1.0404130    -0.2050590
  H        3.9903360     0.2413970     1.2016820
  H       -2.8462050     2.0977190    -0.1239210
units angstrom
no_reorient  #important for SAPT in psi4, default
symmetry c1  #important for SAPT in psi4, default
}

set PROPERTIES_ORIGIN ["COM"]
properties('MP2/aug-cc-pvtz', properties = ['dipole'])
--------------------------------------------------------------------------

    Molecular point group: c1
  Charge       = 0
  Multiplicity = 1
  Basis Set: AUG-CC-PVTZ
    Blend: AUG-CC-PVTZ
  Basis Set: (AUG-CC-PVTZ AUX)
    Blend: AUG-CC-PVTZ-JKFIT

    Orbital Energies [Eh]
    ---------------------

    Doubly Occupied:

       1A    -20.637590     2A    -20.565206     3A    -20.523312
       4A    -15.590859     5A    -11.406162     6A    -11.355420
       7A    -11.298677     8A    -11.246793     9A    -11.228975
      10A    -11.219151    11A     -1.480836    12A     -1.378481
      13A     -1.375403    14A     -1.240672    15A     -1.078030
      16A     -1.038221    17A     -0.934101    18A     -0.887138
      19A     -0.813899    20A     -0.791160    21A     -0.733003
      22A     -0.715726    23A     -0.681273    24A     -0.667852
      25A     -0.641074    26A     -0.631262    27A     -0.612974
      28A     -0.600702    29A     -0.577072    30A     -0.553454
      31A     -0.544399    32A     -0.521650    33A     -0.519688
      34A     -0.517832    35A     -0.497889    36A     -0.486771
      37A     -0.473050    38A     -0.427204    39A     -0.399122

  @DF-RHF Final Energy:  -512.88174374239441

   => Energetics <=

    Nuclear Repulsion Energy =            548.0109689225675993
    One-Electron Energy =               -1788.0012530045385120
    Two-Electron Energy =                 727.1085403395765070
    Total Energy =                       -512.8817437423944057
  Basis Set: (AUG-CC-PVTZ AUX)
    Blend: AUG-CC-PVTZ-RI
    Molecular point group: c1

    Geometry (in Angstrom), charge = 0, multiplicity = 1:

       Center              X                  Y                   Z               Mass
    ------------   -----------------  -----------------  -----------------  -----------------
         O           -1.966484726909     1.659936543416    -0.183551746105    15.994914619570
         O            1.672927273091    -1.223850456584     0.645033253895    15.994914619570
         O           -3.287270726909    -0.049341456584     0.496111253895    15.994914619570
         N            0.218176273091     0.266893543416    -0.268629746105    14.003074004430
         C           -0.995127826909    -0.479400356584     0.105860653895    12.000000000000
         C           -1.192723726909    -1.683078456584    -0.817237746105    12.000000000000
         C            2.583095273091     0.805390543416    -0.336641746105    12.000000000000
         C            1.472352273091    -0.149597456584     0.071854253895    12.000000000000
         C           -2.186728726909     0.364456543416     0.185716253895    12.000000000000
         C            3.954767273091     0.330655543416     0.116624253895    12.000000000000
         H           -0.779753726909    -0.891131456584     1.130087253895     1.007825032230
         H            0.079130273091     1.195193543416    -0.643900746105     1.007825032230
         H           -1.347438726909    -1.329734456584    -1.839637746105     1.007825032230
         H           -0.337069126909    -2.359126456584    -0.815224946105     1.007825032230
         H           -2.074704726909    -2.237557456584    -0.491135746105     1.007825032230
         H            2.552090273091     0.915326543416    -1.427644746105     1.007825032230
         H            2.359585273091     1.797644543416     0.074603253895     1.007825032230
         H            4.182311273091    -0.648856456584    -0.305741746105     1.007825032230
         H            4.723558273091     1.038996543416    -0.203810746105     1.007825032230
         H            3.994439273091     0.239980543416     1.202930253895     1.007825032230
         H           -2.842101726909     2.096302543416    -0.122672746105     1.007825032230

  Basis Set: AUG-CC-PVTZ
    Blend: AUG-CC-PVTZ
  Basis Set: (AUG-CC-PVTZ AUX)
    Blend: AUG-CC-PVTZ-JKFIT
	 Reference Energy          =    -512.8817437423944057 [Eh]
	 Singles Energy            =      -0.0000000000000000 [Eh]
	 Same-Spin Energy          =      -0.5116595245870931 [Eh]
	 Opposite-Spin Energy      =      -1.6156370614360975 [Eh]
	 Correlation Energy        =      -2.1272965860231907 [Eh]
	 Total Energy              =    -515.0090403284175409 [Eh]

	 ================> DF-SCS-MP2 Energies <==================
	-----------------------------------------------------------
	 SCS Same-Spin Scale       =       0.3333333333333333 [-]
	 SCS Opposite-Spin Scale   =       1.2000000000000000 [-]
	 SCS Same-Spin Energy      =      -0.1705531748623643 [Eh]
	 SCS Opposite-Spin Energy  =      -1.9387644737233170 [Eh]
	 SCS Correlation Energy    =      -2.1093176485856815 [Eh]
	 SCS Total Energy          =    -514.9910613909801214 [Eh]
	-----------------------------------------------------------

  Dipole Moment: [D]
     X:    -0.1475      Y:     3.3198      Z:    -1.8766     Total:     3.8164

*** Psi4 exiting successfully. Buy a developer a beer!
