                               Psi4 1.4a3.dev225

  ==> Input File <==

--------------------------------------------------------------------------
#psi4
#
memory 32 gb

molecule  {
0 1
  O       -2.1439760    -1.5096120     0.4578230
  O        1.6019480     1.2946100    -0.5777250
  O       -3.1849820    -0.0999640    -0.9818910
  N        0.1649120    -0.2715720     0.2333030
  C       -1.0051050     0.5087660    -0.1211110
  C       -1.3212480     1.5963590     0.9125160
  C        2.5597860    -0.6480590     0.5035240
  C        1.3807853     0.2446896    -0.0206108
  C       -2.2159370    -0.3767160    -0.3010400
  C        3.7806550    -0.5458820    -0.4040570
  H       -0.8075500     0.9861290    -1.0847450
  H        0.0342290    -1.1271740     0.7572540
  H       -1.5188550     1.1449870     1.8886910
  H       -0.4592110     2.2615650     0.9886780
  H       -2.1947650     2.1753270     0.6002850
  H        2.8115640    -0.2961200     1.5118980
  H        2.2315720    -1.6889350     0.6045970
  H        4.0689510     0.4992230    -0.5227640
  H        4.6219880    -1.1034150     0.0157220
  H        3.5611410    -0.9492480    -1.3958190
  H       -2.9864200    -1.9858630     0.3018850
units angstrom
no_reorient  #important for SAPT in psi4, default
symmetry c1  #important for SAPT in psi4, default
}

set PROPERTIES_ORIGIN ["COM"]
properties('MP2/aug-cc-pvtz', properties = ['dipole'])
--------------------------------------------------------------------------

    Molecular point group: c1
  Charge       = 0
  Multiplicity = 1
  Basis Set: AUG-CC-PVTZ
    Blend: AUG-CC-PVTZ
  Basis Set: (AUG-CC-PVTZ AUX)
    Blend: AUG-CC-PVTZ-JKFIT

    Orbital Energies [Eh]
    ---------------------

    Doubly Occupied:

       1A    -20.635585     2A    -20.566082     3A    -20.524741
       4A    -15.597055     5A    -11.404860     6A    -11.353273
       7A    -11.297372     8A    -11.244407     9A    -11.234975
      10A    -11.218595    11A     -1.477584    12A     -1.395388
      13A     -1.373704    14A     -1.255617    15A     -1.072136
      16A     -1.033573    17A     -0.929512    18A     -0.878048
      19A     -0.823947    20A     -0.800575    21A     -0.728743
      22A     -0.715683    23A     -0.679086    24A     -0.662079
      25A     -0.642600    26A     -0.629177    27A     -0.609480
      28A     -0.605198    29A     -0.597889    30A     -0.554017
      31A     -0.544614    32A     -0.532733    33A     -0.523505
      34A     -0.513147    35A     -0.497287    36A     -0.490293
      37A     -0.470555    38A     -0.421018    39A     -0.405183

  @DF-RHF Final Energy:  -512.88597704131575

   => Energetics <=

    Nuclear Repulsion Energy =            548.2038966993388840
    One-Electron Energy =               -1788.3011123601750114
    Two-Electron Energy =                 727.2112386195203726
    Total Energy =                       -512.8859770413157548
  Basis Set: (AUG-CC-PVTZ AUX)
    Blend: AUG-CC-PVTZ-RI
    Molecular point group: c1

    Geometry (in Angstrom), charge = 0, multiplicity = 1:

       Center              X                  Y                   Z               Mass
    ------------   -----------------  -----------------  -----------------  -----------------
         O           -2.076970221156    -1.512541655509     0.484230958208    15.994914619570
         O            1.668953778844     1.291680344491    -0.551317041792    15.994914619570
         O           -3.117976221156    -0.102893655509    -0.955483041792    15.994914619570
         N            0.231917778844    -0.274501655509     0.259710958208    14.003074004430
         C           -0.938099221156     0.505836344491    -0.094703041792    12.000000000000
         C           -1.254242221156     1.593429344491     0.938923958208    12.000000000000
         C            2.626791778844    -0.650988655509     0.529931958208    12.000000000000
         C            1.447791078844     0.241759944491     0.005797158208    12.000000000000
         C           -2.148931221156    -0.379645655509    -0.274632041792    12.000000000000
         C            3.847660778844    -0.548811655509    -0.377649041792    12.000000000000
         H           -0.740544221156     0.983199344491    -1.058337041792     1.007825032230
         H            0.101234778844    -1.130103655509     0.783661958208     1.007825032230
         H           -1.451849221156     1.142057344491     1.915098958208     1.007825032230
         H           -0.392205221156     2.258635344491     1.015085958208     1.007825032230
         H           -2.127759221156     2.172397344491     0.626692958208     1.007825032230
         H            2.878569778844    -0.299049655509     1.538305958208     1.007825032230
         H            2.298577778844    -1.691864655509     0.631004958208     1.007825032230
         H            4.135956778844     0.496293344491    -0.496356041792     1.007825032230
         H            4.688993778844    -1.106344655509     0.042129958208     1.007825032230
         H            3.628146778844    -0.952177655509    -1.369411041792     1.007825032230
         H           -2.919414221156    -1.988792655509     0.328292958208     1.007825032230

  Basis Set: AUG-CC-PVTZ
    Blend: AUG-CC-PVTZ
  Basis Set: (AUG-CC-PVTZ AUX)
    Blend: AUG-CC-PVTZ-JKFIT
	 Reference Energy          =    -512.8859770413157548 [Eh]
	 Singles Energy            =      -0.0000000000000000 [Eh]
	 Same-Spin Energy          =      -0.5104830932227105 [Eh]
	 Opposite-Spin Energy      =      -1.6137901283256435 [Eh]
	 Correlation Energy        =      -2.1242732215483540 [Eh]
	 Total Energy              =    -515.0102502628641332 [Eh]

	 ================> DF-SCS-MP2 Energies <==================
	-----------------------------------------------------------
	 SCS Same-Spin Scale       =       0.3333333333333333 [-]
	 SCS Opposite-Spin Scale   =       1.2000000000000000 [-]
	 SCS Same-Spin Energy      =      -0.1701610310742368 [Eh]
	 SCS Opposite-Spin Energy  =      -1.9365481539907721 [Eh]
	 SCS Correlation Energy    =      -2.1067091850650090 [Eh]
	 SCS Total Energy          =    -514.9926862263807834 [Eh]
	-----------------------------------------------------------

  Dipole Moment: [D]
     X:    -0.4536      Y:    -2.9086      Z:     2.5850     Total:     3.9177

*** Psi4 exiting successfully. Buy a developer a beer!
