                               Psi4 1.3.2 release

  ==> Input File <==

--------------------------------------------------------------------------
#psi4
#
memory 32 gb

molecule  {
0 1
  O       -1.9705880     1.6613530    -0.1848000
  O        1.6688240    -1.2224340     0.6437850
  O       -3.2913740    -0.0479250     0.4948630
  N        0.1849987     0.3095133    -0.2726282
  C       -0.9510770    -0.4970410     0.1176100
  C       -1.1968270    -1.6816620    -0.8184860
  C        2.5789920     0.8068070    -0.3378900
  C        1.4682490    -0.1481810     0.0706060
  C       -2.1615784     0.4073978     0.1701446
  C        3.9506640     0.3320720     0.1153760
  H       -0.7838570    -0.8897150     1.1288390
  H        0.0750270     1.1966100    -0.6451490
  H       -1.3515420    -1.3283180    -1.8408860
  H       -0.3238960    -2.3346980    -0.7915570
  H       -2.0788080    -2.2361410    -0.4923840
  H        2.5479870     0.9167430    -1.4288930
  H        2.3554820     1.7990610     0.0733550
  H        4.1782080    -0.6474400    -0.3069900
  H        4.7194550     1.0404130    -0.2050590
  H        3.9903360     0.2413970     1.2016820
  H       -2.8462050     2.0977190    -0.1239210
units angstrom
no_reorient  #important for SAPT in psi4, default
symmetry c1  #important for SAPT in psi4, default
}

set PROPERTIES_ORIGIN ["COM"]
properties('MP2/aug-cc-pvtz', properties = ['dipole'])
--------------------------------------------------------------------------

    Molecular point group: c1
  Charge       = 0
  Multiplicity = 1
  Basis Set: AUG-CC-PVTZ
    Blend: AUG-CC-PVTZ
  Basis Set: (AUG-CC-PVTZ AUX)
    Blend: AUG-CC-PVTZ-JKFIT

    Orbital Energies [Eh]
    ---------------------

    Doubly Occupied:

       1A    -20.648208     2A    -20.551733     3A    -20.533259
       4A    -15.587218     5A    -11.405041     6A    -11.362707
       7A    -11.296376     8A    -11.248984     9A    -11.225703
      10A    -11.221160    11A     -1.494383    12A     -1.382122
      13A     -1.348269    14A     -1.245836    15A     -1.074071
      16A     -1.034285    17A     -0.932076    18A     -0.888843
      19A     -0.829602    20A     -0.795151    21A     -0.730420
      22A     -0.717579    23A     -0.684077    24A     -0.667200
      25A     -0.642789    26A     -0.635597    27A     -0.609297
      28A     -0.598851    29A     -0.583294    30A     -0.545854
      31A     -0.541541    32A     -0.527211    33A     -0.521887
      34A     -0.519654    35A     -0.494539    36A     -0.477094
      37A     -0.462077    38A     -0.430308    39A     -0.400518

  @DF-RHF Final Energy:  -512.87598432313337

   => Energetics <=

    Nuclear Repulsion Energy =            547.7410866186024805
    One-Electron Energy =               -1787.4445157425072921
    Two-Electron Energy =                 726.8274448007713318
    Total Energy =                       -512.8759843231333662
  Basis Set: (AUG-CC-PVTZ AUX)
    Blend: AUG-CC-PVTZ-RI
    Molecular point group: c1

    Geometry (in Angstrom), charge = 0, multiplicity = 1:

       Center              X                  Y                   Z               Mass
    ------------   -----------------  -----------------  -----------------  -----------------
         O           -1.970201277157     1.653941134391    -0.183349713311    15.994914619570
         O            1.669210722843    -1.229845865609     0.645235286689    15.994914619570
         O           -3.290987277157    -0.055336865609     0.496313286689    15.994914619570
         N            0.185385422843     0.302101434391    -0.271177913311    14.003074004430
         C           -0.950690277157    -0.504452865609     0.119060286689    12.000000000000
         C           -1.196440277157    -1.689073865609    -0.817035713311    12.000000000000
         C            2.579378722843     0.799395134391    -0.336439713311    12.000000000000
         C            1.468635722843    -0.155592865609     0.072056286689    12.000000000000
         C           -2.161191677157     0.399985934391     0.171594886689    12.000000000000
         C            3.951050722843     0.324660134391     0.116826286689    12.000000000000
         H           -0.783470277157    -0.897126865609     1.130289286689     1.007825032230
         H            0.075413722843     1.189198134391    -0.643698713311     1.007825032230
         H           -1.351155277157    -1.335729865609    -1.839435713311     1.007825032230
         H           -0.323509277157    -2.342109865609    -0.790106713311     1.007825032230
         H           -2.078421277157    -2.243552865609    -0.490933713311     1.007825032230
         H            2.548373722843     0.909331134391    -1.427442713311     1.007825032230
         H            2.355868722843     1.791649134391     0.074805286689     1.007825032230
         H            4.178594722843    -0.654851865609    -0.305539713311     1.007825032230
         H            4.719841722843     1.033001134391    -0.203608713311     1.007825032230
         H            3.990722722843     0.233985134391     1.203132286689     1.007825032230
         H           -2.845818277157     2.090307134391    -0.122470713311     1.007825032230

  Basis Set: AUG-CC-PVTZ
    Blend: AUG-CC-PVTZ
  Basis Set: (AUG-CC-PVTZ AUX)
    Blend: AUG-CC-PVTZ-JKFIT
	 Reference Energy          =    -512.8759843231333662 [Eh]
	 Singles Energy            =      -0.0000000000000000 [Eh]
	 Same-Spin Energy          =      -0.5118274691406770 [Eh]
	 Opposite-Spin Energy      =      -1.6160044869121790 [Eh]
	 Correlation Energy        =      -2.1278319560528560 [Eh]
	 Total Energy              =    -515.0038162791862533 [Eh]

	 ================> DF-SCS-MP2 Energies <==================
	-----------------------------------------------------------
	 SCS Same-Spin Scale       =       0.3333333333333333 [-]
	 SCS Opposite-Spin Scale   =       1.2000000000000000 [-]
	 SCS Same-Spin Energy      =      -0.1706091563802257 [Eh]
	 SCS Opposite-Spin Energy  =      -1.9392053842946146 [Eh]
	 SCS Correlation Energy    =      -2.1098145406748401 [Eh]
	 SCS Total Energy          =    -514.9857988638082134 [Eh]
	-----------------------------------------------------------

  Dipole Moment: [D]
     X:     0.3429      Y:     3.5741      Z:    -1.9397     Total:     4.0810

*** Psi4 exiting successfully. Buy a developer a beer!
