                               Psi4 1.3.2 release

  ==> Input File <==

--------------------------------------------------------------------------
#psi4
#
memory 32 gb

molecule  {
0 1
  O       -1.9705880     1.6613530    -0.1848000
  O        1.6688240    -1.2224340     0.6437850
  O       -3.2913740    -0.0479250     0.4948630
  N        0.2140730     0.2683100    -0.2698780
  C       -0.9510770    -0.4970410     0.1176100
  C       -1.1968270    -1.6816620    -0.8184860
  C        2.5789920     0.8068070    -0.3378900
  C        1.4682490    -0.1481810     0.0706060
  C       -2.1908320     0.3658730     0.1844680
  C        3.9506640     0.3320720     0.1153760
  H       -0.7838570    -0.8897150     1.1288390
  H        0.1025366     1.0129505    -0.5709035
  H       -1.3515420    -1.3283180    -1.8408860
  H       -0.3238960    -2.3346980    -0.7915570
  H       -2.0788080    -2.2361410    -0.4923840
  H        2.5479870     0.9167430    -1.4288930
  H        2.3554820     1.7990610     0.0733550
  H        4.1782080    -0.6474400    -0.3069900
  H        4.7194550     1.0404130    -0.2050590
  H        3.9903360     0.2413970     1.2016820
  H       -2.8462050     2.0977190    -0.1239210
units angstrom
no_reorient  #important for SAPT in psi4, default
symmetry c1  #important for SAPT in psi4, default
}

set PROPERTIES_ORIGIN ["COM"]
properties('MP2/aug-cc-pvtz', properties = ['dipole'])
--------------------------------------------------------------------------

    Molecular point group: c1
  Charge       = 0
  Multiplicity = 1
  Basis Set: AUG-CC-PVTZ
    Blend: AUG-CC-PVTZ
  Basis Set: (AUG-CC-PVTZ AUX)
    Blend: AUG-CC-PVTZ-JKFIT

    Orbital Energies [Eh]
    ---------------------

    Doubly Occupied:

       1A    -20.635647     2A    -20.564449     3A    -20.526633
       4A    -15.572713     5A    -11.405724     6A    -11.357832
       7A    -11.297644     8A    -11.248671     9A    -11.227522
      10A    -11.220700    11A     -1.478006    12A     -1.385267
      13A     -1.373352    14A     -1.276384    15A     -1.078978
      16A     -1.042570    17A     -0.930103    18A     -0.891128
      19A     -0.847940    20A     -0.805761    21A     -0.736350
      22A     -0.717616    23A     -0.684411    24A     -0.670363
      25A     -0.642758    26A     -0.635434    27A     -0.609917
      28A     -0.609323    29A     -0.585041    30A     -0.548022
      31A     -0.545099    32A     -0.528081    33A     -0.522096
      34A     -0.520812    35A     -0.498347    36A     -0.489162
      37A     -0.468710    38A     -0.430577    39A     -0.405272

  @DF-RHF Final Energy:  -512.84100611932251

   => Energetics <=

    Nuclear Repulsion Energy =            549.3842975268365763
    One-Electron Energy =               -1790.4217792926185666
    Two-Electron Energy =                 728.1964756464595894
    Total Energy =                       -512.8410061193225147
  Basis Set: (AUG-CC-PVTZ AUX)
    Blend: AUG-CC-PVTZ-RI
    Molecular point group: c1

    Geometry (in Angstrom), charge = 0, multiplicity = 1:

       Center              X                  Y                   Z               Mass
    ------------   -----------------  -----------------  -----------------  -----------------
         O           -1.970778991287     1.662628893936    -0.185315735737    15.994914619570
         O            1.668633008713    -1.221158106064     0.643269264263    15.994914619570
         O           -3.291564991287    -0.046649106064     0.494347264263    15.994914619570
         N            0.213882008713     0.269585893936    -0.270393735737    14.003074004430
         C           -0.951267991287    -0.495765106064     0.117094264263    12.000000000000
         C           -1.197017991287    -1.680386106064    -0.819001735737    12.000000000000
         C            2.578801008713     0.808082893936    -0.338405735737    12.000000000000
         C            1.468058008713    -0.146905106064     0.070090264263    12.000000000000
         C           -2.191022991287     0.367148893936     0.183952264263    12.000000000000
         C            3.950473008713     0.333347893936     0.114860264263    12.000000000000
         H           -0.784047991287    -0.888439106064     1.128323264263     1.007825032230
         H            0.102345608713     1.014226393936    -0.571419235737     1.007825032230
         H           -1.351732991287    -1.327042106064    -1.841401735737     1.007825032230
         H           -0.324086991287    -2.333422106064    -0.792072735737     1.007825032230
         H           -2.078998991287    -2.234865106064    -0.492899735737     1.007825032230
         H            2.547796008713     0.918018893936    -1.429408735737     1.007825032230
         H            2.355291008713     1.800336893936     0.072839264263     1.007825032230
         H            4.178017008713    -0.646164106064    -0.307505735737     1.007825032230
         H            4.719264008713     1.041688893936    -0.205574735737     1.007825032230
         H            3.990145008713     0.242672893936     1.201166264263     1.007825032230
         H           -2.846395991287     2.098994893936    -0.124436735737     1.007825032230

  Basis Set: AUG-CC-PVTZ
    Blend: AUG-CC-PVTZ
  Basis Set: (AUG-CC-PVTZ AUX)
    Blend: AUG-CC-PVTZ-JKFIT
	 Reference Energy          =    -512.8410061193225147 [Eh]
	 Singles Energy            =      -0.0000000000000000 [Eh]
	 Same-Spin Energy          =      -0.5097469456839955 [Eh]
	 Opposite-Spin Energy      =      -1.6121347033639415 [Eh]
	 Correlation Energy        =      -2.1218816490479369 [Eh]
	 Total Energy              =    -514.9628877683704786 [Eh]

	 ================> DF-SCS-MP2 Energies <==================
	-----------------------------------------------------------
	 SCS Same-Spin Scale       =       0.3333333333333333 [-]
	 SCS Opposite-Spin Scale   =       1.2000000000000000 [-]
	 SCS Same-Spin Energy      =      -0.1699156485613318 [Eh]
	 SCS Opposite-Spin Energy  =      -1.9345616440367297 [Eh]
	 SCS Correlation Energy    =      -2.1044772925980615 [Eh]
	 SCS Total Energy          =    -514.9454834119205771 [Eh]
	-----------------------------------------------------------

  Dipole Moment: [D]
     X:     0.0246      Y:     3.1992      Z:    -1.7939     Total:     3.6679

*** Psi4 exiting successfully. Buy a developer a beer!
