                               Psi4 1.3.2 release

  ==> Input File <==

--------------------------------------------------------------------------
#psi4
#
memory 32 gb

molecule  {
0 1
  O       -1.9705880     1.6613530    -0.1848000
  O        1.6688240    -1.2224340     0.6437850
  O       -3.2657685    -0.1057750     0.5019994
  N        0.2140730     0.2683100    -0.2698780
  C       -0.9953961    -0.5587958     0.1397043
  C       -1.1968270    -1.6816620    -0.8184860
  C        2.5789920     0.8068070    -0.3378900
  C        1.4682490    -0.1481810     0.0706060
  C       -2.1908320     0.3658730     0.1844680
  C        3.9506640     0.3320720     0.1153760
  H       -0.7838570    -0.8897150     1.1288390
  H        0.0750270     1.1966100    -0.6451490
  H       -1.3515420    -1.3283180    -1.8408860
  H       -0.3238960    -2.3346980    -0.7915570
  H       -2.0788080    -2.2361410    -0.4923840
  H        2.5479870     0.9167430    -1.4288930
  H        2.3554820     1.7990610     0.0733550
  H        4.1782080    -0.6474400    -0.3069900
  H        4.7194550     1.0404130    -0.2050590
  H        3.9903360     0.2413970     1.2016820
  H       -2.8462050     2.0977190    -0.1239210
units angstrom
no_reorient  #important for SAPT in psi4, default
symmetry c1  #important for SAPT in psi4, default
}

set PROPERTIES_ORIGIN ["COM"]
properties('MP2/aug-cc-pvtz', properties = ['dipole'])
--------------------------------------------------------------------------

    Molecular point group: c1
  Charge       = 0
  Multiplicity = 1
  Basis Set: AUG-CC-PVTZ
    Blend: AUG-CC-PVTZ
  Basis Set: (AUG-CC-PVTZ AUX)
    Blend: AUG-CC-PVTZ-JKFIT

    Orbital Energies [Eh]
    ---------------------

    Doubly Occupied:

       1A    -20.644177     2A    -20.566466     3A    -20.519689
       4A    -15.585837     5A    -11.407283     6A    -11.350786
       7A    -11.297308     8A    -11.243965     9A    -11.225611
      10A    -11.217218    11A     -1.480518    12A     -1.380604
      13A     -1.374511    14A     -1.228590    15A     -1.076485
      16A     -1.037303    17A     -0.928019    18A     -0.881544
      19A     -0.820271    20A     -0.785304    21A     -0.725793
      22A     -0.717968    23A     -0.677128    24A     -0.668090
      25A     -0.639609    26A     -0.634132    27A     -0.614519
      28A     -0.600179    29A     -0.579090    30A     -0.551877
      31A     -0.543424    32A     -0.525291    33A     -0.517367
      34A     -0.515433    35A     -0.498344    36A     -0.489468
      37A     -0.468211    38A     -0.422771    39A     -0.399063

  @DF-RHF Final Energy:  -512.87878165465713

   => Energetics <=

    Nuclear Repulsion Energy =            547.5674650321486752
    One-Electron Energy =               -1787.2140075175123002
    Two-Electron Energy =                 726.7677608307064929
    Total Energy =                       -512.8787816546571321
  Basis Set: (AUG-CC-PVTZ AUX)
    Blend: AUG-CC-PVTZ-RI
    Molecular point group: c1

    Geometry (in Angstrom), charge = 0, multiplicity = 1:

       Center              X                  Y                   Z               Mass
    ------------   -----------------  -----------------  -----------------  -----------------
         O           -1.969745061103     1.672839323507    -0.187414329967    15.994914619570
         O            1.669666938897    -1.210947676493     0.641170670033    15.994914619570
         O           -3.264925561103    -0.094288676493     0.499385070033    15.994914619570
         N            0.214915938897     0.279796323507    -0.272492329967    14.003074004430
         C           -0.994553161103    -0.547309476493     0.137089970033    12.000000000000
         C           -1.195984061103    -1.670175676493    -0.821100329967    12.000000000000
         C            2.579834938897     0.818293323507    -0.340504329967    12.000000000000
         C            1.469091938897    -0.136694676493     0.067991670033    12.000000000000
         C           -2.189989061103     0.377359323507     0.181853670033    12.000000000000
         C            3.951506938897     0.343558323507     0.112761670033    12.000000000000
         H           -0.783014061103    -0.878228676493     1.126224670033     1.007825032230
         H            0.075869938897     1.208096323507    -0.647763329967     1.007825032230
         H           -1.350699061103    -1.316831676493    -1.843500329967     1.007825032230
         H           -0.323053061103    -2.323211676493    -0.794171329967     1.007825032230
         H           -2.077965061103    -2.224654676493    -0.494998329967     1.007825032230
         H            2.548829938897     0.928229323507    -1.431507329967     1.007825032230
         H            2.356324938897     1.810547323507     0.070740670033     1.007825032230
         H            4.179050938897    -0.635953676493    -0.309604329967     1.007825032230
         H            4.720297938897     1.051899323507    -0.207673329967     1.007825032230
         H            3.991178938897     0.252883323507     1.199067670033     1.007825032230
         H           -2.845362061103     2.109205323507    -0.126535329967     1.007825032230

  Basis Set: AUG-CC-PVTZ
    Blend: AUG-CC-PVTZ
  Basis Set: (AUG-CC-PVTZ AUX)
    Blend: AUG-CC-PVTZ-JKFIT
	 Reference Energy          =    -512.8787816546571321 [Eh]
	 Singles Energy            =      -0.0000000000000000 [Eh]
	 Same-Spin Energy          =      -0.5112615084232743 [Eh]
	 Opposite-Spin Energy      =      -1.6155050367796235 [Eh]
	 Correlation Energy        =      -2.1267665452028979 [Eh]
	 Total Energy              =    -515.0055481998600726 [Eh]

	 ================> DF-SCS-MP2 Energies <==================
	-----------------------------------------------------------
	 SCS Same-Spin Scale       =       0.3333333333333333 [-]
	 SCS Opposite-Spin Scale   =       1.2000000000000000 [-]
	 SCS Same-Spin Energy      =      -0.1704205028077581 [Eh]
	 SCS Opposite-Spin Energy  =      -1.9386060441355482 [Eh]
	 SCS Correlation Energy    =      -2.1090265469433063 [Eh]
	 SCS Total Energy          =    -514.9878082016003873 [Eh]
	-----------------------------------------------------------

  Dipole Moment: [D]
     X:    -0.4743      Y:     3.4297      Z:    -1.8643     Total:     3.9324

*** Psi4 exiting successfully. Buy a developer a beer!
