                               Psi4 1.4a3.dev225

  ==> Input File <==

--------------------------------------------------------------------------
#psi4
#
memory 32 gb

molecule  {
0 1
  O       -2.1439760    -1.5096120     0.4578230
  O        1.6019480     1.2946100    -0.5777250
  O       -3.1849820    -0.0999640    -0.9818910
  N        0.1649120    -0.2715720     0.2333030
  C       -1.0051050     0.5087660    -0.1211110
  C       -1.3253715     1.6105448     0.9259979
  C        2.5597860    -0.6480590     0.5035240
  C        1.4183570     0.2162400    -0.0039080
  C       -2.2159370    -0.3767160    -0.3010400
  C        3.7806550    -0.5458820    -0.4040570
  H       -0.8075500     0.9861290    -1.0847450
  H        0.0342290    -1.1271740     0.7572540
  H       -1.5188550     1.1449870     1.8886910
  H       -0.4592110     2.2615650     0.9886780
  H       -2.1947650     2.1753270     0.6002850
  H        2.8115640    -0.2961200     1.5118980
  H        2.2315720    -1.6889350     0.6045970
  H        4.0689510     0.4992230    -0.5227640
  H        4.6219880    -1.1034150     0.0157220
  H        3.5611410    -0.9492480    -1.3958190
  H       -2.9864200    -1.9858630     0.3018850
units angstrom
no_reorient  #important for SAPT in psi4, default
symmetry c1  #important for SAPT in psi4, default
}

set PROPERTIES_ORIGIN ["COM"]
properties('MP2/aug-cc-pvtz', properties = ['dipole'])
--------------------------------------------------------------------------

    Molecular point group: c1
  Charge       = 0
  Multiplicity = 1
  Basis Set: AUG-CC-PVTZ
    Blend: AUG-CC-PVTZ
  Basis Set: (AUG-CC-PVTZ AUX)
    Blend: AUG-CC-PVTZ-JKFIT

    Orbital Energies [Eh]
    ---------------------

    Doubly Occupied:

       1A    -20.634230     2A    -20.564900     3A    -20.522835
       4A    -15.595954     5A    -11.403764     6A    -11.356931
       7A    -11.297020     8A    -11.247780     9A    -11.233079
      10A    -11.221869    11A     -1.476257    12A     -1.379561
      13A     -1.372447    14A     -1.245489    15A     -1.074764
      16A     -1.036153    17A     -0.929398    18A     -0.885891
      19A     -0.821889    20A     -0.794504    21A     -0.727536
      22A     -0.714241    23A     -0.680309    24A     -0.660547
      25A     -0.642104    26A     -0.629029    27A     -0.609159
      28A     -0.601220    29A     -0.592586    30A     -0.553576
      31A     -0.543480    32A     -0.534677    33A     -0.524103
      34A     -0.514427    35A     -0.498102    36A     -0.487405
      37A     -0.468948    38A     -0.427589    39A     -0.399443

  @DF-RHF Final Energy:  -512.88619075453516

   => Energetics <=

    Nuclear Repulsion Energy =            547.3606091193286147
    One-Electron Energy =               -1786.6872118272799526
    Two-Electron Energy =                 726.4404119534160600
    Total Energy =                       -512.8861907545351642
  Basis Set: (AUG-CC-PVTZ AUX)
    Blend: AUG-CC-PVTZ-RI
    Molecular point group: c1

    Geometry (in Angstrom), charge = 0, multiplicity = 1:

       Center              X                  Y                   Z               Mass
    ------------   -----------------  -----------------  -----------------  -----------------
         O           -2.079736938110    -1.511361804357     0.481734186446    15.994914619570
         O            1.666187061890     1.292860195643    -0.553813813554    15.994914619570
         O           -3.120742938110    -0.101713804357    -0.957979813554    15.994914619570
         N            0.229151061890    -0.273321804357     0.257214186446    14.003074004430
         C           -0.940865938110     0.507016195643    -0.097199813554    12.000000000000
         C           -1.261132438110     1.608794995643     0.949909086446    12.000000000000
         C            2.624025061890    -0.649808804357     0.527435186446    12.000000000000
         C            1.482596061890     0.214490195643     0.020003186446    12.000000000000
         C           -2.151697938110    -0.378465804357    -0.277128813554    12.000000000000
         C            3.844894061890    -0.547631804357    -0.380145813554    12.000000000000
         H           -0.743310938110     0.984379195643    -1.060833813554     1.007825032230
         H            0.098468061890    -1.128923804357     0.781165186446     1.007825032230
         H           -1.454615938110     1.143237195643     1.912602186446     1.007825032230
         H           -0.394971938110     2.259815195643     1.012589186446     1.007825032230
         H           -2.130525938110     2.173577195643     0.624196186446     1.007825032230
         H            2.875803061890    -0.297869804357     1.535809186446     1.007825032230
         H            2.295811061890    -1.690684804357     0.628508186446     1.007825032230
         H            4.133190061890     0.497473195643    -0.498852813554     1.007825032230
         H            4.686227061890    -1.105164804357     0.039633186446     1.007825032230
         H            3.625380061890    -0.950997804357    -1.371907813554     1.007825032230
         H           -2.922180938110    -1.987612804357     0.325796186446     1.007825032230

  Basis Set: AUG-CC-PVTZ
    Blend: AUG-CC-PVTZ
  Basis Set: (AUG-CC-PVTZ AUX)
    Blend: AUG-CC-PVTZ-JKFIT
	 Reference Energy          =    -512.8861907545351642 [Eh]
	 Singles Energy            =      -0.0000000000000000 [Eh]
	 Same-Spin Energy          =      -0.5110733837382219 [Eh]
	 Opposite-Spin Energy      =      -1.6150252527864875 [Eh]
	 Correlation Energy        =      -2.1260986365247092 [Eh]
	 Total Energy              =    -515.0122893910598805 [Eh]

	 ================> DF-SCS-MP2 Energies <==================
	-----------------------------------------------------------
	 SCS Same-Spin Scale       =       0.3333333333333333 [-]
	 SCS Opposite-Spin Scale   =       1.2000000000000000 [-]
	 SCS Same-Spin Energy      =      -0.1703577945794073 [Eh]
	 SCS Opposite-Spin Energy  =      -1.9380303033437849 [Eh]
	 SCS Correlation Energy    =      -2.1083880979231924 [Eh]
	 SCS Total Energy          =    -514.9945788524584032 [Eh]
	-----------------------------------------------------------

  Dipole Moment: [D]
     X:    -0.2089      Y:    -3.0398      Z:     2.6509     Total:     4.0387

*** Psi4 exiting successfully. Buy a developer a beer!
