                               Psi4 1.3.2 release

  ==> Input File <==

--------------------------------------------------------------------------
#psi4
#
memory 32 gb

molecule  {
0 1
  O       -1.9248282     1.6505163    -0.1924515
  O        1.6688240    -1.2224340     0.6437850
  O       -3.2913740    -0.0479250     0.4948630
  N        0.2140730     0.2683100    -0.2698780
  C       -0.9238166    -0.4549815     0.1010839
  C       -1.1968270    -1.6816620    -0.8184860
  C        2.5789920     0.8068070    -0.3378900
  C        1.4682490    -0.1481810     0.0706060
  C       -2.1908320     0.3658730     0.1844680
  C        3.9506640     0.3320720     0.1153760
  H       -0.7838570    -0.8897150     1.1288390
  H        0.0750270     1.1966100    -0.6451490
  H       -1.3515420    -1.3283180    -1.8408860
  H       -0.3238960    -2.3346980    -0.7915570
  H       -2.0788080    -2.2361410    -0.4923840
  H        2.5479870     0.9167430    -1.4288930
  H        2.3554820     1.7990610     0.0733550
  H        4.1782080    -0.6474400    -0.3069900
  H        4.7194550     1.0404130    -0.2050590
  H        3.9903360     0.2413970     1.2016820
  H       -2.8462050     2.0977190    -0.1239210
units angstrom
no_reorient  #important for SAPT in psi4, default
symmetry c1  #important for SAPT in psi4, default
}

set PROPERTIES_ORIGIN ["COM"]
properties('MP2/aug-cc-pvtz', properties = ['dipole'])
--------------------------------------------------------------------------

    Molecular point group: c1
  Charge       = 0
  Multiplicity = 1
  Basis Set: AUG-CC-PVTZ
    Blend: AUG-CC-PVTZ
  Basis Set: (AUG-CC-PVTZ AUX)
    Blend: AUG-CC-PVTZ-JKFIT

    Orbital Energies [Eh]
    ---------------------

    Doubly Occupied:

       1A    -20.641045     2A    -20.566588     3A    -20.526233
       4A    -15.592198     5A    -11.405899     6A    -11.357513
       7A    -11.293949     8A    -11.248324     9A    -11.225654
      10A    -11.220267    11A     -1.474389    12A     -1.383115
      13A     -1.373255    14A     -1.256458    15A     -1.073885
      16A     -1.032062    17A     -0.925636    18A     -0.886595
      19A     -0.809224    20A     -0.797174    21A     -0.734169
      22A     -0.712027    23A     -0.685286    24A     -0.664681
      25A     -0.642180    26A     -0.634426    27A     -0.607262
      28A     -0.602013    29A     -0.581792    30A     -0.545790
      31A     -0.540651    32A     -0.527829    33A     -0.521041
      34A     -0.516806    35A     -0.499279    36A     -0.487113
      37A     -0.466795    38A     -0.430013    39A     -0.396564

  @DF-RHF Final Energy:  -512.87586007530911

   => Energetics <=

    Nuclear Repulsion Energy =            548.9290038622783641
    One-Electron Energy =               -1789.8393741364168363
    Two-Electron Energy =                 728.0345101988294800
    Total Energy =                       -512.8758600753091059
  Basis Set: (AUG-CC-PVTZ AUX)
    Blend: AUG-CC-PVTZ-RI
    Molecular point group: c1

    Geometry (in Angstrom), charge = 0, multiplicity = 1:

       Center              X                  Y                   Z               Mass
    ------------   -----------------  -----------------  -----------------  -----------------
         O           -1.932128148024     1.648232087161    -0.190240868133    15.994914619570
         O            1.661524051976    -1.224718212839     0.645995631867    15.994914619570
         O           -3.298673948024    -0.050209212839     0.497073631867    15.994914619570
         N            0.206773051976     0.266025787161    -0.267667368133    14.003074004430
         C           -0.931116548024    -0.457265712839     0.103294531867    12.000000000000
         C           -1.204126948024    -1.683946212839    -0.816275368133    12.000000000000
         C            2.571692051976     0.804522787161    -0.335679368133    12.000000000000
         C            1.460949051976    -0.150465212839     0.072816631867    12.000000000000
         C           -2.198131948024     0.363588787161     0.186678631867    12.000000000000
         C            3.943364051976     0.329787787161     0.117586631867    12.000000000000
         H           -0.791156948024    -0.891999212839     1.131049631867     1.007825032230
         H            0.067727051976     1.194325787161    -0.642938368133     1.007825032230
         H           -1.358841948024    -1.330602212839    -1.838675368133     1.007825032230
         H           -0.331195948024    -2.336982212839    -0.789346368133     1.007825032230
         H           -2.086107948024    -2.238425212839    -0.490173368133     1.007825032230
         H            2.540687051976     0.914458787161    -1.426682368133     1.007825032230
         H            2.348182051976     1.796776787161     0.075565631867     1.007825032230
         H            4.170908051976    -0.649724212839    -0.304779368133     1.007825032230
         H            4.712155051976     1.038128787161    -0.202848368133     1.007825032230
         H            3.983036051976     0.239112787161     1.203892631867     1.007825032230
         H           -2.853504948024     2.095434787161    -0.121710368133     1.007825032230

  Basis Set: AUG-CC-PVTZ
    Blend: AUG-CC-PVTZ
  Basis Set: (AUG-CC-PVTZ AUX)
    Blend: AUG-CC-PVTZ-JKFIT
	 Reference Energy          =    -512.8758600753091059 [Eh]
	 Singles Energy            =      -0.0000000000000000 [Eh]
	 Same-Spin Energy          =      -0.5129242427228587 [Eh]
	 Opposite-Spin Energy      =      -1.6175997919837224 [Eh]
	 Correlation Energy        =      -2.1305240347065810 [Eh]
	 Total Energy              =    -515.0063841100156878 [Eh]

	 ================> DF-SCS-MP2 Energies <==================
	-----------------------------------------------------------
	 SCS Same-Spin Scale       =       0.3333333333333333 [-]
	 SCS Opposite-Spin Scale   =       1.2000000000000000 [-]
	 SCS Same-Spin Energy      =      -0.1709747475742862 [Eh]
	 SCS Opposite-Spin Energy  =      -1.9411197503804667 [Eh]
	 SCS Correlation Energy    =      -2.1120944979547529 [Eh]
	 SCS Total Energy          =    -514.9879545732638917 [Eh]
	-----------------------------------------------------------

  Dipole Moment: [D]
     X:    -0.0308      Y:     3.4852      Z:    -1.8520     Total:     3.9468

*** Psi4 exiting successfully. Buy a developer a beer!
