                               Psi4 1.4a3.dev225

  ==> Input File <==

--------------------------------------------------------------------------
#psi4
#
memory 32 gb

molecule  {
0 1
  O       -2.1439760    -1.5096120     0.4578230
  O        1.6019480     1.2946100    -0.5777250
  O       -3.1849820    -0.0999640    -0.9818910
  N        0.1649120    -0.2715720     0.2333030
  C       -1.0051050     0.5087660    -0.1211110
  C       -1.3212480     1.5963590     0.9125160
  C        2.5597860    -0.6480590     0.5035240
  C        1.4183570     0.2162400    -0.0039080
  C       -2.2159370    -0.3767160    -0.3010400
  C        3.7806550    -0.5458820    -0.4040570
  H       -0.8165841     0.9642994    -1.0406785
  H        0.0342290    -1.1271740     0.7572540
  H       -1.5188550     1.1449870     1.8886910
  H       -0.4592110     2.2615650     0.9886780
  H       -2.1947650     2.1753270     0.6002850
  H        2.8115640    -0.2961200     1.5118980
  H        2.2315720    -1.6889350     0.6045970
  H        4.0689510     0.4992230    -0.5227640
  H        4.6219880    -1.1034150     0.0157220
  H        3.5611410    -0.9492480    -1.3958190
  H       -2.9864200    -1.9858630     0.3018850
units angstrom
no_reorient  #important for SAPT in psi4, default
symmetry c1  #important for SAPT in psi4, default
}

set PROPERTIES_ORIGIN ["COM"]
properties('MP2/aug-cc-pvtz', properties = ['dipole'])
--------------------------------------------------------------------------

    Molecular point group: c1
  Charge       = 0
  Multiplicity = 1
  Basis Set: AUG-CC-PVTZ
    Blend: AUG-CC-PVTZ
  Basis Set: (AUG-CC-PVTZ AUX)
    Blend: AUG-CC-PVTZ-JKFIT

    Orbital Energies [Eh]
    ---------------------

    Doubly Occupied:

       1A    -20.634346     2A    -20.565472     3A    -20.522816
       4A    -15.595556     5A    -11.403950     6A    -11.356977
       7A    -11.291275     8A    -11.247741     9A    -11.233208
      10A    -11.221847    11A     -1.476531    12A     -1.379646
      13A     -1.372861    14A     -1.246424    15A     -1.077394
      16A     -1.038242    17A     -0.928699    18A     -0.885951
      19A     -0.827006    20A     -0.794666    21A     -0.728037
      22A     -0.714534    23A     -0.680827    24A     -0.662929
      25A     -0.643485    26A     -0.630838    27A     -0.609836
      28A     -0.601993    29A     -0.593757    30A     -0.552544
      31A     -0.542944    32A     -0.535585    33A     -0.524354
      34A     -0.514899    35A     -0.497983    36A     -0.488955
      37A     -0.469164    38A     -0.427547    39A     -0.400785

  @DF-RHF Final Energy:  -512.88568306581260

   => Energetics <=

    Nuclear Repulsion Energy =            548.0164194192292371
    One-Electron Energy =               -1787.9609933192659810
    Two-Electron Energy =                 727.0588908342240302
    Total Energy =                       -512.8856830658126000
  Basis Set: (AUG-CC-PVTZ AUX)
    Blend: AUG-CC-PVTZ-RI
    Molecular point group: c1

    Geometry (in Angstrom), charge = 0, multiplicity = 1:

       Center              X                  Y                   Z               Mass
    ------------   -----------------  -----------------  -----------------  -----------------
         O           -2.080015259778    -1.510036755355     0.482543232620    15.994914619570
         O            1.665908740222     1.294185244645    -0.553004767380    15.994914619570
         O           -3.121021259778    -0.100388755355    -0.957170767380    15.994914619570
         N            0.228872740222    -0.271996755355     0.258023232620    14.003074004430
         C           -0.941144259778     0.508341244645    -0.096390767380    12.000000000000
         C           -1.257287259778     1.595934244645     0.937236232620    12.000000000000
         C            2.623746740222    -0.648483755355     0.528244232620    12.000000000000
         C            1.482317740222     0.215815244645     0.020812232620    12.000000000000
         C           -2.151976259778    -0.377140755355    -0.276319767380    12.000000000000
         C            3.844615740222    -0.546306755355    -0.379336767380    12.000000000000
         H           -0.752623359778     0.963874644645    -1.015958267380     1.007825032230
         H            0.098189740222    -1.127598755355     0.781974232620     1.007825032230
         H           -1.454894259778     1.144562244645     1.913411232620     1.007825032230
         H           -0.395250259778     2.261140244645     1.013398232620     1.007825032230
         H           -2.130804259778     2.174902244645     0.625005232620     1.007825032230
         H            2.875524740222    -0.296544755355     1.536618232620     1.007825032230
         H            2.295532740222    -1.689359755355     0.629317232620     1.007825032230
         H            4.132911740222     0.498798244645    -0.498043767380     1.007825032230
         H            4.685948740222    -1.103839755355     0.040442232620     1.007825032230
         H            3.625101740222    -0.949672755355    -1.371098767380     1.007825032230
         H           -2.922459259778    -1.986287755355     0.326605232620     1.007825032230

  Basis Set: AUG-CC-PVTZ
    Blend: AUG-CC-PVTZ
  Basis Set: (AUG-CC-PVTZ AUX)
    Blend: AUG-CC-PVTZ-JKFIT
	 Reference Energy          =    -512.8856830658126000 [Eh]
	 Singles Energy            =      -0.0000000000000000 [Eh]
	 Same-Spin Energy          =      -0.5110266505089009 [Eh]
	 Opposite-Spin Energy      =      -1.6146918768979959 [Eh]
	 Correlation Energy        =      -2.1257185274068968 [Eh]
	 Total Energy              =    -515.0114015932194889 [Eh]

	 ================> DF-SCS-MP2 Energies <==================
	-----------------------------------------------------------
	 SCS Same-Spin Scale       =       0.3333333333333333 [-]
	 SCS Opposite-Spin Scale   =       1.2000000000000000 [-]
	 SCS Same-Spin Energy      =      -0.1703422168363003 [Eh]
	 SCS Opposite-Spin Energy  =      -1.9376302522775950 [Eh]
	 SCS Correlation Energy    =      -2.1079724691138955 [Eh]
	 SCS Total Energy          =    -514.9936555349264609 [Eh]
	-----------------------------------------------------------

  Dipole Moment: [D]
     X:    -0.2282      Y:    -3.0446      Z:     2.6509     Total:     4.0434

*** Psi4 exiting successfully. Buy a developer a beer!
