                               Psi4 1.3.2 release

  ==> Input File <==

--------------------------------------------------------------------------
#psi4
#
memory 32 gb

molecule  {
0 1
  O       -1.9705880     1.6613530    -0.1848000
  O        1.6688240    -1.2224340     0.6437850
  O       -3.2913740    -0.0479250     0.4948630
  N        0.2140730     0.2683100    -0.2698780
  C       -0.9360010    -0.5138529     0.1289135
  C       -1.1968270    -1.6816620    -0.8184860
  C        2.5789920     0.8068070    -0.3378900
  C        1.4587733    -0.1671127     0.0815189
  C       -2.1908320     0.3658730     0.1844680
  C        3.9506640     0.3320720     0.1153760
  H       -0.7838570    -0.8897150     1.1288390
  H        0.0750270     1.1966100    -0.6451490
  H       -1.3515420    -1.3283180    -1.8408860
  H       -0.3238960    -2.3346980    -0.7915570
  H       -2.0788080    -2.2361410    -0.4923840
  H        2.5479870     0.9167430    -1.4288930
  H        2.3554820     1.7990610     0.0733550
  H        4.1782080    -0.6474400    -0.3069900
  H        4.7194550     1.0404130    -0.2050590
  H        3.9903360     0.2413970     1.2016820
  H       -2.8462050     2.0977190    -0.1239210
units angstrom
no_reorient  #important for SAPT in psi4, default
symmetry c1  #important for SAPT in psi4, default
}

set PROPERTIES_ORIGIN ["COM"]
properties('MP2/aug-cc-pvtz', properties = ['dipole'])
--------------------------------------------------------------------------

    Molecular point group: c1
  Charge       = 0
  Multiplicity = 1
  Basis Set: AUG-CC-PVTZ
    Blend: AUG-CC-PVTZ
  Basis Set: (AUG-CC-PVTZ AUX)
    Blend: AUG-CC-PVTZ-JKFIT

    Orbital Energies [Eh]
    ---------------------

    Doubly Occupied:

       1A    -20.636463     2A    -20.564226     3A    -20.527447
       4A    -15.590147     5A    -11.405295     6A    -11.354060
       7A    -11.296671     8A    -11.245617     9A    -11.226472
      10A    -11.218366    11A     -1.477818    12A     -1.392878
      13A     -1.373293    14A     -1.248028    15A     -1.071736
      16A     -1.033300    17A     -0.925598    18A     -0.881002
      19A     -0.819239    20A     -0.792902    21A     -0.728694
      22A     -0.714523    23A     -0.683172    24A     -0.665713
      25A     -0.639985    26A     -0.636233    27A     -0.609841
      28A     -0.607006    29A     -0.583810    30A     -0.546882
      31A     -0.544164    32A     -0.524064    33A     -0.524047
      34A     -0.519634    35A     -0.497233    36A     -0.491684
      37A     -0.466681    38A     -0.426059    39A     -0.402289

  @DF-RHF Final Energy:  -512.88661989578361

   => Energetics <=

    Nuclear Repulsion Energy =            548.0714391416127000
    One-Electron Energy =               -1788.1315727941264413
    Two-Electron Energy =                 727.1735137567301308
    Total Energy =                       -512.8866198957836104
  Basis Set: (AUG-CC-PVTZ AUX)
    Blend: AUG-CC-PVTZ-RI
    Molecular point group: c1

    Geometry (in Angstrom), charge = 0, multiplicity = 1:

       Center              X                  Y                   Z               Mass
    ------------   -----------------  -----------------  -----------------  -----------------
         O           -1.971051119757     1.664309599907    -0.186637616072    15.994914619570
         O            1.668360880243    -1.219477400093     0.641947383928    15.994914619570
         O           -3.291837119757    -0.044968400093     0.493025383928    15.994914619570
         N            0.213609880243     0.271266599907    -0.271715616072    14.003074004430
         C           -0.936464119757    -0.510896300093     0.127075883928    12.000000000000
         C           -1.197290119757    -1.678705400093    -0.820323616072    12.000000000000
         C            2.578528880243     0.809763599907    -0.339727616072    12.000000000000
         C            1.458310180243    -0.164156100093     0.079681283928    12.000000000000
         C           -2.191295119757     0.368829599907     0.182630383928    12.000000000000
         C            3.950200880243     0.335028599907     0.113538383928    12.000000000000
         H           -0.784320119757    -0.886758400093     1.127001383928     1.007825032230
         H            0.074563880243     1.199566599907    -0.646986616072     1.007825032230
         H           -1.352005119757    -1.325361400093    -1.842723616072     1.007825032230
         H           -0.324359119757    -2.331741400093    -0.793394616072     1.007825032230
         H           -2.079271119757    -2.233184400093    -0.494221616072     1.007825032230
         H            2.547523880243     0.919699599907    -1.430730616072     1.007825032230
         H            2.355018880243     1.802017599907     0.071517383928     1.007825032230
         H            4.177744880243    -0.644483400093    -0.308827616072     1.007825032230
         H            4.718991880243     1.043369599907    -0.206896616072     1.007825032230
         H            3.989872880243     0.244353599907     1.199844383928     1.007825032230
         H           -2.846668119757     2.100675599907    -0.125758616072     1.007825032230

  Basis Set: AUG-CC-PVTZ
    Blend: AUG-CC-PVTZ
  Basis Set: (AUG-CC-PVTZ AUX)
    Blend: AUG-CC-PVTZ-JKFIT
	 Reference Energy          =    -512.8866198957836104 [Eh]
	 Singles Energy            =      -0.0000000000000000 [Eh]
	 Same-Spin Energy          =      -0.5106775364941538 [Eh]
	 Opposite-Spin Energy      =      -1.6138037458682755 [Eh]
	 Correlation Energy        =      -2.1244812823624293 [Eh]
	 Total Energy              =    -515.0111011781460775 [Eh]

	 ================> DF-SCS-MP2 Energies <==================
	-----------------------------------------------------------
	 SCS Same-Spin Scale       =       0.3333333333333333 [-]
	 SCS Opposite-Spin Scale   =       1.2000000000000000 [-]
	 SCS Same-Spin Energy      =      -0.1702258454980513 [Eh]
	 SCS Opposite-Spin Energy  =      -1.9365644950419305 [Eh]
	 SCS Correlation Energy    =      -2.1067903405399817 [Eh]
	 SCS Total Energy          =    -514.9934102363235979 [Eh]
	-----------------------------------------------------------

  Dipole Moment: [D]
     X:    -0.1325      Y:     3.2735      Z:    -1.8013     Total:     3.7387

*** Psi4 exiting successfully. Buy a developer a beer!
