                               Psi4 1.3.2 release

  ==> Input File <==

--------------------------------------------------------------------------
#psi4
#
memory 32 gb

molecule  {
0 1
  O       -1.9705880     1.6613530    -0.1848000
  O        1.6688240    -1.2224340     0.6437850
  O       -3.2913740    -0.0479250     0.4948630
  N        0.1882534     0.2086290    -0.2402790
  C       -0.9510770    -0.4970410     0.1176100
  C       -1.1968270    -1.6816620    -0.8184860
  C        2.6314372     0.7561954    -0.3058479
  C        1.4682490    -0.1481810     0.0706060
  C       -2.1908320     0.3658730     0.1844680
  C        3.9506640     0.3320720     0.1153760
  H       -0.7838570    -0.8897150     1.1288390
  H        0.0750270     1.1966100    -0.6451490
  H       -1.3515420    -1.3283180    -1.8408860
  H       -0.3238960    -2.3346980    -0.7915570
  H       -2.0788080    -2.2361410    -0.4923840
  H        2.5479870     0.9167430    -1.4288930
  H        2.3554820     1.7990610     0.0733550
  H        4.1782080    -0.6474400    -0.3069900
  H        4.7194550     1.0404130    -0.2050590
  H        3.9903360     0.2413970     1.2016820
  H       -2.8462050     2.0977190    -0.1239210
units angstrom
no_reorient  #important for SAPT in psi4, default
symmetry c1  #important for SAPT in psi4, default
}

set PROPERTIES_ORIGIN ["COM"]
properties('MP2/aug-cc-pvtz', properties = ['dipole'])
--------------------------------------------------------------------------

    Molecular point group: c1
  Charge       = 0
  Multiplicity = 1
  Basis Set: AUG-CC-PVTZ
    Blend: AUG-CC-PVTZ
  Basis Set: (AUG-CC-PVTZ AUX)
    Blend: AUG-CC-PVTZ-JKFIT

    Orbital Energies [Eh]
    ---------------------

    Doubly Occupied:

       1A    -20.636561     2A    -20.564342     3A    -20.519893
       4A    -15.594550     5A    -11.405846     6A    -11.355701
       7A    -11.293085     8A    -11.256259     9A    -11.224403
      10A    -11.218748    11A     -1.478614    12A     -1.381976
      13A     -1.373586    14A     -1.251961    15A     -1.080645
      16A     -1.042012    17A     -0.929753    18A     -0.888478
      19A     -0.817382    20A     -0.782739    21A     -0.735728
      22A     -0.712108    23A     -0.688132    24A     -0.665378
      25A     -0.639052    26A     -0.632706    27A     -0.611314
      28A     -0.600388    29A     -0.581363    30A     -0.560979
      31A     -0.545322    32A     -0.536782    33A     -0.518855
      34A     -0.517112    35A     -0.494606    36A     -0.476651
      37A     -0.467897    38A     -0.425608    39A     -0.393633

  @DF-RHF Final Energy:  -512.86890739619344

   => Energetics <=

    Nuclear Repulsion Energy =            549.2088583007246143
    One-Electron Energy =               -1790.3552354900161845
    Two-Electron Energy =                 728.2774697930981347
    Total Energy =                       -512.8689073961934355
  Basis Set: (AUG-CC-PVTZ AUX)
    Blend: AUG-CC-PVTZ-RI
    Molecular point group: c1

    Geometry (in Angstrom), charge = 0, multiplicity = 1:

       Center              X                  Y                   Z               Mass
    ------------   -----------------  -----------------  -----------------  -----------------
         O           -1.972433760189     1.671300061369    -0.190307369297    15.994914619570
         O            1.666978239811    -1.212486938631     0.638277630703    15.994914619570
         O           -3.293219760189    -0.037977938631     0.489355630703    15.994914619570
         N            0.186407639811     0.218576061369    -0.245786369297    14.003074004430
         C           -0.952922760189    -0.487093938631     0.112102630703    12.000000000000
         C           -1.198672760189    -1.671714938631    -0.823993369297    12.000000000000
         C            2.629591439811     0.766142461369    -0.311355269297    12.000000000000
         C            1.466403239811    -0.138233938631     0.065098630703    12.000000000000
         C           -2.192677760189     0.375820061369     0.178960630703    12.000000000000
         C            3.948818239811     0.342019061369     0.109868630703    12.000000000000
         H           -0.785702760189    -0.879767938631     1.123331630703     1.007825032230
         H            0.073181239811     1.206557061369    -0.650656369297     1.007825032230
         H           -1.353387760189    -1.318370938631    -1.846393369297     1.007825032230
         H           -0.325741760189    -2.324750938631    -0.797064369297     1.007825032230
         H           -2.080653760189    -2.226193938631    -0.497891369297     1.007825032230
         H            2.546141239811     0.926690061369    -1.434400369297     1.007825032230
         H            2.353636239811     1.809008061369     0.067847630703     1.007825032230
         H            4.176362239811    -0.637492938631    -0.312497369297     1.007825032230
         H            4.717609239811     1.050360061369    -0.210566369297     1.007825032230
         H            3.988490239811     0.251344061369     1.196174630703     1.007825032230
         H           -2.848050760189     2.107666061369    -0.129428369297     1.007825032230

  Basis Set: AUG-CC-PVTZ
    Blend: AUG-CC-PVTZ
  Basis Set: (AUG-CC-PVTZ AUX)
    Blend: AUG-CC-PVTZ-JKFIT
	 Reference Energy          =    -512.8689073961934355 [Eh]
	 Singles Energy            =      -0.0000000000000000 [Eh]
	 Same-Spin Energy          =      -0.5128352189439737 [Eh]
	 Opposite-Spin Energy      =      -1.6167509307576797 [Eh]
	 Correlation Energy        =      -2.1295861497016535 [Eh]
	 Total Energy              =    -514.9984935458951441 [Eh]

	 ================> DF-SCS-MP2 Energies <==================
	-----------------------------------------------------------
	 SCS Same-Spin Scale       =       0.3333333333333333 [-]
	 SCS Opposite-Spin Scale   =       1.2000000000000000 [-]
	 SCS Same-Spin Energy      =      -0.1709450729813246 [Eh]
	 SCS Opposite-Spin Energy  =      -1.9401011169092155 [Eh]
	 SCS Correlation Energy    =      -2.1110461898905402 [Eh]
	 SCS Total Energy          =    -514.9799535860839796 [Eh]
	-----------------------------------------------------------

  Dipole Moment: [D]
     X:     0.0838      Y:     3.4935      Z:    -1.8886     Total:     3.9722

*** Psi4 exiting successfully. Buy a developer a beer!
