                               Psi4 1.3.2 release

  ==> Input File <==

--------------------------------------------------------------------------
#psi4
#
memory 32 gb

molecule  {
0 1
  O       -1.9705880     1.6613530    -0.1848000
  O        1.6688240    -1.2224340     0.6437850
  O       -3.2913740    -0.0479250     0.4948630
  N        0.2140730     0.2683100    -0.2698780
  C       -0.9510770    -0.4970410     0.1176100
  C       -1.1968270    -1.6816620    -0.8184860
  C        2.5789920     0.8068070    -0.3378900
  C        1.4484882    -0.1547489    -0.0062387
  C       -2.1908320     0.3658730     0.1844680
  C        3.9506640     0.3320720     0.1153760
  H       -0.7838570    -0.8897150     1.1288390
  H        0.0750270     1.1966100    -0.6451490
  H       -1.3515420    -1.3283180    -1.8408860
  H       -0.3238960    -2.3346980    -0.7915570
  H       -2.0788080    -2.2361410    -0.4923840
  H        2.5034041     0.8805509    -1.4297614
  H        2.3554820     1.7990610     0.0733550
  H        4.1782080    -0.6474400    -0.3069900
  H        4.7194550     1.0404130    -0.2050590
  H        3.9903360     0.2413970     1.2016820
  H       -2.8462050     2.0977190    -0.1239210
units angstrom
no_reorient  #important for SAPT in psi4, default
symmetry c1  #important for SAPT in psi4, default
}

set PROPERTIES_ORIGIN ["COM"]
properties('MP2/aug-cc-pvtz', properties = ['dipole'])
--------------------------------------------------------------------------

    Molecular point group: c1
  Charge       = 0
  Multiplicity = 1
  Basis Set: AUG-CC-PVTZ
    Blend: AUG-CC-PVTZ
  Basis Set: (AUG-CC-PVTZ AUX)
    Blend: AUG-CC-PVTZ-JKFIT

    Orbital Energies [Eh]
    ---------------------

    Doubly Occupied:

       1A    -20.638996     2A    -20.566912     3A    -20.515422
       4A    -15.598840     5A    -11.408446     6A    -11.354708
       7A    -11.300668     8A    -11.248000     9A    -11.229161
      10A    -11.219347    11A     -1.481087    12A     -1.376276
      13A     -1.362173    14A     -1.250300    15A     -1.078794
      16A     -1.037856    17A     -0.932017    18A     -0.888223
      19A     -0.820059    20A     -0.799975    21A     -0.733663
      22A     -0.716866    23A     -0.680875    24A     -0.666045
      25A     -0.642709    26A     -0.634871    27A     -0.613078
      28A     -0.595305    29A     -0.579151    30A     -0.549759
      31A     -0.545225    32A     -0.526860    33A     -0.520689
      34A     -0.515035    35A     -0.499225    36A     -0.483709
      37A     -0.469817    38A     -0.421732    39A     -0.399876

  @DF-RHF Final Energy:  -512.87842714888745

   => Energetics <=

    Nuclear Repulsion Energy =            548.1426926284883621
    One-Electron Energy =               -1788.2387339229107965
    Two-Electron Energy =                 727.2176141455348670
    Total Energy =                       -512.8784271488874538
  Basis Set: (AUG-CC-PVTZ AUX)
    Blend: AUG-CC-PVTZ-RI
    Molecular point group: c1

    Geometry (in Angstrom), charge = 0, multiplicity = 1:

       Center              X                  Y                   Z               Mass
    ------------   -----------------  -----------------  -----------------  -----------------
         O           -1.968643622757     1.662147714755    -0.178437599040    15.994914619570
         O            1.670768377243    -1.221639285245     0.650147400960    15.994914619570
         O           -3.289429622757    -0.047130285245     0.501225400960    15.994914619570
         N            0.216017377243     0.269104714755    -0.263515599040    14.003074004430
         C           -0.949132622757    -0.496246285245     0.123972400960    12.000000000000
         C           -1.194882622757    -1.680867285245    -0.812123599040    12.000000000000
         C            2.580936377243     0.807601714755    -0.331527599040    12.000000000000
         C            1.450432577243    -0.153954185245     0.000123700960    12.000000000000
         C           -2.188887622757     0.366667714755     0.190830400960    12.000000000000
         C            3.952608377243     0.332866714755     0.121738400960    12.000000000000
         H           -0.781912622757    -0.888920285245     1.135201400960     1.007825032230
         H            0.076971377243     1.197404714755    -0.638786599040     1.007825032230
         H           -1.349597622757    -1.327523285245    -1.834523599040     1.007825032230
         H           -0.321951622757    -2.333903285245    -0.785194599040     1.007825032230
         H           -2.076863622757    -2.235346285245    -0.486021599040     1.007825032230
         H            2.505348477243     0.881345614755    -1.423398999040     1.007825032230
         H            2.357426377243     1.799855714755     0.079717400960     1.007825032230
         H            4.180152377243    -0.646645285245    -0.300627599040     1.007825032230
         H            4.721399377243     1.041207714755    -0.198696599040     1.007825032230
         H            3.992280377243     0.242191714755     1.208044400960     1.007825032230
         H           -2.844260622757     2.098513714755    -0.117558599040     1.007825032230

  Basis Set: AUG-CC-PVTZ
    Blend: AUG-CC-PVTZ
  Basis Set: (AUG-CC-PVTZ AUX)
    Blend: AUG-CC-PVTZ-JKFIT
	 Reference Energy          =    -512.8784271488874538 [Eh]
	 Singles Energy            =      -0.0000000000000000 [Eh]
	 Same-Spin Energy          =      -0.5121316763575443 [Eh]
	 Opposite-Spin Energy      =      -1.6164336354075242 [Eh]
	 Correlation Energy        =      -2.1285653117650685 [Eh]
	 Total Energy              =    -515.0069924606525547 [Eh]

	 ================> DF-SCS-MP2 Energies <==================
	-----------------------------------------------------------
	 SCS Same-Spin Scale       =       0.3333333333333333 [-]
	 SCS Opposite-Spin Scale   =       1.2000000000000000 [-]
	 SCS Same-Spin Energy      =      -0.1707105587858481 [Eh]
	 SCS Opposite-Spin Energy  =      -1.9397203624890289 [Eh]
	 SCS Correlation Energy    =      -2.1104309212748769 [Eh]
	 SCS Total Energy          =    -514.9888580701623368 [Eh]
	-----------------------------------------------------------

  Dipole Moment: [D]
     X:    -0.3708      Y:     3.4862      Z:    -1.9952     Total:     4.0338

*** Psi4 exiting successfully. Buy a developer a beer!
