                               Psi4 1.3.2 release

  ==> Input File <==

--------------------------------------------------------------------------
#psi4
#
memory 32 gb

molecule  {
0 1
  O       -1.9705880     1.6613530    -0.1848000
  O        1.6688240    -1.2224340     0.6437850
  O       -3.2913740    -0.0479250     0.4948630
  N        0.2140730     0.2683100    -0.2698780
  C       -0.9510770    -0.4970410     0.1176100
  C       -1.1968270    -1.6816620    -0.8184860
  C        2.5789920     0.8068070    -0.3378900
  C        1.5007568    -0.3222885     0.1635029
  C       -2.1908320     0.3658730     0.1844680
  C        3.9506640     0.3320720     0.1153760
  H       -0.7838570    -0.8897150     1.1288390
  H        0.0750270     1.1966100    -0.6451490
  H       -1.3515420    -1.3283180    -1.8408860
  H       -0.3238960    -2.3346980    -0.7915570
  H       -2.0788080    -2.2361410    -0.4923840
  H        2.5479870     0.9167430    -1.4288930
  H        2.3554820     1.7990610     0.0733550
  H        4.1782080    -0.6474400    -0.3069900
  H        4.7194550     1.0404130    -0.2050590
  H        3.9903360     0.2413970     1.2016820
  H       -2.8462050     2.0977190    -0.1239210
units angstrom
no_reorient  #important for SAPT in psi4, default
symmetry c1  #important for SAPT in psi4, default
}

set PROPERTIES_ORIGIN ["COM"]
properties('MP2/aug-cc-pvtz', properties = ['dipole'])
--------------------------------------------------------------------------

    Molecular point group: c1
  Charge       = 0
  Multiplicity = 1
  Basis Set: AUG-CC-PVTZ
    Blend: AUG-CC-PVTZ
  Basis Set: (AUG-CC-PVTZ AUX)
    Blend: AUG-CC-PVTZ-JKFIT

    Orbital Energies [Eh]
    ---------------------

    Doubly Occupied:

       1A    -20.628408     2A    -20.565927     3A    -20.556622
       4A    -15.559854     5A    -11.396434     6A    -11.349249
       7A    -11.283733     8A    -11.237559     9A    -11.222330
      10A    -11.216450    11A     -1.543845    12A     -1.470210
      13A     -1.365988    14A     -1.217299    15A     -1.051859
      16A     -1.019289    17A     -0.916542    18A     -0.863729
      19A     -0.807299    20A     -0.778757    21A     -0.738842
      22A     -0.710327    23A     -0.695620    24A     -0.679041
      25A     -0.671444    26A     -0.649386    27A     -0.612313
      28A     -0.603147    29A     -0.598784    30A     -0.558135
      31A     -0.545500    32A     -0.541293    33A     -0.526346
      34A     -0.515056    35A     -0.499763    36A     -0.488855
      37A     -0.464923    38A     -0.398729    39A     -0.387348

  @DF-RHF Final Energy:  -512.81009620475174

   => Energetics <=

    Nuclear Repulsion Energy =            549.2592382111976121
    One-Electron Energy =               -1790.2662021644789547
    Two-Electron Energy =                 728.1968677485294847
    Total Energy =                       -512.8100962047517442
  Basis Set: (AUG-CC-PVTZ AUX)
    Blend: AUG-CC-PVTZ-RI
    Molecular point group: c1

    Geometry (in Angstrom), charge = 0, multiplicity = 1:

       Center              X                  Y                   Z               Mass
    ------------   -----------------  -----------------  -----------------  -----------------
         O           -1.973276813111     1.675754572970    -0.192484057366    15.994914619570
         O            1.666135186889    -1.208032427030     0.636100942634    15.994914619570
         O           -3.294062813111    -0.033523427030     0.487178942634    15.994914619570
         N            0.211384186889     0.282711572970    -0.277562057366    14.003074004430
         C           -0.953765813111    -0.482639427030     0.109925942634    12.000000000000
         C           -1.199515813111    -1.667260427030    -0.826170057366    12.000000000000
         C            2.576303186889     0.821208572970    -0.345574057366    12.000000000000
         C            1.498067986889    -0.307886927030     0.155818842634    12.000000000000
         C           -2.193520813111     0.380274572970     0.176783942634    12.000000000000
         C            3.947975186889     0.346473572970     0.107691942634    12.000000000000
         H           -0.786545813111    -0.875313427030     1.121154942634     1.007825032230
         H            0.072338186889     1.211011572970    -0.652833057366     1.007825032230
         H           -1.354230813111    -1.313916427030    -1.848570057366     1.007825032230
         H           -0.326584813111    -2.320296427030    -0.799241057366     1.007825032230
         H           -2.081496813111    -2.221739427030    -0.500068057366     1.007825032230
         H            2.545298186889     0.931144572970    -1.436577057366     1.007825032230
         H            2.352793186889     1.813462572970     0.065670942634     1.007825032230
         H            4.175519186889    -0.633038427030    -0.314674057366     1.007825032230
         H            4.716766186889     1.054814572970    -0.212743057366     1.007825032230
         H            3.987647186889     0.255798572970     1.193997942634     1.007825032230
         H           -2.848893813111     2.112120572970    -0.131605057366     1.007825032230

  Basis Set: AUG-CC-PVTZ
    Blend: AUG-CC-PVTZ
  Basis Set: (AUG-CC-PVTZ AUX)
    Blend: AUG-CC-PVTZ-JKFIT
	 Reference Energy          =    -512.8100962047517442 [Eh]
	 Singles Energy            =      -0.0000000000000000 [Eh]
	 Same-Spin Energy          =      -0.5077291254497297 [Eh]
	 Opposite-Spin Energy      =      -1.6082166642814015 [Eh]
	 Correlation Energy        =      -2.1159457897311311 [Eh]
	 Total Energy              =    -514.9260419944828300 [Eh]

	 ================> DF-SCS-MP2 Energies <==================
	-----------------------------------------------------------
	 SCS Same-Spin Scale       =       0.3333333333333333 [-]
	 SCS Opposite-Spin Scale   =       1.2000000000000000 [-]
	 SCS Same-Spin Energy      =      -0.1692430418165766 [Eh]
	 SCS Opposite-Spin Energy  =      -1.9298599971376817 [Eh]
	 SCS Correlation Energy    =      -2.0991030389542584 [Eh]
	 SCS Total Energy          =    -514.9091992437059844 [Eh]
	-----------------------------------------------------------

  Dipole Moment: [D]
     X:     0.7121      Y:     2.2813      Z:    -1.1828     Total:     2.6665

*** Psi4 exiting successfully. Buy a developer a beer!
