                               Psi4 1.3.2 release

  ==> Input File <==

--------------------------------------------------------------------------
#psi4
#
memory 32 gb

molecule  {
0 1
  O       -1.9705880     1.6613530    -0.1848000
  O        1.6688240    -1.2224340     0.6437850
  O       -3.2913740    -0.0479250     0.4948630
  N        0.2140730     0.2683100    -0.2698780
  C       -0.9510770    -0.4970410     0.1176100
  C       -1.1968270    -1.6816620    -0.8184860
  C        2.5789920     0.8068070    -0.3378900
  C        1.5601516    -0.1787003     0.0955557
  C       -2.1908320     0.3658730     0.1844680
  C        3.9506640     0.3320720     0.1153760
  H       -0.7838570    -0.8897150     1.1288390
  H        0.0750270     1.1966100    -0.6451490
  H       -1.3515420    -1.3283180    -1.8408860
  H       -0.3238960    -2.3346980    -0.7915570
  H       -2.0788080    -2.2361410    -0.4923840
  H        2.5479870     0.9167430    -1.4288930
  H        2.3554820     1.7990610     0.0733550
  H        4.1782080    -0.6474400    -0.3069900
  H        4.7194550     1.0404130    -0.2050590
  H        3.9903360     0.2413970     1.2016820
  H       -2.8462050     2.0977190    -0.1239210
units angstrom
no_reorient  #important for SAPT in psi4, default
symmetry c1  #important for SAPT in psi4, default
}

set PROPERTIES_ORIGIN ["COM"]
properties('MP2/aug-cc-pvtz', properties = ['dipole'])
--------------------------------------------------------------------------

    Molecular point group: c1
  Charge       = 0
  Multiplicity = 1
  Basis Set: AUG-CC-PVTZ
    Blend: AUG-CC-PVTZ
  Basis Set: (AUG-CC-PVTZ AUX)
    Blend: AUG-CC-PVTZ-JKFIT

    Orbital Energies [Eh]
    ---------------------

    Doubly Occupied:

       1A    -20.629857     2A    -20.558320     3A    -20.543293
       4A    -15.571748     5A    -11.398837     6A    -11.361594
       7A    -11.287944     8A    -11.250545     9A    -11.224524
      10A    -11.220849    11A     -1.471911    12A     -1.418160
      13A     -1.367559    14A     -1.219271    15A     -1.080237
      16A     -1.027014    17A     -0.920834    18A     -0.889575
      19A     -0.807830    20A     -0.772913    21A     -0.727323
      22A     -0.708025    23A     -0.685887    24A     -0.663173
      25A     -0.648642    26A     -0.638718    27A     -0.610566
      28A     -0.602852    29A     -0.575745    30A     -0.545542
      31A     -0.541685    32A     -0.532275    33A     -0.525681
      34A     -0.519639    35A     -0.503176    36A     -0.489422
      37A     -0.465767    38A     -0.433881    39A     -0.388241

  @DF-RHF Final Energy:  -512.87667977674869

   => Energetics <=

    Nuclear Repulsion Energy =            547.5561697942357569
    One-Electron Energy =               -1787.2075830422581930
    Two-Electron Energy =                 726.7747334712737484
    Total Energy =                       -512.8766797767486878
  Basis Set: (AUG-CC-PVTZ AUX)
    Blend: AUG-CC-PVTZ-RI
    Molecular point group: c1

    Geometry (in Angstrom), charge = 0, multiplicity = 1:

       Center              X                  Y                   Z               Mass
    ------------   -----------------  -----------------  -----------------  -----------------
         O           -1.978189741166     1.663877464265    -0.186863704993    15.994914619570
         O            1.661222258834    -1.219909535735     0.641721295007    15.994914619570
         O           -3.298975741166    -0.045400535735     0.492799295007    15.994914619570
         N            0.206471258834     0.270834464265    -0.271941704993    14.003074004430
         C           -0.958678741166    -0.494516535735     0.115546295007    12.000000000000
         C           -1.204428741166    -1.679137535735    -0.820549704993    12.000000000000
         C            2.571390258834     0.809331464265    -0.339953704993    12.000000000000
         C            1.552549858834    -0.176175835735     0.093491995007    12.000000000000
         C           -2.198433741166     0.368397464265     0.182404295007    12.000000000000
         C            3.943062258834     0.334596464265     0.113312295007    12.000000000000
         H           -0.791458741166    -0.887190535735     1.126775295007     1.007825032230
         H            0.067425258834     1.199134464265    -0.647212704993     1.007825032230
         H           -1.359143741166    -1.325793535735    -1.842949704993     1.007825032230
         H           -0.331497741166    -2.332173535735    -0.793620704993     1.007825032230
         H           -2.086409741166    -2.233616535735    -0.494447704993     1.007825032230
         H            2.540385258834     0.919267464265    -1.430956704993     1.007825032230
         H            2.347880258834     1.801585464265     0.071291295007     1.007825032230
         H            4.170606258834    -0.644915535735    -0.309053704993     1.007825032230
         H            4.711853258834     1.042937464265    -0.207122704993     1.007825032230
         H            3.982734258834     0.243921464265     1.199618295007     1.007825032230
         H           -2.853806741166     2.100243464265    -0.125984704993     1.007825032230

  Basis Set: AUG-CC-PVTZ
    Blend: AUG-CC-PVTZ
  Basis Set: (AUG-CC-PVTZ AUX)
    Blend: AUG-CC-PVTZ-JKFIT
	 Reference Energy          =    -512.8766797767486878 [Eh]
	 Singles Energy            =      -0.0000000000000000 [Eh]
	 Same-Spin Energy          =      -0.5109271587774954 [Eh]
	 Opposite-Spin Energy      =      -1.6143065394599876 [Eh]
	 Correlation Energy        =      -2.1252336982374831 [Eh]
	 Total Energy              =    -515.0019134749861678 [Eh]

	 ================> DF-SCS-MP2 Energies <==================
	-----------------------------------------------------------
	 SCS Same-Spin Scale       =       0.3333333333333333 [-]
	 SCS Opposite-Spin Scale   =       1.2000000000000000 [-]
	 SCS Same-Spin Energy      =      -0.1703090529258318 [Eh]
	 SCS Opposite-Spin Energy  =      -1.9371678473519851 [Eh]
	 SCS Correlation Energy    =      -2.1074769002778169 [Eh]
	 SCS Total Energy          =    -514.9841566770264762 [Eh]
	-----------------------------------------------------------

  Dipole Moment: [D]
     X:     0.8254      Y:     3.1575      Z:    -1.6370     Total:     3.6511

*** Psi4 exiting successfully. Buy a developer a beer!
