                               Psi4 1.3.2 release

  ==> Input File <==

--------------------------------------------------------------------------
#psi4
#
memory 32 gb

molecule  {
0 1
  O       -1.9705880     1.6613530    -0.1848000
  O        1.6688240    -1.2224340     0.6437850
  O       -3.2913740    -0.0479250     0.4948630
  N        0.2140730     0.2683100    -0.2698780
  C       -0.9510770    -0.4970410     0.1176100
  C       -1.1968270    -1.6816620    -0.8184860
  C        2.5789920     0.8068070    -0.3378900
  C        1.4682490    -0.1481810     0.0706060
  C       -2.1929606     0.3604178     0.2101988
  C        3.9506640     0.3320720     0.1153760
  H       -0.7994073    -0.8803014     1.1348844
  H        0.0750270     1.1966100    -0.6451490
  H       -1.3515420    -1.3283180    -1.8408860
  H       -0.3238960    -2.3346980    -0.7915570
  H       -2.0788080    -2.2361410    -0.4923840
  H        2.5479870     0.9167430    -1.4288930
  H        2.3554820     1.7990610     0.0733550
  H        4.1782080    -0.6474400    -0.3069900
  H        4.7194550     1.0404130    -0.2050590
  H        3.9903360     0.2413970     1.2016820
  H       -2.8462050     2.0977190    -0.1239210
units angstrom
no_reorient  #important for SAPT in psi4, default
symmetry c1  #important for SAPT in psi4, default
}

set PROPERTIES_ORIGIN ["COM"]
properties('MP2/aug-cc-pvtz', properties = ['dipole'])
--------------------------------------------------------------------------

    Molecular point group: c1
  Charge       = 0
  Multiplicity = 1
  Basis Set: AUG-CC-PVTZ
    Blend: AUG-CC-PVTZ
  Basis Set: (AUG-CC-PVTZ AUX)
    Blend: AUG-CC-PVTZ-JKFIT

    Orbital Energies [Eh]
    ---------------------

    Doubly Occupied:

       1A    -20.632765     2A    -20.566994     3A    -20.524376
       4A    -15.591651     5A    -11.405063     6A    -11.355781
       7A    -11.297380     8A    -11.247134     9A    -11.227352
      10A    -11.219474    11A     -1.476053    12A     -1.380561
      13A     -1.376932    14A     -1.245732    15A     -1.075460
      16A     -1.035807    17A     -0.927793    18A     -0.885463
      19A     -0.814201    20A     -0.791784    21A     -0.730537
      22A     -0.714084    23A     -0.682635    24A     -0.665184
      25A     -0.641042    26A     -0.633971    27A     -0.610799
      28A     -0.602330    29A     -0.580807    30A     -0.547874
      31A     -0.544947    32A     -0.524392    33A     -0.521633
      34A     -0.519785    35A     -0.499812    36A     -0.489528
      37A     -0.468133    38A     -0.428132    39A     -0.400561

  @DF-RHF Final Energy:  -512.88583905655435

   => Energetics <=

    Nuclear Repulsion Energy =            547.9620342978651024
    One-Electron Energy =               -1787.9278590060896477
    Two-Electron Energy =                 727.0799856516701993
    Total Energy =                       -512.8858390565543459
  Basis Set: (AUG-CC-PVTZ AUX)
    Blend: AUG-CC-PVTZ-RI
    Molecular point group: c1

    Geometry (in Angstrom), charge = 0, multiplicity = 1:

       Center              X                  Y                   Z               Mass
    ------------   -----------------  -----------------  -----------------  -----------------
         O           -1.970303784870     1.661738854382    -0.186970312082    15.994914619570
         O            1.669108215130    -1.222048145618     0.641614687918    15.994914619570
         O           -3.291089784870    -0.047539145618     0.492692687918    15.994914619570
         N            0.214357215130     0.268695854382    -0.272048312082    14.003074004430
         C           -0.950792784870    -0.496655145618     0.115439687918    12.000000000000
         C           -1.196542784870    -1.681276145618    -0.820656312082    12.000000000000
         C            2.579276215130     0.807192854382    -0.340060312082    12.000000000000
         C            1.468533215130    -0.147795145618     0.068435687918    12.000000000000
         C           -2.192676384870     0.360803654382     0.208028487918    12.000000000000
         C            3.950948215130     0.332457854382     0.113205687918    12.000000000000
         H           -0.799123084870    -0.879915545618     1.132714087918     1.007825032230
         H            0.075311215130     1.196995854382    -0.647319312082     1.007825032230
         H           -1.351257784870    -1.327932145618    -1.843056312082     1.007825032230
         H           -0.323611784870    -2.334312145618    -0.793727312082     1.007825032230
         H           -2.078523784870    -2.235755145618    -0.494554312082     1.007825032230
         H            2.548271215130     0.917128854382    -1.431063312082     1.007825032230
         H            2.355766215130     1.799446854382     0.071184687918     1.007825032230
         H            4.178492215130    -0.647054145618    -0.309160312082     1.007825032230
         H            4.719739215130     1.040798854382    -0.207229312082     1.007825032230
         H            3.990620215130     0.241782854382     1.199511687918     1.007825032230
         H           -2.845920784870     2.098104854382    -0.126091312082     1.007825032230

  Basis Set: AUG-CC-PVTZ
    Blend: AUG-CC-PVTZ
  Basis Set: (AUG-CC-PVTZ AUX)
    Blend: AUG-CC-PVTZ-JKFIT
	 Reference Energy          =    -512.8858390565543459 [Eh]
	 Singles Energy            =      -0.0000000000000000 [Eh]
	 Same-Spin Energy          =      -0.5112059062547281 [Eh]
	 Opposite-Spin Energy      =      -1.6147953453585666 [Eh]
	 Correlation Energy        =      -2.1260012516132947 [Eh]
	 Total Energy              =    -515.0118403081676206 [Eh]

	 ================> DF-SCS-MP2 Energies <==================
	-----------------------------------------------------------
	 SCS Same-Spin Scale       =       0.3333333333333333 [-]
	 SCS Opposite-Spin Scale   =       1.2000000000000000 [-]
	 SCS Same-Spin Energy      =      -0.1704019687515760 [Eh]
	 SCS Opposite-Spin Energy  =      -1.9377544144302798 [Eh]
	 SCS Correlation Energy    =      -2.1081563831818557 [Eh]
	 SCS Total Energy          =    -514.9939954397361817 [Eh]
	-----------------------------------------------------------

  Dipole Moment: [D]
     X:    -0.1368      Y:     3.2836      Z:    -1.8057     Total:     3.7499

*** Psi4 exiting successfully. Buy a developer a beer!
