                               Psi4 1.4a3.dev225

  ==> Input File <==

--------------------------------------------------------------------------
#psi4
#
memory 32 gb

molecule  {
0 1
  O       -2.1439760    -1.5096120     0.4578230
  O        1.6019480     1.2946100    -0.5777250
  O       -3.1849820    -0.0999640    -0.9818910
  N        0.1649120    -0.2715720     0.2333030
  C       -1.0051050     0.5087660    -0.1211110
  C       -1.3212480     1.5963590     0.9125160
  C        2.5597860    -0.6480590     0.5035240
  C        1.4000020     0.2090967    -0.0004344
  C       -2.2159370    -0.3767160    -0.3010400
  C        3.7806550    -0.5458820    -0.4040570
  H       -0.8075500     0.9861290    -1.0847450
  H        0.0342290    -1.1271740     0.7572540
  H       -1.5188550     1.1449870     1.8886910
  H       -0.4592110     2.2615650     0.9886780
  H       -2.1947650     2.1753270     0.6002850
  H        2.8115640    -0.2961200     1.5118980
  H        2.2315720    -1.6889350     0.6045970
  H        4.0689510     0.4992230    -0.5227640
  H        4.6219880    -1.1034150     0.0157220
  H        3.5611410    -0.9492480    -1.3958190
  H       -2.9864200    -1.9858630     0.3018850
units angstrom
no_reorient  #important for SAPT in psi4, default
symmetry c1  #important for SAPT in psi4, default
}

set PROPERTIES_ORIGIN ["COM"]
properties('MP2/aug-cc-pvtz', properties = ['dipole'])
--------------------------------------------------------------------------

    Molecular point group: c1
  Charge       = 0
  Multiplicity = 1
  Basis Set: AUG-CC-PVTZ
    Blend: AUG-CC-PVTZ
  Basis Set: (AUG-CC-PVTZ AUX)
    Blend: AUG-CC-PVTZ-JKFIT

    Orbital Energies [Eh]
    ---------------------

    Doubly Occupied:

       1A    -20.635694     2A    -20.566364     3A    -20.519042
       4A    -15.599529     5A    -11.405279     6A    -11.355710
       7A    -11.298306     8A    -11.247373     9A    -11.234627
      10A    -11.220892    11A     -1.477766    12A     -1.374444
      13A     -1.373053    14A     -1.250666    15A     -1.076673
      16A     -1.037871    17A     -0.930126    18A     -0.884973
      19A     -0.823711    20A     -0.799332    21A     -0.729810
      22A     -0.715566    23A     -0.678633    24A     -0.662360
      25A     -0.642696    26A     -0.629017    27A     -0.610151
      28A     -0.601035    29A     -0.592138    30A     -0.553529
      31A     -0.542348    32A     -0.534104    33A     -0.521911
      34A     -0.513372    35A     -0.498218    36A     -0.487229
      37A     -0.469499    38A     -0.424685    39A     -0.401737

  @DF-RHF Final Energy:  -512.88539056842683

   => Energetics <=

    Nuclear Repulsion Energy =            547.8570366803307934
    One-Electron Energy =               -1787.6459162577561983
    Two-Electron Energy =                 726.9034890089985765
    Total Energy =                       -512.8853905684268284
  Basis Set: (AUG-CC-PVTZ AUX)
    Blend: AUG-CC-PVTZ-RI
    Molecular point group: c1

    Geometry (in Angstrom), charge = 0, multiplicity = 1:

       Center              X                  Y                   Z               Mass
    ------------   -----------------  -----------------  -----------------  -----------------
         O           -2.078559758700    -1.509597536546     0.482562037670    15.994914619570
         O            1.667364241300     1.294624463454    -0.552985962330    15.994914619570
         O           -3.119565758700    -0.099949536546    -0.957151962330    15.994914619570
         N            0.230328241300    -0.271557536546     0.258042037670    14.003074004430
         C           -0.939688758700     0.508780463454    -0.096371962330    12.000000000000
         C           -1.255831758700     1.596373463454     0.937255037670    12.000000000000
         C            2.625202241300    -0.648044536546     0.528263037670    12.000000000000
         C            1.465418241300     0.209111163454     0.024304637670    12.000000000000
         C           -2.150520758700    -0.376701536546    -0.276300962330    12.000000000000
         C            3.846071241300    -0.545867536546    -0.379317962330    12.000000000000
         H           -0.742133758700     0.986143463454    -1.060005962330     1.007825032230
         H            0.099645241300    -1.127159536546     0.781993037670     1.007825032230
         H           -1.453438758700     1.145001463454     1.913430037670     1.007825032230
         H           -0.393794758700     2.261579463454     1.013417037670     1.007825032230
         H           -2.129348758700     2.175341463454     0.625024037670     1.007825032230
         H            2.876980241300    -0.296105536546     1.536637037670     1.007825032230
         H            2.296988241300    -1.688920536546     0.629336037670     1.007825032230
         H            4.134367241300     0.499237463454    -0.498024962330     1.007825032230
         H            4.687404241300    -1.103400536546     0.040461037670     1.007825032230
         H            3.626557241300    -0.949233536546    -1.371079962330     1.007825032230
         H           -2.921003758700    -1.985848536546     0.326624037670     1.007825032230

  Basis Set: AUG-CC-PVTZ
    Blend: AUG-CC-PVTZ
  Basis Set: (AUG-CC-PVTZ AUX)
    Blend: AUG-CC-PVTZ-JKFIT
	 Reference Energy          =    -512.8853905684268284 [Eh]
	 Singles Energy            =      -0.0000000000000000 [Eh]
	 Same-Spin Energy          =      -0.5112932571169935 [Eh]
	 Opposite-Spin Energy      =      -1.6153346203869408 [Eh]
	 Correlation Energy        =      -2.1266278775039344 [Eh]
	 Total Energy              =    -515.0120184459307211 [Eh]

	 ================> DF-SCS-MP2 Energies <==================
	-----------------------------------------------------------
	 SCS Same-Spin Scale       =       0.3333333333333333 [-]
	 SCS Opposite-Spin Scale   =       1.2000000000000000 [-]
	 SCS Same-Spin Energy      =      -0.1704310857056645 [Eh]
	 SCS Opposite-Spin Energy  =      -1.9384015444643288 [Eh]
	 SCS Correlation Energy    =      -2.1088326301699931 [Eh]
	 SCS Total Energy          =    -514.9942231985968419 [Eh]
	-----------------------------------------------------------

  Dipole Moment: [D]
     X:    -0.3895      Y:    -3.0919      Z:     2.6820     Total:     4.1115

*** Psi4 exiting successfully. Buy a developer a beer!
