                               Psi4 1.3.2 release

  ==> Input File <==

--------------------------------------------------------------------------
#psi4
#
memory 32 gb

molecule  {
0 1
  O       -1.9705880     1.6613530    -0.1848000
  O        1.6688240    -1.2224340     0.6437850
  O       -3.2913740    -0.0479250     0.4948630
  N        0.1918478     0.2780548    -0.3141687
  C       -0.9510770    -0.4970410     0.1176100
  C       -1.1968270    -1.6816620    -0.8184860
  C        2.5789920     0.8068070    -0.3378900
  C        1.4682490    -0.1481810     0.0706060
  C       -2.1908320     0.3658730     0.1844680
  C        3.9506640     0.3320720     0.1153760
  H       -0.8183663    -0.9062914     1.1273830
  H        0.0750270     1.1966100    -0.6451490
  H       -1.3515420    -1.3283180    -1.8408860
  H       -0.3238960    -2.3346980    -0.7915570
  H       -2.0788080    -2.2361410    -0.4923840
  H        2.5479870     0.9167430    -1.4288930
  H        2.3554820     1.7990610     0.0733550
  H        4.1782080    -0.6474400    -0.3069900
  H        4.7194550     1.0404130    -0.2050590
  H        3.9903360     0.2413970     1.2016820
  H       -2.8462050     2.0977190    -0.1239210
units angstrom
no_reorient  #important for SAPT in psi4, default
symmetry c1  #important for SAPT in psi4, default
}

set PROPERTIES_ORIGIN ["COM"]
properties('MP2/aug-cc-pvtz', properties = ['dipole'])
--------------------------------------------------------------------------

    Molecular point group: c1
  Charge       = 0
  Multiplicity = 1
  Basis Set: AUG-CC-PVTZ
    Blend: AUG-CC-PVTZ
  Basis Set: (AUG-CC-PVTZ AUX)
    Blend: AUG-CC-PVTZ-JKFIT

    Orbital Energies [Eh]
    ---------------------

    Doubly Occupied:

       1A    -20.634953     2A    -20.562667     3A    -20.531885
       4A    -15.588831     5A    -11.403426     6A    -11.361574
       7A    -11.295972     8A    -11.248607     9A    -11.225049
      10A    -11.220760    11A     -1.477065    12A     -1.381590
      13A     -1.372202    14A     -1.243890    15A     -1.074315
      16A     -1.035045    17A     -0.926043    18A     -0.886762
      19A     -0.817380    20A     -0.788991    21A     -0.730243
      22A     -0.714191    23A     -0.683826    24A     -0.664366
      25A     -0.641341    26A     -0.634251    27A     -0.608568
      28A     -0.607073    29A     -0.579189    30A     -0.546144
      31A     -0.543681    32A     -0.526601    33A     -0.521381
      34A     -0.520301    35A     -0.497442    36A     -0.488790
      37A     -0.466774    38A     -0.430405    39A     -0.401201

  @DF-RHF Final Energy:  -512.88327502520053

   => Energetics <=

    Nuclear Repulsion Energy =            547.5726468144453065
    One-Electron Energy =               -1787.1462937245248668
    Two-Electron Energy =                 726.6903718848790277
    Total Energy =                       -512.8832750252005326
  Basis Set: (AUG-CC-PVTZ AUX)
    Blend: AUG-CC-PVTZ-RI
    Molecular point group: c1

    Geometry (in Angstrom), charge = 0, multiplicity = 1:

       Center              X                  Y                   Z               Mass
    ------------   -----------------  -----------------  -----------------  -----------------
         O           -1.968202888090     1.660527566954    -0.180514735357    15.994914619570
         O            1.671209111910    -1.223259433046     0.648070264643    15.994914619570
         O           -3.288988888090    -0.048750433046     0.499148264643    15.994914619570
         N            0.194232911910     0.277229366954    -0.309883435357    14.003074004430
         C           -0.948691888090    -0.497866433046     0.121895264643    12.000000000000
         C           -1.194441888090    -1.682487433046    -0.814200735357    12.000000000000
         C            2.581377111910     0.805981566954    -0.333604735357    12.000000000000
         C            1.470634111910    -0.149006433046     0.074891264643    12.000000000000
         C           -2.188446888090     0.365047566954     0.188753264643    12.000000000000
         C            3.953049111910     0.331246566954     0.119661264643    12.000000000000
         H           -0.815981188090    -0.907116833046     1.131668264643     1.007825032230
         H            0.077412111910     1.195784566954    -0.640863735357     1.007825032230
         H           -1.349156888090    -1.329143433046    -1.836600735357     1.007825032230
         H           -0.321510888090    -2.335523433046    -0.787271735357     1.007825032230
         H           -2.076422888090    -2.236966433046    -0.488098735357     1.007825032230
         H            2.550372111910     0.915917566954    -1.424607735357     1.007825032230
         H            2.357867111910     1.798235566954     0.077640264643     1.007825032230
         H            4.180593111910    -0.648265433046    -0.302704735357     1.007825032230
         H            4.721840111910     1.039587566954    -0.200773735357     1.007825032230
         H            3.992721111910     0.240571566954     1.205967264643     1.007825032230
         H           -2.843819888090     2.096893566954    -0.119635735357     1.007825032230

  Basis Set: AUG-CC-PVTZ
    Blend: AUG-CC-PVTZ
  Basis Set: (AUG-CC-PVTZ AUX)
    Blend: AUG-CC-PVTZ-JKFIT
	 Reference Energy          =    -512.8832750252005326 [Eh]
	 Singles Energy            =      -0.0000000000000000 [Eh]
	 Same-Spin Energy          =      -0.5112639372135082 [Eh]
	 Opposite-Spin Energy      =      -1.6151789156211422 [Eh]
	 Correlation Energy        =      -2.1264428528346504 [Eh]
	 Total Energy              =    -515.0097178780351896 [Eh]

	 ================> DF-SCS-MP2 Energies <==================
	-----------------------------------------------------------
	 SCS Same-Spin Scale       =       0.3333333333333333 [-]
	 SCS Opposite-Spin Scale   =       1.2000000000000000 [-]
	 SCS Same-Spin Energy      =      -0.1704213124045027 [Eh]
	 SCS Opposite-Spin Energy  =      -1.9382146987453706 [Eh]
	 SCS Correlation Energy    =      -2.1086360111498732 [Eh]
	 SCS Total Energy          =    -514.9919110363504160 [Eh]
	-----------------------------------------------------------

  Dipole Moment: [D]
     X:     0.1221      Y:     3.3099      Z:    -1.7375     Total:     3.7402

*** Psi4 exiting successfully. Buy a developer a beer!
