                               Psi4 1.3.2 release

  ==> Input File <==

--------------------------------------------------------------------------
#psi4
#
memory 32 gb

molecule  {
0 1
  O       -1.9705880     1.6613530    -0.1848000
  O        1.6688240    -1.2224340     0.6437850
  O       -3.2913740    -0.0479250     0.4948630
  N        0.2140730     0.2683100    -0.2698780
  C       -0.9510770    -0.4970410     0.1176100
  C       -1.1968270    -1.6816620    -0.8184860
  C        2.5789920     0.8068070    -0.3378900
  C        1.4682490    -0.1481810     0.0706060
  C       -2.1821836     0.3806554     0.1071849
  C        3.9506640     0.3320720     0.1153760
  H       -0.7375305    -0.9172268     1.1088624
  H        0.0750270     1.1966100    -0.6451490
  H       -1.3515420    -1.3283180    -1.8408860
  H       -0.3238960    -2.3346980    -0.7915570
  H       -2.0788080    -2.2361410    -0.4923840
  H        2.5479870     0.9167430    -1.4288930
  H        2.3554820     1.7990610     0.0733550
  H        4.1782080    -0.6474400    -0.3069900
  H        4.7194550     1.0404130    -0.2050590
  H        3.9903360     0.2413970     1.2016820
  H       -2.8462050     2.0977190    -0.1239210
units angstrom
no_reorient  #important for SAPT in psi4, default
symmetry c1  #important for SAPT in psi4, default
}

set PROPERTIES_ORIGIN ["COM"]
properties('MP2/aug-cc-pvtz', properties = ['dipole'])
--------------------------------------------------------------------------

    Molecular point group: c1
  Charge       = 0
  Multiplicity = 1
  Basis Set: AUG-CC-PVTZ
    Blend: AUG-CC-PVTZ
  Basis Set: (AUG-CC-PVTZ AUX)
    Blend: AUG-CC-PVTZ-JKFIT

    Orbital Energies [Eh]
    ---------------------

    Doubly Occupied:

       1A    -20.647440     2A    -20.557967     3A    -20.525489
       4A    -15.591701     5A    -11.408881     6A    -11.356414
       7A    -11.297286     8A    -11.247725     9A    -11.225556
      10A    -11.219948    11A     -1.490709    12A     -1.381414
      13A     -1.356993    14A     -1.247381    15A     -1.075983
      16A     -1.035882    17A     -0.930582    18A     -0.887973
      19A     -0.824589    20A     -0.795293    21A     -0.732837
      22A     -0.717848    23A     -0.683232    24A     -0.669105
      25A     -0.643245    26A     -0.635817    27A     -0.607693
      28A     -0.602232    29A     -0.581536    30A     -0.545942
      31A     -0.542315    32A     -0.524496    33A     -0.520926
      34A     -0.519315    35A     -0.494212    36A     -0.481229
      37A     -0.467272    38A     -0.428582    39A     -0.398950

  @DF-RHF Final Energy:  -512.87890136683689

   => Energetics <=

    Nuclear Repulsion Energy =            548.1864458277070753
    One-Electron Energy =               -1788.3267187188719163
    Two-Electron Energy =                 727.2613715243279557
    Total Energy =                       -512.8789013668368852
  Basis Set: (AUG-CC-PVTZ AUX)
    Blend: AUG-CC-PVTZ-RI
    Molecular point group: c1

    Geometry (in Angstrom), charge = 0, multiplicity = 1:

       Center              X                  Y                   Z               Mass
    ------------   -----------------  -----------------  -----------------  -----------------
         O           -1.971625076962     1.660321391509    -0.178268591911    15.994914619570
         O            1.667786923038    -1.223465608491     0.650316408089    15.994914619570
         O           -3.292411076962    -0.048956608491     0.501394408089    15.994914619570
         N            0.213035923038     0.267278391509    -0.263346591911    14.003074004430
         C           -0.952114076962    -0.498072608491     0.124141408089    12.000000000000
         C           -1.197864076962    -1.682693608491    -0.811954591911    12.000000000000
         C            2.577954923038     0.805775391509    -0.331358591911    12.000000000000
         C            1.467211923038    -0.149212608491     0.077137408089    12.000000000000
         C           -2.183220676962     0.379623791509     0.113716308089    12.000000000000
         C            3.949626923038     0.331040391509     0.121907408089    12.000000000000
         H           -0.738567576962    -0.918258408491     1.115393808089     1.007825032230
         H            0.073989923038     1.195578391509    -0.638617591911     1.007825032230
         H           -1.352579076962    -1.329349608491    -1.834354591911     1.007825032230
         H           -0.324933076962    -2.335729608491    -0.785025591911     1.007825032230
         H           -2.079845076962    -2.237172608491    -0.485852591911     1.007825032230
         H            2.546949923038     0.915711391509    -1.422361591911     1.007825032230
         H            2.354444923038     1.798029391509     0.079886408089     1.007825032230
         H            4.177170923038    -0.648471608491    -0.300458591911     1.007825032230
         H            4.718417923038     1.039381391509    -0.198527591911     1.007825032230
         H            3.989298923038     0.240365391509     1.208213408089     1.007825032230
         H           -2.847242076962     2.096687391509    -0.117389591911     1.007825032230

  Basis Set: AUG-CC-PVTZ
    Blend: AUG-CC-PVTZ
  Basis Set: (AUG-CC-PVTZ AUX)
    Blend: AUG-CC-PVTZ-JKFIT
	 Reference Energy          =    -512.8789013668368852 [Eh]
	 Singles Energy            =      -0.0000000000000000 [Eh]
	 Same-Spin Energy          =      -0.5120466337633307 [Eh]
	 Opposite-Spin Energy      =      -1.6162014679258074 [Eh]
	 Correlation Energy        =      -2.1282481016891381 [Eh]
	 Total Energy              =    -515.0071494685259950 [Eh]

	 ================> DF-SCS-MP2 Energies <==================
	-----------------------------------------------------------
	 SCS Same-Spin Scale       =       0.3333333333333333 [-]
	 SCS Opposite-Spin Scale   =       1.2000000000000000 [-]
	 SCS Same-Spin Energy      =      -0.1706822112544435 [Eh]
	 SCS Opposite-Spin Energy  =      -1.9394417615109689 [Eh]
	 SCS Correlation Energy    =      -2.1101239727654124 [Eh]
	 SCS Total Energy          =    -514.9890253396023354 [Eh]
	-----------------------------------------------------------

  Dipole Moment: [D]
     X:     0.0464      Y:     3.5997      Z:    -2.0116     Total:     4.1239

*** Psi4 exiting successfully. Buy a developer a beer!
