                               Psi4 1.4a3.dev225

  ==> Input File <==

--------------------------------------------------------------------------
#psi4
#
memory 32 gb

molecule  {
0 1
  O       -2.1439760    -1.5096120     0.4578230
  O        1.6019480     1.2946100    -0.5777250
  O       -3.1849820    -0.0999640    -0.9818910
  N        0.1649120    -0.2715720     0.2333030
  C       -1.0051050     0.5087660    -0.1211110
  C       -1.3212480     1.5963590     0.9125160
  C        2.5597860    -0.6480590     0.5035240
  C        1.4183570     0.2162400    -0.0039080
  C       -2.2159370    -0.3767160    -0.3010400
  C        3.7806550    -0.5458820    -0.4040570
  H       -0.8075500     0.9861290    -1.0847450
  H        0.0342290    -1.1271740     0.7572540
  H       -1.5188550     1.1449870     1.8886910
  H       -0.4592110     2.2615650     0.9886780
  H       -2.1947650     2.1753270     0.6002850
  H        2.8115640    -0.2961200     1.5118980
  H        2.2315720    -1.6889350     0.6045970
  H        4.0689510     0.4992230    -0.5227640
  H        4.6219880    -1.1034150     0.0157220
  H        3.5611410    -0.9492480    -1.3958190
  H       -3.0293919    -2.0101559     0.2939308
units angstrom
no_reorient  #important for SAPT in psi4, default
symmetry c1  #important for SAPT in psi4, default
}

set PROPERTIES_ORIGIN ["COM"]
properties('MP2/aug-cc-pvtz', properties = ['dipole'])
--------------------------------------------------------------------------

    Molecular point group: c1
  Charge       = 0
  Multiplicity = 1
  Basis Set: AUG-CC-PVTZ
    Blend: AUG-CC-PVTZ
  Basis Set: (AUG-CC-PVTZ AUX)
    Blend: AUG-CC-PVTZ-JKFIT

    Orbital Energies [Eh]
    ---------------------

    Doubly Occupied:

       1A    -20.637044     2A    -20.564133     3A    -20.522583
       4A    -15.595533     5A    -11.402946     6A    -11.356704
       7A    -11.296258     8A    -11.247584     9A    -11.233070
      10A    -11.221716    11A     -1.469686    12A     -1.379346
      13A     -1.368022    14A     -1.245457    15A     -1.075545
      16A     -1.036926    17A     -0.926096    18A     -0.884332
      19A     -0.815854    20A     -0.793743    21A     -0.726808
      22A     -0.709471    23A     -0.679540    24A     -0.659880
      25A     -0.641508    26A     -0.628979    27A     -0.606302
      28A     -0.600532    29A     -0.593341    30A     -0.551302
      31A     -0.541450    32A     -0.533886    33A     -0.523279
      34A     -0.513830    35A     -0.497105    36A     -0.487342
      37A     -0.468087    38A     -0.427262    39A     -0.400209

  @DF-RHF Final Energy:  -512.88126797118139

   => Energetics <=

    Nuclear Repulsion Energy =            547.4255584232763567
    One-Electron Energy =               -1786.8882709050853919
    Two-Electron Energy =                 726.5814445106275343
    Total Energy =                       -512.8812679711813871
  Basis Set: (AUG-CC-PVTZ AUX)
    Blend: AUG-CC-PVTZ-RI
    Molecular point group: c1

    Geometry (in Angstrom), charge = 0, multiplicity = 1:

       Center              X                  Y                   Z               Mass
    ------------   -----------------  -----------------  -----------------  -----------------
         O           -2.079779494654    -1.510019642866     0.482904619238    15.994914619570
         O            1.666144505346     1.294202357134    -0.552643380762    15.994914619570
         O           -3.120785494654    -0.100371642866    -0.956809380762    15.994914619570
         N            0.229108505346    -0.271979642866     0.258384619238    14.003074004430
         C           -0.940908494654     0.508358357134    -0.096029380762    12.000000000000
         C           -1.257051494654     1.595951357134     0.937597619238    12.000000000000
         C            2.623982505346    -0.648466642866     0.528605619238    12.000000000000
         C            1.482553505346     0.215832357134     0.021173619238    12.000000000000
         C           -2.151740494654    -0.377123642866    -0.275958380762    12.000000000000
         C            3.844851505346    -0.546289642866    -0.378975380762    12.000000000000
         H           -0.743353494654     0.985721357134    -1.059663380762     1.007825032230
         H            0.098425505346    -1.127581642866     0.782335619238     1.007825032230
         H           -1.454658494654     1.144579357134     1.913772619238     1.007825032230
         H           -0.395014494654     2.261157357134     1.013759619238     1.007825032230
         H           -2.130568494654     2.174919357134     0.625366619238     1.007825032230
         H            2.875760505346    -0.296527642866     1.536979619238     1.007825032230
         H            2.295768505346    -1.689342642866     0.629678619238     1.007825032230
         H            4.133147505346     0.498815357134    -0.497682380762     1.007825032230
         H            4.686184505346    -1.103822642866     0.040803619238     1.007825032230
         H            3.625337505346    -0.949655642866    -1.370737380762     1.007825032230
         H           -2.965195394654    -2.010563542866     0.319012419238     1.007825032230

  Basis Set: AUG-CC-PVTZ
    Blend: AUG-CC-PVTZ
  Basis Set: (AUG-CC-PVTZ AUX)
    Blend: AUG-CC-PVTZ-JKFIT
	 Reference Energy          =    -512.8812679711813871 [Eh]
	 Singles Energy            =      -0.0000000000000000 [Eh]
	 Same-Spin Energy          =      -0.5118307701426179 [Eh]
	 Opposite-Spin Energy      =      -1.6166366859852506 [Eh]
	 Correlation Energy        =      -2.1284674561278685 [Eh]
	 Total Energy              =    -515.0097354273092378 [Eh]

	 ================> DF-SCS-MP2 Energies <==================
	-----------------------------------------------------------
	 SCS Same-Spin Scale       =       0.3333333333333333 [-]
	 SCS Opposite-Spin Scale   =       1.2000000000000000 [-]
	 SCS Same-Spin Energy      =      -0.1706102567142060 [Eh]
	 SCS Opposite-Spin Energy  =      -1.9399640231823005 [Eh]
	 SCS Correlation Energy    =      -2.1105742798965066 [Eh]
	 SCS Total Energy          =    -514.9918422510778555 [Eh]
	-----------------------------------------------------------

  Dipole Moment: [D]
     X:    -0.2668      Y:    -3.0821      Z:     2.6488     Total:     4.0727

*** Psi4 exiting successfully. Buy a developer a beer!
