                               Psi4 1.3.2 release

  ==> Input File <==

--------------------------------------------------------------------------
#psi4
#
memory 32 gb

molecule  {
0 1
  O       -1.9705880     1.6613530    -0.1848000
  O        1.6688240    -1.2224340     0.6437850
  O       -3.2913740    -0.0479250     0.4948630
  N        0.2140730     0.2683100    -0.2698780
  C       -0.9510770    -0.4970410     0.1176100
  C       -1.1968270    -1.6816620    -0.8184860
  C        2.5789920     0.8068070    -0.3378900
  C        1.4547334    -0.1528517     0.0194877
  C       -2.1908320     0.3658730     0.1844680
  C        3.9506640     0.3320720     0.1153760
  H       -0.7838570    -0.8897150     1.1288390
  H        0.0750270     1.1966100    -0.6451490
  H       -1.3515420    -1.3283180    -1.8408860
  H       -0.3238960    -2.3346980    -0.7915570
  H       -2.0788080    -2.2361410    -0.4923840
  H        2.5182481     0.8926423    -1.4298045
  H        2.3554820     1.7990610     0.0733550
  H        4.1782080    -0.6474400    -0.3069900
  H        4.7194550     1.0404130    -0.2050590
  H        3.9903360     0.2413970     1.2016820
  H       -2.8462050     2.0977190    -0.1239210
units angstrom
no_reorient  #important for SAPT in psi4, default
symmetry c1  #important for SAPT in psi4, default
}

set PROPERTIES_ORIGIN ["COM"]
properties('MP2/aug-cc-pvtz', properties = ['dipole'])
--------------------------------------------------------------------------

    Molecular point group: c1
  Charge       = 0
  Multiplicity = 1
  Basis Set: AUG-CC-PVTZ
    Blend: AUG-CC-PVTZ
  Basis Set: (AUG-CC-PVTZ AUX)
    Blend: AUG-CC-PVTZ-JKFIT

    Orbital Energies [Eh]
    ---------------------

    Doubly Occupied:

       1A    -20.638230     2A    -20.566162     3A    -20.518412
       4A    -15.596438     5A    -11.407574     6A    -11.354956
       7A    -11.299525     8A    -11.247658     9A    -11.228400
      10A    -11.219396    11A     -1.480306    12A     -1.375566
      13A     -1.367778    14A     -1.249622    15A     -1.077622
      16A     -1.037233    17A     -0.930785    18A     -0.887397
      19A     -0.819039    20A     -0.797586    21A     -0.732698
      22A     -0.716189    23A     -0.681296    24A     -0.666277
      25A     -0.642310    26A     -0.634407    27A     -0.612254
      28A     -0.597383    29A     -0.580445    30A     -0.548956
      31A     -0.544895    32A     -0.525794    33A     -0.520762
      34A     -0.516976    35A     -0.498793    36A     -0.485438
      37A     -0.469328    38A     -0.424172    39A     -0.400335

  @DF-RHF Final Energy:  -512.88228367878651

   => Energetics <=

    Nuclear Repulsion Energy =            548.1227034247250458
    One-Electron Energy =               -1788.2131916188452578
    Two-Electron Energy =                 727.2082045153335912
    Total Energy =                       -512.8822836787865072
  Basis Set: (AUG-CC-PVTZ AUX)
    Blend: AUG-CC-PVTZ-RI
    Molecular point group: c1

    Geometry (in Angstrom), charge = 0, multiplicity = 1:

       Center              X                  Y                   Z               Mass
    ------------   -----------------  -----------------  -----------------  -----------------
         O           -1.969263324571     1.661906786392    -0.180565296560    15.994914619570
         O            1.670148675429    -1.221880213608     0.648019703440    15.994914619570
         O           -3.290049324571    -0.047371213608     0.499097703440    15.994914619570
         N            0.215397675429     0.268863786392    -0.265643296560    14.003074004430
         C           -0.949752324571    -0.496487213608     0.121844703440    12.000000000000
         C           -1.195502324571    -1.681108213608    -0.814251296560    12.000000000000
         C            2.580316675429     0.807360786392    -0.333655296560    12.000000000000
         C            1.456058075429    -0.152297913608     0.023722403440    12.000000000000
         C           -2.189507324571     0.366426786392     0.188702703440    12.000000000000
         C            3.951988675429     0.332625786392     0.119610703440    12.000000000000
         H           -0.782532324571    -0.889161213608     1.133073703440     1.007825032230
         H            0.076351675429     1.197163786392    -0.640914296560     1.007825032230
         H           -1.350217324571    -1.327764213608    -1.836651296560     1.007825032230
         H           -0.322571324571    -2.334144213608    -0.787322296560     1.007825032230
         H           -2.077483324571    -2.235587213608    -0.488149296560     1.007825032230
         H            2.519572775429     0.893196086392    -1.425569796560     1.007825032230
         H            2.356806675429     1.799614786392     0.077589703440     1.007825032230
         H            4.179532675429    -0.646886213608    -0.302755296560     1.007825032230
         H            4.720779675429     1.040966786392    -0.200824296560     1.007825032230
         H            3.991660675429     0.241950786392     1.205916703440     1.007825032230
         H           -2.844880324571     2.098272786392    -0.119686296560     1.007825032230

  Basis Set: AUG-CC-PVTZ
    Blend: AUG-CC-PVTZ
  Basis Set: (AUG-CC-PVTZ AUX)
    Blend: AUG-CC-PVTZ-JKFIT
	 Reference Energy          =    -512.8822836787865072 [Eh]
	 Singles Energy            =      -0.0000000000000000 [Eh]
	 Same-Spin Energy          =      -0.5118112225994957 [Eh]
	 Opposite-Spin Energy      =      -1.6158087984385923 [Eh]
	 Correlation Energy        =      -2.1276200210380880 [Eh]
	 Total Energy              =    -515.0099036998245765 [Eh]

	 ================> DF-SCS-MP2 Energies <==================
	-----------------------------------------------------------
	 SCS Same-Spin Scale       =       0.3333333333333333 [-]
	 SCS Opposite-Spin Scale   =       1.2000000000000000 [-]
	 SCS Same-Spin Energy      =      -0.1706037408664986 [Eh]
	 SCS Opposite-Spin Energy  =      -1.9389705581263106 [Eh]
	 SCS Correlation Energy    =      -2.1095742989928090 [Eh]
	 SCS Total Energy          =    -514.9918579777793184 [Eh]
	-----------------------------------------------------------

  Dipole Moment: [D]
     X:    -0.2810      Y:     3.4469      Z:    -1.9525     Total:     3.9714

*** Psi4 exiting successfully. Buy a developer a beer!
