                               Psi4 1.3.2 release

  ==> Input File <==

--------------------------------------------------------------------------
#psi4
#
memory 32 gb

molecule  {
0 1
  O       -1.9705880     1.6613530    -0.1848000
  O        1.6688240    -1.2224340     0.6437850
  O       -3.2913740    -0.0479250     0.4948630
  N        0.2140730     0.2683100    -0.2698780
  C       -0.9510770    -0.4970410     0.1176100
  C       -1.1968270    -1.6816620    -0.8184860
  C        2.5789920     0.8068070    -0.3378900
  C        1.4755154    -0.1454089     0.0959824
  C       -2.1908320     0.3658730     0.1844680
  C        3.9506640     0.3320720     0.1153760
  H       -0.7838570    -0.8897150     1.1288390
  H        0.0750270     1.1966100    -0.6451490
  H       -1.3515420    -1.3283180    -1.8408860
  H       -0.3238960    -2.3346980    -0.7915570
  H       -2.0788080    -2.2361410    -0.4923840
  H        2.5628729     0.9287449    -1.4279387
  H        2.3554820     1.7990610     0.0733550
  H        4.1782080    -0.6474400    -0.3069900
  H        4.7194550     1.0404130    -0.2050590
  H        3.9903360     0.2413970     1.2016820
  H       -2.8462050     2.0977190    -0.1239210
units angstrom
no_reorient  #important for SAPT in psi4, default
symmetry c1  #important for SAPT in psi4, default
}

set PROPERTIES_ORIGIN ["COM"]
properties('MP2/aug-cc-pvtz', properties = ['dipole'])
--------------------------------------------------------------------------

    Molecular point group: c1
  Charge       = 0
  Multiplicity = 1
  Basis Set: AUG-CC-PVTZ
    Blend: AUG-CC-PVTZ
  Basis Set: (AUG-CC-PVTZ AUX)
    Blend: AUG-CC-PVTZ-JKFIT

    Orbital Energies [Eh]
    ---------------------

    Doubly Occupied:

       1A    -20.635798     2A    -20.563800     3A    -20.527805
       4A    -15.589212     5A    -11.404814     6A    -11.356621
       7A    -11.295985     8A    -11.247222     9A    -11.226059
      10A    -11.219710    11A     -1.477837    12A     -1.387187
      13A     -1.373097    14A     -1.243506    15A     -1.074636
      16A     -1.034889    17A     -0.927005    18A     -0.885272
      19A     -0.815869    20A     -0.790151    21A     -0.730428
      22A     -0.714055    23A     -0.683712    24A     -0.665750
      25A     -0.641054    26A     -0.634002    27A     -0.609986
      28A     -0.605279    29A     -0.580629    30A     -0.546475
      31A     -0.544421    32A     -0.524652    33A     -0.521551
      34A     -0.520308    35A     -0.497351    36A     -0.489756
      37A     -0.468067    38A     -0.429753    39A     -0.399572

  @DF-RHF Final Energy:  -512.88598703974981

   => Energetics <=

    Nuclear Repulsion Energy =            547.9649764291285692
    One-Electron Energy =               -1787.9353698164993602
    Two-Electron Energy =                 727.0844063476208703
    Total Energy =                       -512.8859870397498071
  Basis Set: (AUG-CC-PVTZ AUX)
    Blend: AUG-CC-PVTZ-RI
    Molecular point group: c1

    Geometry (in Angstrom), charge = 0, multiplicity = 1:

       Center              X                  Y                   Z               Mass
    ------------   -----------------  -----------------  -----------------  -----------------
         O           -1.971292345672     1.661040340327    -0.186905629610    15.994914619570
         O            1.668119654328    -1.222746659673     0.641679370390    15.994914619570
         O           -3.292078345672    -0.048237659673     0.492757370390    15.994914619570
         N            0.213368654328     0.267997340327    -0.271983629610    14.003074004430
         C           -0.951781345672    -0.497353659673     0.115504370390    12.000000000000
         C           -1.197531345672    -1.681974659673    -0.820591629610    12.000000000000
         C            2.578287654328     0.806494340327    -0.339995629610    12.000000000000
         C            1.474811054328    -0.145721559673     0.093876770390    12.000000000000
         C           -2.191536345672     0.365560340327     0.182362370390    12.000000000000
         C            3.949959654328     0.331759340327     0.113270370390    12.000000000000
         H           -0.784561345672    -0.890027659673     1.126733370390     1.007825032230
         H            0.074322654328     1.196297340327    -0.647254629610     1.007825032230
         H           -1.352246345672    -1.328630659673    -1.842991629610     1.007825032230
         H           -0.324600345672    -2.335010659673    -0.793662629610     1.007825032230
         H           -2.079512345672    -2.236453659673    -0.494489629610     1.007825032230
         H            2.562168554328     0.928432240327    -1.430044329610     1.007825032230
         H            2.354777654328     1.798748340327     0.071249370390     1.007825032230
         H            4.177503654328    -0.647752659673    -0.309095629610     1.007825032230
         H            4.718750654328     1.040100340327    -0.207164629610     1.007825032230
         H            3.989631654328     0.241084340327     1.199576370390     1.007825032230
         H           -2.846909345672     2.097406340327    -0.126026629610     1.007825032230

  Basis Set: AUG-CC-PVTZ
    Blend: AUG-CC-PVTZ
  Basis Set: (AUG-CC-PVTZ AUX)
    Blend: AUG-CC-PVTZ-JKFIT
	 Reference Energy          =    -512.8859870397498071 [Eh]
	 Singles Energy            =      -0.0000000000000000 [Eh]
	 Same-Spin Energy          =      -0.5111570745923326 [Eh]
	 Opposite-Spin Energy      =      -1.6146849782913431 [Eh]
	 Correlation Energy        =      -2.1258420528836757 [Eh]
	 Total Energy              =    -515.0118290926334339 [Eh]

	 ================> DF-SCS-MP2 Energies <==================
	-----------------------------------------------------------
	 SCS Same-Spin Scale       =       0.3333333333333333 [-]
	 SCS Opposite-Spin Scale   =       1.2000000000000000 [-]
	 SCS Same-Spin Energy      =      -0.1703856915307775 [Eh]
	 SCS Opposite-Spin Energy  =      -1.9376219739496117 [Eh]
	 SCS Correlation Energy    =      -2.1080076654803892 [Eh]
	 SCS Total Energy          =    -514.9939947052301932 [Eh]
	-----------------------------------------------------------

  Dipole Moment: [D]
     X:     0.0055      Y:     3.3295      Z:    -1.8105     Total:     3.7900

*** Psi4 exiting successfully. Buy a developer a beer!
