                               Psi4 1.3.2 release

  ==> Input File <==

--------------------------------------------------------------------------
#psi4
#
memory 32 gb

molecule  {
0 1
  O       -1.9705880     1.6613530    -0.1848000
  O        1.6688240    -1.2224340     0.6437850
  O       -3.2913740    -0.0479250     0.4948630
  N        0.2140730     0.2683100    -0.2698780
  C       -0.9510770    -0.4970410     0.1176100
  C       -1.1939143    -1.6983021    -0.7978121
  C        2.5789920     0.8068070    -0.3378900
  C        1.4682490    -0.1481810     0.0706060
  C       -2.1908320     0.3658730     0.1844680
  C        3.9506640     0.3320720     0.1153760
  H       -0.7861650    -0.9075091     1.1221295
  H        0.0750270     1.1966100    -0.6451490
  H       -1.3515420    -1.3283180    -1.8408860
  H       -0.3238960    -2.3346980    -0.7915570
  H       -2.0788080    -2.2361410    -0.4923840
  H        2.5479870     0.9167430    -1.4288930
  H        2.3554820     1.7990610     0.0733550
  H        4.1782080    -0.6474400    -0.3069900
  H        4.7194550     1.0404130    -0.2050590
  H        3.9903360     0.2413970     1.2016820
  H       -2.8462050     2.0977190    -0.1239210
units angstrom
no_reorient  #important for SAPT in psi4, default
symmetry c1  #important for SAPT in psi4, default
}

set PROPERTIES_ORIGIN ["COM"]
properties('MP2/aug-cc-pvtz', properties = ['dipole'])
--------------------------------------------------------------------------

    Molecular point group: c1
  Charge       = 0
  Multiplicity = 1
  Basis Set: AUG-CC-PVTZ
    Blend: AUG-CC-PVTZ
  Basis Set: (AUG-CC-PVTZ AUX)
    Blend: AUG-CC-PVTZ-JKFIT

    Orbital Energies [Eh]
    ---------------------

    Doubly Occupied:

       1A    -20.636809     2A    -20.564764     3A    -20.524840
       4A    -15.592127     5A    -11.406153     6A    -11.356120
       7A    -11.297090     8A    -11.247388     9A    -11.226997
      10A    -11.219668    11A     -1.478820    12A     -1.380768
      13A     -1.374001    14A     -1.246139    15A     -1.075642
      16A     -1.035980    17A     -0.928525    18A     -0.886030
      19A     -0.816521    20A     -0.792855    21A     -0.731381
      22A     -0.714955    23A     -0.682931    24A     -0.666169
      25A     -0.641589    26A     -0.633981    27A     -0.610807
      28A     -0.603092    29A     -0.580844    30A     -0.551963
      31A     -0.543793    32A     -0.525307    33A     -0.520366
      34A     -0.516931    35A     -0.498304    36A     -0.487555
      37A     -0.468369    38A     -0.428541    39A     -0.400212

  @DF-RHF Final Energy:  -512.88524487963264

   => Energetics <=

    Nuclear Repulsion Energy =            547.9670650228081286
    One-Electron Energy =               -1787.9159625853703801
    Two-Electron Energy =                 727.0636526829296145
    Total Energy =                       -512.8852448796326371
  Basis Set: (AUG-CC-PVTZ AUX)
    Blend: AUG-CC-PVTZ-RI
    Molecular point group: c1

    Geometry (in Angstrom), charge = 0, multiplicity = 1:

       Center              X                  Y                   Z               Mass
    ------------   -----------------  -----------------  -----------------  -----------------
         O           -1.970812777355     1.662853041074    -0.186463415177    15.994914619570
         O            1.668599222645    -1.220933958926     0.642121584823    15.994914619570
         O           -3.291598777355    -0.046424958926     0.493199584823    15.994914619570
         N            0.213848222645     0.269810041074    -0.271541415177    14.003074004430
         C           -0.951301777355    -0.495540958926     0.115946584823    12.000000000000
         C           -1.194139077355    -1.696802058926    -0.799475515177    12.000000000000
         C            2.578767222645     0.808307041074    -0.339553415177    12.000000000000
         C            1.468024222645    -0.146680958926     0.068942584823    12.000000000000
         C           -2.191056777355     0.367373041074     0.182804584823    12.000000000000
         C            3.950439222645     0.333572041074     0.113712584823    12.000000000000
         H           -0.786389777355    -0.906009058926     1.120466084823     1.007825032230
         H            0.074802222645     1.198110041074    -0.646812415177     1.007825032230
         H           -1.351766777355    -1.326817958926    -1.842549415177     1.007825032230
         H           -0.324120777355    -2.333197958926    -0.793220415177     1.007825032230
         H           -2.079032777355    -2.234640958926    -0.494047415177     1.007825032230
         H            2.547762222645     0.918243041074    -1.430556415177     1.007825032230
         H            2.355257222645     1.800561041074     0.071691584823     1.007825032230
         H            4.177983222645    -0.645939958926    -0.308653415177     1.007825032230
         H            4.719230222645     1.041913041074    -0.206722415177     1.007825032230
         H            3.990111222645     0.242897041074     1.200018584823     1.007825032230
         H           -2.846429777355     2.099219041074    -0.125584415177     1.007825032230

  Basis Set: AUG-CC-PVTZ
    Blend: AUG-CC-PVTZ
  Basis Set: (AUG-CC-PVTZ AUX)
    Blend: AUG-CC-PVTZ-JKFIT
	 Reference Energy          =    -512.8852448796326371 [Eh]
	 Singles Energy            =      -0.0000000000000000 [Eh]
	 Same-Spin Energy          =      -0.5113079030608561 [Eh]
	 Opposite-Spin Energy      =      -1.6149271276598578 [Eh]
	 Correlation Energy        =      -2.1262350307207138 [Eh]
	 Total Energy              =    -515.0114799103533869 [Eh]

	 ================> DF-SCS-MP2 Energies <==================
	-----------------------------------------------------------
	 SCS Same-Spin Scale       =       0.3333333333333333 [-]
	 SCS Opposite-Spin Scale   =       1.2000000000000000 [-]
	 SCS Same-Spin Energy      =      -0.1704359676869520 [Eh]
	 SCS Opposite-Spin Energy  =      -1.9379125531918293 [Eh]
	 SCS Correlation Energy    =      -2.1083485208787813 [Eh]
	 SCS Total Energy          =    -514.9935934005113722 [Eh]
	-----------------------------------------------------------

  Dipole Moment: [D]
     X:    -0.0831      Y:     3.3610      Z:    -1.8467     Total:     3.8359

*** Psi4 exiting successfully. Buy a developer a beer!
