                               Psi4 1.3.2 release

  ==> Input File <==

--------------------------------------------------------------------------
#psi4
#
memory 32 gb

molecule  {
0 1
  O       -1.9705880     1.6613530    -0.1848000
  O        1.7320136    -1.2089951     0.6432190
  O       -3.2913740    -0.0479250     0.4948630
  N        0.2432188     0.3274534    -0.2973946
  C       -0.9510770    -0.4970410     0.1176100
  C       -1.1968270    -1.6816620    -0.8184860
  C        2.5789920     0.8068070    -0.3378900
  C        1.4682490    -0.1481810     0.0706060
  C       -2.1908320     0.3658730     0.1844680
  C        3.9506640     0.3320720     0.1153760
  H       -0.7838570    -0.8897150     1.1288390
  H        0.0750270     1.1966100    -0.6451490
  H       -1.3515420    -1.3283180    -1.8408860
  H       -0.3238960    -2.3346980    -0.7915570
  H       -2.0788080    -2.2361410    -0.4923840
  H        2.5479870     0.9167430    -1.4288930
  H        2.3554820     1.7990610     0.0733550
  H        4.1782080    -0.6474400    -0.3069900
  H        4.7194550     1.0404130    -0.2050590
  H        3.9903360     0.2413970     1.2016820
  H       -2.8462050     2.0977190    -0.1239210
units angstrom
no_reorient  #important for SAPT in psi4, default
symmetry c1  #important for SAPT in psi4, default
}

set PROPERTIES_ORIGIN ["COM"]
properties('MP2/aug-cc-pvtz', properties = ['dipole'])
--------------------------------------------------------------------------

    Molecular point group: c1
  Charge       = 0
  Multiplicity = 1
  Basis Set: AUG-CC-PVTZ
    Blend: AUG-CC-PVTZ
  Basis Set: (AUG-CC-PVTZ AUX)
    Blend: AUG-CC-PVTZ-JKFIT

    Orbital Energies [Eh]
    ---------------------

    Doubly Occupied:

       1A    -20.638043     2A    -20.566489     3A    -20.528383
       4A    -15.592707     5A    -11.407573     6A    -11.357190
       7A    -11.304160     8A    -11.240097     9A    -11.231185
      10A    -11.215046    11A     -1.480158    12A     -1.379385
      13A     -1.375555    14A     -1.247076    15A     -1.074858
      16A     -1.035522    17A     -0.929191    18A     -0.883389
      19A     -0.824902    20A     -0.799810    21A     -0.724481
      22A     -0.718285    23A     -0.678274    24A     -0.668787
      25A     -0.639533    26A     -0.634870    27A     -0.614117
      28A     -0.605962    29A     -0.578804    30A     -0.549482
      31A     -0.545722    32A     -0.522998    33A     -0.518724
      34A     -0.515610    35A     -0.497220    36A     -0.488576
      37A     -0.470149    38A     -0.425349    39A     -0.408405

  @DF-RHF Final Energy:  -512.87807177719321

   => Energetics <=

    Nuclear Repulsion Energy =            546.8475132526378957
    One-Electron Energy =               -1785.6190296136444431
    Two-Electron Energy =                 725.8934445838132206
    Total Energy =                       -512.8780717771932132
  Basis Set: (AUG-CC-PVTZ AUX)
    Blend: AUG-CC-PVTZ-RI
    Molecular point group: c1

    Geometry (in Angstrom), charge = 0, multiplicity = 1:

       Center              X                  Y                   Z               Mass
    ------------   -----------------  -----------------  -----------------  -----------------
         O           -1.980368023172     1.654162587012    -0.182081545416    15.994914619570
         O            1.722233576828    -1.216185512988     0.645937454584    15.994914619570
         O           -3.301154023172    -0.055115412988     0.497581454584    15.994914619570
         N            0.233438776828     0.320262987012    -0.294676145416    14.003074004430
         C           -0.960857023172    -0.504231412988     0.120328454584    12.000000000000
         C           -1.206607023172    -1.688852412988    -0.815767545416    12.000000000000
         C            2.569211976828     0.799616587012    -0.335171545416    12.000000000000
         C            1.458468976828    -0.155371412988     0.073324454584    12.000000000000
         C           -2.200612023172     0.358682587012     0.187186454584    12.000000000000
         C            3.940883976828     0.324881587012     0.118094454584    12.000000000000
         H           -0.793637023172    -0.896905412988     1.131557454584     1.007825032230
         H            0.065246976828     1.189419587012    -0.642430545416     1.007825032230
         H           -1.361322023172    -1.335508412988    -1.838167545416     1.007825032230
         H           -0.333676023172    -2.341888412988    -0.788838545416     1.007825032230
         H           -2.088588023172    -2.243331412988    -0.489665545416     1.007825032230
         H            2.538206976828     0.909552587012    -1.426174545416     1.007825032230
         H            2.345701976828     1.791870587012     0.076073454584     1.007825032230
         H            4.168427976828    -0.654630412988    -0.304271545416     1.007825032230
         H            4.709674976828     1.033222587012    -0.202340545416     1.007825032230
         H            3.980555976828     0.234206587012     1.204400454584     1.007825032230
         H           -2.855985023172     2.090528587012    -0.121202545416     1.007825032230

  Basis Set: AUG-CC-PVTZ
    Blend: AUG-CC-PVTZ
  Basis Set: (AUG-CC-PVTZ AUX)
    Blend: AUG-CC-PVTZ-JKFIT
	 Reference Energy          =    -512.8780717771932132 [Eh]
	 Singles Energy            =      -0.0000000000000000 [Eh]
	 Same-Spin Energy          =      -0.5108483232832250 [Eh]
	 Opposite-Spin Energy      =      -1.6148899010885258 [Eh]
	 Correlation Energy        =      -2.1257382243717506 [Eh]
	 Total Energy              =    -515.0038100015649434 [Eh]

	 ================> DF-SCS-MP2 Energies <==================
	-----------------------------------------------------------
	 SCS Same-Spin Scale       =       0.3333333333333333 [-]
	 SCS Opposite-Spin Scale   =       1.2000000000000000 [-]
	 SCS Same-Spin Energy      =      -0.1702827744277417 [Eh]
	 SCS Opposite-Spin Energy  =      -1.9378678813062309 [Eh]
	 SCS Correlation Energy    =      -2.1081506557339726 [Eh]
	 SCS Total Energy          =    -514.9862224329272067 [Eh]
	-----------------------------------------------------------

  Dipole Moment: [D]
     X:    -0.4402      Y:     3.1669      Z:    -1.8118     Total:     3.6750

*** Psi4 exiting successfully. Buy a developer a beer!
