                               Psi4 1.3.2 release

  ==> Input File <==

--------------------------------------------------------------------------
#psi4
#
memory 32 gb

molecule  {
0 1
  O       -1.9705880     1.6613530    -0.1848000
  O        1.6688240    -1.2224340     0.6437850
  O       -3.2913740    -0.0479250     0.4948630
  N        0.2140730     0.2683100    -0.2698780
  C       -0.9510770    -0.4970410     0.1176100
  C       -1.1968270    -1.6816620    -0.8184860
  C        2.5789920     0.8068070    -0.3378900
  C        1.4161443    -0.0992715     0.0355105
  C       -2.1908320     0.3658730     0.1844680
  C        3.9819629     0.3971112     0.0817880
  H       -0.7838570    -0.8897150     1.1288390
  H        0.0750270     1.1966100    -0.6451490
  H       -1.3515420    -1.3283180    -1.8408860
  H       -0.3238960    -2.3346980    -0.7915570
  H       -2.0788080    -2.2361410    -0.4923840
  H        2.5479870     0.9167430    -1.4288930
  H        2.3554820     1.7990610     0.0733550
  H        4.1782080    -0.6474400    -0.3069900
  H        4.7194550     1.0404130    -0.2050590
  H        3.9903360     0.2413970     1.2016820
  H       -2.8462050     2.0977190    -0.1239210
units angstrom
no_reorient  #important for SAPT in psi4, default
symmetry c1  #important for SAPT in psi4, default
}

set PROPERTIES_ORIGIN ["COM"]
properties('MP2/aug-cc-pvtz', properties = ['dipole'])
--------------------------------------------------------------------------

    Molecular point group: c1
  Charge       = 0
  Multiplicity = 1
  Basis Set: AUG-CC-PVTZ
    Blend: AUG-CC-PVTZ
  Basis Set: (AUG-CC-PVTZ AUX)
    Blend: AUG-CC-PVTZ-JKFIT

    Orbital Energies [Eh]
    ---------------------

    Doubly Occupied:

       1A    -20.641695     2A    -20.569496     3A    -20.506988
       4A    -15.607179     5A    -11.411240     6A    -11.354651
       7A    -11.305001     8A    -11.248362     9A    -11.231148
      10A    -11.219013    11A     -1.483849    12A     -1.378864
      13A     -1.354357    14A     -1.251437    15A     -1.082980
      16A     -1.040192    17A     -0.935301    18A     -0.890156
      19A     -0.824224    20A     -0.809597    21A     -0.739105
      22A     -0.719619    23A     -0.681549    24A     -0.668336
      25A     -0.640391    26A     -0.635238    27A     -0.616132
      28A     -0.594064    29A     -0.581298    30A     -0.557709
      31A     -0.547533    32A     -0.532399    33A     -0.515942
      34A     -0.505762    35A     -0.494830    36A     -0.474837
      37A     -0.472234    38A     -0.416632    39A     -0.398972

  @DF-RHF Final Energy:  -512.86434980621391

   => Energetics <=

    Nuclear Repulsion Energy =            547.7739723023634042
    One-Electron Energy =               -1787.4000194288157672
    Two-Electron Energy =                 726.7616973202383406
    Total Energy =                       -512.8643498062139088
  Basis Set: (AUG-CC-PVTZ AUX)
    Blend: AUG-CC-PVTZ-RI
    Molecular point group: c1

    Geometry (in Angstrom), charge = 0, multiplicity = 1:

       Center              X                  Y                   Z               Mass
    ------------   -----------------  -----------------  -----------------  -----------------
         O           -1.968866900439     1.651927581612    -0.179118697431    15.994914619570
         O            1.670545099561    -1.231859418388     0.649466302569    15.994914619570
         O           -3.289652900439    -0.057350418388     0.500544302569    15.994914619570
         N            0.215794099561     0.258884581612    -0.264196697431    14.003074004430
         C           -0.949355900439    -0.506466418388     0.123291302569    12.000000000000
         C           -1.195105900439    -1.691087418388    -0.812804697431    12.000000000000
         C            2.580713099561     0.797381581612    -0.332208697431    12.000000000000
         C            1.417865399561    -0.108696918388     0.041191802569    12.000000000000
         C           -2.189110900439     0.356447581612     0.190149302569    12.000000000000
         C            3.983683999561     0.387685781612     0.087469302569    12.000000000000
         H           -0.782135900439    -0.899140418388     1.134520302569     1.007825032230
         H            0.076748099561     1.187184581612    -0.639467697431     1.007825032230
         H           -1.349820900439    -1.337743418388    -1.835204697431     1.007825032230
         H           -0.322174900439    -2.344123418388    -0.785875697431     1.007825032230
         H           -2.077086900439    -2.245566418388    -0.486702697431     1.007825032230
         H            2.549708099561     0.907317581612    -1.423211697431     1.007825032230
         H            2.357203099561     1.789635581612     0.079036302569     1.007825032230
         H            4.179929099561    -0.656865418388    -0.301308697431     1.007825032230
         H            4.721176099561     1.030987581612    -0.199377697431     1.007825032230
         H            3.992057099561     0.231971581612     1.207363302569     1.007825032230
         H           -2.844483900439     2.088293581612    -0.118239697431     1.007825032230

  Basis Set: AUG-CC-PVTZ
    Blend: AUG-CC-PVTZ
  Basis Set: (AUG-CC-PVTZ AUX)
    Blend: AUG-CC-PVTZ-JKFIT
	 Reference Energy          =    -512.8643498062139088 [Eh]
	 Singles Energy            =      -0.0000000000000000 [Eh]
	 Same-Spin Energy          =      -0.5126543043533699 [Eh]
	 Opposite-Spin Energy      =      -1.6175202346387842 [Eh]
	 Correlation Energy        =      -2.1301745389921543 [Eh]
	 Total Energy              =    -514.9945243452060595 [Eh]

	 ================> DF-SCS-MP2 Energies <==================
	-----------------------------------------------------------
	 SCS Same-Spin Scale       =       0.3333333333333333 [-]
	 SCS Opposite-Spin Scale   =       1.2000000000000000 [-]
	 SCS Same-Spin Energy      =      -0.1708847681177900 [Eh]
	 SCS Opposite-Spin Energy  =      -1.9410242815665411 [Eh]
	 SCS Correlation Energy    =      -2.1119090496843311 [Eh]
	 SCS Total Energy          =    -514.9762588558982088 [Eh]
	-----------------------------------------------------------

  Dipole Moment: [D]
     X:    -0.6695      Y:     3.6738      Z:    -2.1006     Total:     4.2846

*** Psi4 exiting successfully. Buy a developer a beer!
