                               Psi4 1.4a3.dev225

  ==> Input File <==

--------------------------------------------------------------------------
#psi4
#
memory 32 gb

molecule  {
0 1
  O       -2.1439760    -1.5096120     0.4578230
  O        1.6019480     1.2946100    -0.5777250
  O       -3.1849820    -0.0999640    -0.9818910
  N        0.1649120    -0.2715720     0.2333030
  C       -1.0454410     0.5356680    -0.1333293
  C       -1.3212480     1.5963590     0.9125160
  C        2.5597860    -0.6480590     0.5035240
  C        1.4183570     0.2162400    -0.0039080
  C       -2.2159370    -0.3767160    -0.3010400
  C        3.7806550    -0.5458820    -0.4040570
  H       -0.8075500     0.9861290    -1.0847450
  H        0.0342290    -1.1271740     0.7572540
  H       -1.5188550     1.1449870     1.8886910
  H       -0.4592110     2.2615650     0.9886780
  H       -2.1947650     2.1753270     0.6002850
  H        2.8115640    -0.2961200     1.5118980
  H        2.2315720    -1.6889350     0.6045970
  H        4.0689510     0.4992230    -0.5227640
  H        4.6219880    -1.1034150     0.0157220
  H        3.5611410    -0.9492480    -1.3958190
  H       -2.9864200    -1.9858630     0.3018850
units angstrom
no_reorient  #important for SAPT in psi4, default
symmetry c1  #important for SAPT in psi4, default
}

set PROPERTIES_ORIGIN ["COM"]
properties('MP2/aug-cc-pvtz', properties = ['dipole'])
--------------------------------------------------------------------------

    Molecular point group: c1
  Charge       = 0
  Multiplicity = 1
  Basis Set: AUG-CC-PVTZ
    Blend: AUG-CC-PVTZ
  Basis Set: (AUG-CC-PVTZ AUX)
    Blend: AUG-CC-PVTZ-JKFIT

    Orbital Energies [Eh]
    ---------------------

    Doubly Occupied:

       1A    -20.636031     2A    -20.565905     3A    -20.520450
       4A    -15.593530     5A    -11.404704     6A    -11.354726
       7A    -11.298078     8A    -11.246303     9A    -11.234448
      10A    -11.220798    11A     -1.477890    12A     -1.376363
      13A     -1.374134    14A     -1.235299    15A     -1.078236
      16A     -1.039515    17A     -0.930336    18A     -0.884485
      19A     -0.822473    20A     -0.790008    21A     -0.725448
      22A     -0.715123    23A     -0.676812    24A     -0.663500
      25A     -0.643225    26A     -0.628097    27A     -0.611401
      28A     -0.600193    29A     -0.590863    30A     -0.557719
      31A     -0.540210    32A     -0.534127    33A     -0.521735
      34A     -0.513655    35A     -0.497597    36A     -0.488975
      37A     -0.470545    38A     -0.424861    39A     -0.400987

  @DF-RHF Final Energy:  -512.88412938385670

   => Energetics <=

    Nuclear Repulsion Energy =            547.3243333640452875
    One-Electron Energy =               -1786.6393570029342754
    Two-Electron Energy =                 726.4308942550322854
    Total Energy =                       -512.8841293838567026
  Basis Set: (AUG-CC-PVTZ AUX)
    Blend: AUG-CC-PVTZ-RI
    Molecular point group: c1

    Geometry (in Angstrom), charge = 0, multiplicity = 1:

       Center              X                  Y                   Z               Mass
    ------------   -----------------  -----------------  -----------------  -----------------
         O           -2.076741568024    -1.512413643503     0.483860016209    15.994914619570
         O            1.669182431976     1.291808356497    -0.551687983791    15.994914619570
         O           -3.117747568024    -0.102765643503    -0.955853983791    15.994914619570
         N            0.232146431976    -0.274373643503     0.259340016209    14.003074004430
         C           -0.978206568024     0.532866356497    -0.107292283791    12.000000000000
         C           -1.254013568024     1.593557356497     0.938553016209    12.000000000000
         C            2.627020431976    -0.650860643503     0.529561016209    12.000000000000
         C            1.485591431976     0.213438356497     0.022129016209    12.000000000000
         C           -2.148702568024    -0.379517643503    -0.275002983791    12.000000000000
         C            3.847889431976    -0.548683643503    -0.378019983791    12.000000000000
         H           -0.740315568024     0.983327356497    -1.058707983791     1.007825032230
         H            0.101463431976    -1.129975643503     0.783291016209     1.007825032230
         H           -1.451620568024     1.142185356497     1.914728016209     1.007825032230
         H           -0.391976568024     2.258763356497     1.014715016209     1.007825032230
         H           -2.127530568024     2.172525356497     0.626322016209     1.007825032230
         H            2.878798431976    -0.298921643503     1.537935016209     1.007825032230
         H            2.298806431976    -1.691736643503     0.630634016209     1.007825032230
         H            4.136185431976     0.496421356497    -0.496726983791     1.007825032230
         H            4.689222431976    -1.106216643503     0.041759016209     1.007825032230
         H            3.628375431976    -0.952049643503    -1.369781983791     1.007825032230
         H           -2.919185568024    -1.988664643503     0.327922016209     1.007825032230

  Basis Set: AUG-CC-PVTZ
    Blend: AUG-CC-PVTZ
  Basis Set: (AUG-CC-PVTZ AUX)
    Blend: AUG-CC-PVTZ-JKFIT
	 Reference Energy          =    -512.8841293838567026 [Eh]
	 Singles Energy            =      -0.0000000000000000 [Eh]
	 Same-Spin Energy          =      -0.5110458766646673 [Eh]
	 Opposite-Spin Energy      =      -1.6152641322046990 [Eh]
	 Correlation Energy        =      -2.1263100088693663 [Eh]
	 Total Energy              =    -515.0104393927260844 [Eh]

	 ================> DF-SCS-MP2 Energies <==================
	-----------------------------------------------------------
	 SCS Same-Spin Scale       =       0.3333333333333333 [-]
	 SCS Opposite-Spin Scale   =       1.2000000000000000 [-]
	 SCS Same-Spin Energy      =      -0.1703486255548891 [Eh]
	 SCS Opposite-Spin Energy  =      -1.9383169586456388 [Eh]
	 SCS Correlation Energy    =      -2.1086655842005277 [Eh]
	 SCS Total Energy          =    -514.9927949680571828 [Eh]
	-----------------------------------------------------------

  Dipole Moment: [D]
     X:    -0.3674      Y:    -2.9839      Z:     2.6592     Total:     4.0137

*** Psi4 exiting successfully. Buy a developer a beer!
