                               Psi4 1.3.2 release

  ==> Input File <==

--------------------------------------------------------------------------
#psi4
#
memory 32 gb

molecule  {
0 1
  O       -1.9705880     1.6613530    -0.1848000
  O        1.6688240    -1.2224340     0.6437850
  O       -3.2913740    -0.0479250     0.4948630
  N        0.2246549     0.2630871    -0.2475522
  C       -0.9510770    -0.4970410     0.1176100
  C       -1.1968270    -1.6816620    -0.8184860
  C        2.5789920     0.8068070    -0.3378900
  C        1.4682490    -0.1481810     0.0706060
  C       -2.1908320     0.3658730     0.1844680
  C        3.9506640     0.3320720     0.1153760
  H       -0.7666761    -0.8812461     1.1291051
  H        0.0750270     1.1966100    -0.6451490
  H       -1.3515420    -1.3283180    -1.8408860
  H       -0.3238960    -2.3346980    -0.7915570
  H       -2.0788080    -2.2361410    -0.4923840
  H        2.5479870     0.9167430    -1.4288930
  H        2.3554820     1.7990610     0.0733550
  H        4.1782080    -0.6474400    -0.3069900
  H        4.7194550     1.0404130    -0.2050590
  H        3.9903360     0.2413970     1.2016820
  H       -2.8462050     2.0977190    -0.1239210
units angstrom
no_reorient  #important for SAPT in psi4, default
symmetry c1  #important for SAPT in psi4, default
}

set PROPERTIES_ORIGIN ["COM"]
properties('MP2/aug-cc-pvtz', properties = ['dipole'])
--------------------------------------------------------------------------

    Molecular point group: c1
  Charge       = 0
  Multiplicity = 1
  Basis Set: AUG-CC-PVTZ
    Blend: AUG-CC-PVTZ
  Basis Set: (AUG-CC-PVTZ AUX)
    Blend: AUG-CC-PVTZ-JKFIT

    Orbital Energies [Eh]
    ---------------------

    Doubly Occupied:

       1A    -20.637444     2A    -20.565556     3A    -20.521017
       4A    -15.593067     5A    -11.406908     6A    -11.353044
       7A    -11.297828     8A    -11.246665     9A    -11.227760
      10A    -11.219021    11A     -1.479469    12A     -1.380418
      13A     -1.374657    14A     -1.247116    15A     -1.076284
      16A     -1.036166    17A     -0.929410    18A     -0.885628
      19A     -0.816963    20A     -0.793890    21A     -0.731672
      22A     -0.715069    23A     -0.682288    24A     -0.666811
      25A     -0.641645    26A     -0.633578    27A     -0.611638
      28A     -0.601072    29A     -0.581284    30A     -0.547883
      31A     -0.544897    32A     -0.523877    33A     -0.520854
      34A     -0.519194    35A     -0.498052    36A     -0.488394
      37A     -0.469308    38A     -0.426935    39A     -0.399596

  @DF-RHF Final Energy:  -512.88553157412298

   => Energetics <=

    Nuclear Repulsion Energy =            548.2651285932685141
    One-Electron Energy =               -1788.5166093009652286
    Two-Electron Energy =                 727.3659491335738494
    Total Energy =                       -512.8855315741229788
  Basis Set: (AUG-CC-PVTZ AUX)
    Blend: AUG-CC-PVTZ-RI
    Molecular point group: c1

    Geometry (in Angstrom), charge = 0, multiplicity = 1:

       Center              X                  Y                   Z               Mass
    ------------   -----------------  -----------------  -----------------  -----------------
         O           -1.971728642554     1.661798316132    -0.186956772130    15.994914619570
         O            1.667683357446    -1.221988683868     0.641628227870    15.994914619570
         O           -3.292514642554    -0.047479683868     0.492706227870    15.994914619570
         N            0.223514257446     0.263532416132    -0.249708972130    14.003074004430
         C           -0.952217642554    -0.496595683868     0.115453227870    12.000000000000
         C           -1.197967642554    -1.681216683868    -0.820642772130    12.000000000000
         C            2.577851357446     0.807252316132    -0.340046772130    12.000000000000
         C            1.467108357446    -0.147735683868     0.068449227870    12.000000000000
         C           -2.191972642554     0.366318316132     0.182311227870    12.000000000000
         C            3.949523357446     0.332517316132     0.113219227870    12.000000000000
         H           -0.767816742554    -0.880800783868     1.126948327870     1.007825032230
         H            0.073886357446     1.197055316132    -0.647305772130     1.007825032230
         H           -1.352682642554    -1.327872683868    -1.843042772130     1.007825032230
         H           -0.325036642554    -2.334252683868    -0.793713772130     1.007825032230
         H           -2.079948642554    -2.235695683868    -0.494540772130     1.007825032230
         H            2.546846357446     0.917188316132    -1.431049772130     1.007825032230
         H            2.354341357446     1.799506316132     0.071198227870     1.007825032230
         H            4.177067357446    -0.646994683868    -0.309146772130     1.007825032230
         H            4.718314357446     1.040858316132    -0.207215772130     1.007825032230
         H            3.989195357446     0.241842316132     1.199525227870     1.007825032230
         H           -2.847345642554     2.098164316132    -0.126077772130     1.007825032230

  Basis Set: AUG-CC-PVTZ
    Blend: AUG-CC-PVTZ
  Basis Set: (AUG-CC-PVTZ AUX)
    Blend: AUG-CC-PVTZ-JKFIT
	 Reference Energy          =    -512.8855315741229788 [Eh]
	 Singles Energy            =      -0.0000000000000000 [Eh]
	 Same-Spin Energy          =      -0.5114025079530613 [Eh]
	 Opposite-Spin Energy      =      -1.6149362364656952 [Eh]
	 Correlation Energy        =      -2.1263387444187565 [Eh]
	 Total Energy              =    -515.0118703185416962 [Eh]

	 ================> DF-SCS-MP2 Energies <==================
	-----------------------------------------------------------
	 SCS Same-Spin Scale       =       0.3333333333333333 [-]
	 SCS Opposite-Spin Scale   =       1.2000000000000000 [-]
	 SCS Same-Spin Energy      =      -0.1704675026510204 [Eh]
	 SCS Opposite-Spin Energy  =      -1.9379234837588342 [Eh]
	 SCS Correlation Energy    =      -2.1083909864098547 [Eh]
	 SCS Total Energy          =    -514.9939225605328375 [Eh]
	-----------------------------------------------------------

  Dipole Moment: [D]
     X:    -0.1936      Y:     3.3967      Z:    -1.9183     Total:     3.9058

*** Psi4 exiting successfully. Buy a developer a beer!
