                               Psi4 1.3.2 release

  ==> Input File <==

--------------------------------------------------------------------------
#psi4
#
memory 32 gb

molecule  {
0 1
  O       -1.9705880     1.6613530    -0.1848000
  O        1.6688240    -1.2224340     0.6437850
  O       -3.2913740    -0.0479250     0.4948630
  N        0.2140730     0.2683100    -0.2698780
  C       -0.9510770    -0.4970410     0.1176100
  C       -1.1968270    -1.6816620    -0.8184860
  C        2.5789920     0.8068070    -0.3378900
  C        1.4682490    -0.1481810     0.0706060
  C       -2.3718354     0.2978167     0.2355179
  C        3.9506640     0.3320720     0.1153760
  H       -0.7838570    -0.8897150     1.1288390
  H        0.0750270     1.1966100    -0.6451490
  H       -1.3515420    -1.3283180    -1.8408860
  H       -0.3238960    -2.3346980    -0.7915570
  H       -2.0788080    -2.2361410    -0.4923840
  H        2.5479870     0.9167430    -1.4288930
  H        2.3554820     1.7990610     0.0733550
  H        4.1782080    -0.6474400    -0.3069900
  H        4.7194550     1.0404130    -0.2050590
  H        3.9903360     0.2413970     1.2016820
  H       -2.8462050     2.0977190    -0.1239210
units angstrom
no_reorient  #important for SAPT in psi4, default
symmetry c1  #important for SAPT in psi4, default
}

set PROPERTIES_ORIGIN ["COM"]
properties('MP2/aug-cc-pvtz', properties = ['dipole'])
--------------------------------------------------------------------------

    Molecular point group: c1
  Charge       = 0
  Multiplicity = 1
  Basis Set: AUG-CC-PVTZ
    Blend: AUG-CC-PVTZ
  Basis Set: (AUG-CC-PVTZ AUX)
    Blend: AUG-CC-PVTZ-JKFIT

    Orbital Energies [Eh]
    ---------------------

    Doubly Occupied:

       1A    -20.602309     2A    -20.596567     3A    -20.517733
       4A    -15.583834     5A    -11.386436     6A    -11.349513
       7A    -11.290226     8A    -11.242135     9A    -11.221451
      10A    -11.215612    11A     -1.593228    12A     -1.376458
      13A     -1.370578    14A     -1.232991    15A     -1.063862
      16A     -1.024658    17A     -0.905684    18A     -0.867894
      19A     -0.791390    20A     -0.787266    21A     -0.751307
      22A     -0.740596    23A     -0.703348    24A     -0.675245
      25A     -0.653853    26A     -0.637872    27A     -0.617080
      28A     -0.598372    29A     -0.576717    30A     -0.555580
      31A     -0.540865    32A     -0.526628    33A     -0.519179
      34A     -0.515854    35A     -0.512967    36A     -0.486408
      37A     -0.438540    38A     -0.421139    39A     -0.390331

  @DF-RHF Final Energy:  -512.80335737614041

   => Energetics <=

    Nuclear Repulsion Energy =            548.0462422778124392
    One-Electron Energy =               -1787.9357894048775961
    Two-Electron Energy =                 727.0861897509248593
    Total Energy =                       -512.8033573761404114
  Basis Set: (AUG-CC-PVTZ AUX)
    Blend: AUG-CC-PVTZ-RI
    Molecular point group: c1

    Geometry (in Angstrom), charge = 0, multiplicity = 1:

       Center              X                  Y                   Z               Mass
    ------------   -----------------  -----------------  -----------------  -----------------
         O           -1.955615920836     1.666982392312    -0.189022621343    15.994914619570
         O            1.683796079164    -1.216804607688     0.639562378657    15.994914619570
         O           -3.276401920836    -0.042295607688     0.490640378657    15.994914619570
         N            0.229045079164     0.273939392312    -0.274100621343    14.003074004430
         C           -0.936104920836    -0.491411607688     0.113387378657    12.000000000000
         C           -1.181854920836    -1.676032607688    -0.822708621343    12.000000000000
         C            2.593964079164     0.812436392312    -0.342112621343    12.000000000000
         C            1.483221079164    -0.142551607688     0.066383378657    12.000000000000
         C           -2.356863320836     0.303446092312     0.231295278657    12.000000000000
         C            3.965636079164     0.337701392312     0.111153378657    12.000000000000
         H           -0.768884920836    -0.884085607688     1.124616378657     1.007825032230
         H            0.089999079164     1.202239392312    -0.649371621343     1.007825032230
         H           -1.336569920836    -1.322688607688    -1.845108621343     1.007825032230
         H           -0.308923920836    -2.329068607688    -0.795779621343     1.007825032230
         H           -2.063835920836    -2.230511607688    -0.496606621343     1.007825032230
         H            2.562959079164     0.922372392312    -1.433115621343     1.007825032230
         H            2.370454079164     1.804690392312     0.069132378657     1.007825032230
         H            4.193180079164    -0.641810607688    -0.311212621343     1.007825032230
         H            4.734427079164     1.046042392312    -0.209281621343     1.007825032230
         H            4.005308079164     0.247026392312     1.197459378657     1.007825032230
         H           -2.831232920836     2.103348392312    -0.128143621343     1.007825032230

  Basis Set: AUG-CC-PVTZ
    Blend: AUG-CC-PVTZ
  Basis Set: (AUG-CC-PVTZ AUX)
    Blend: AUG-CC-PVTZ-JKFIT
	 Reference Energy          =    -512.8033573761404114 [Eh]
	 Singles Energy            =      -0.0000000000000000 [Eh]
	 Same-Spin Energy          =      -0.5084379437328517 [Eh]
	 Opposite-Spin Energy      =      -1.6097757815868419 [Eh]
	 Correlation Energy        =      -2.1182137253196935 [Eh]
	 Total Energy              =    -514.9215711014601311 [Eh]

	 ================> DF-SCS-MP2 Energies <==================
	-----------------------------------------------------------
	 SCS Same-Spin Scale       =       0.3333333333333333 [-]
	 SCS Opposite-Spin Scale   =       1.2000000000000000 [-]
	 SCS Same-Spin Energy      =      -0.1694793145776172 [Eh]
	 SCS Opposite-Spin Energy  =      -1.9317309379042102 [Eh]
	 SCS Correlation Energy    =      -2.1012102524818275 [Eh]
	 SCS Total Energy          =    -514.9045676286222033 [Eh]
	-----------------------------------------------------------

  Dipole Moment: [D]
     X:    -1.4547      Y:     2.6055      Z:    -1.3690     Total:     3.2831

*** Psi4 exiting successfully. Buy a developer a beer!
