                               Psi4 1.3.2 release

  ==> Input File <==

--------------------------------------------------------------------------
#psi4
#
memory 32 gb

molecule  {
0 1
  O       -1.9705880     1.6613530    -0.1848000
  O        1.6688240    -1.2224340     0.6437850
  O       -3.2913740    -0.0479250     0.4948630
  N        0.2159550     0.2604354    -0.2795669
  C       -0.9510770    -0.4970410     0.1176100
  C       -1.1860889    -1.6781828    -0.8256127
  C        2.5789920     0.8068070    -0.3378900
  C        1.4682490    -0.1481810     0.0706060
  C       -2.1908320     0.3658730     0.1844680
  C        3.9506640     0.3320720     0.1153760
  H       -0.7838570    -0.8897150     1.1288390
  H        0.0750270     1.1966100    -0.6451490
  H       -1.3515420    -1.3283180    -1.8408860
  H       -0.3238960    -2.3346980    -0.7915570
  H       -2.0788080    -2.2361410    -0.4923840
  H        2.5479870     0.9167430    -1.4288930
  H        2.3554820     1.7990610     0.0733550
  H        4.1782080    -0.6474400    -0.3069900
  H        4.7194550     1.0404130    -0.2050590
  H        3.9903360     0.2413970     1.2016820
  H       -2.8462050     2.0977190    -0.1239210
units angstrom
no_reorient  #important for SAPT in psi4, default
symmetry c1  #important for SAPT in psi4, default
}

set PROPERTIES_ORIGIN ["COM"]
properties('MP2/aug-cc-pvtz', properties = ['dipole'])
--------------------------------------------------------------------------

    Molecular point group: c1
  Charge       = 0
  Multiplicity = 1
  Basis Set: AUG-CC-PVTZ
    Blend: AUG-CC-PVTZ
  Basis Set: (AUG-CC-PVTZ AUX)
    Blend: AUG-CC-PVTZ-JKFIT

    Orbital Energies [Eh]
    ---------------------

    Doubly Occupied:

       1A    -20.636963     2A    -20.564985     3A    -20.524260
       4A    -15.591661     5A    -11.406215     6A    -11.355529
       7A    -11.297198     8A    -11.247208     9A    -11.226589
      10A    -11.219518    11A     -1.478976    12A     -1.380552
      13A     -1.374148    14A     -1.246036    15A     -1.075506
      16A     -1.035551    17A     -0.928223    18A     -0.886045
      19A     -0.816682    20A     -0.792336    21A     -0.731233
      22A     -0.714943    23A     -0.682970    24A     -0.666276
      25A     -0.641521    26A     -0.634100    27A     -0.611439
      28A     -0.602055    29A     -0.580165    30A     -0.547402
      31A     -0.543955    32A     -0.523337    33A     -0.521898
      34A     -0.519914    35A     -0.497795    36A     -0.488718
      37A     -0.468934    38A     -0.428084    39A     -0.400033

  @DF-RHF Final Energy:  -512.88559170610415

   => Energetics <=

    Nuclear Repulsion Energy =            548.0803343366882245
    One-Electron Energy =               -1788.1539491997205005
    Two-Electron Energy =                 727.1880231569280113
    Total Energy =                       -512.8855917061041509
  Basis Set: (AUG-CC-PVTZ AUX)
    Blend: AUG-CC-PVTZ-RI
    Molecular point group: c1

    Geometry (in Angstrom), charge = 0, multiplicity = 1:

       Center              X                  Y                   Z               Mass
    ------------   -----------------  -----------------  -----------------  -----------------
         O           -1.971657758093     1.661825314241    -0.183275249675    15.994914619570
         O            1.667754241907    -1.221961685759     0.645309750325    15.994914619570
         O           -3.292443758093    -0.047452685759     0.496387750325    15.994914619570
         N            0.214885241907     0.260907714241    -0.278042149675    14.003074004430
         C           -0.952146758093    -0.496568685759     0.119134750325    12.000000000000
         C           -1.187158658093    -1.677710485759    -0.824087949675    12.000000000000
         C            2.577922241907     0.807279314241    -0.336365249675    12.000000000000
         C            1.467179241907    -0.147708685759     0.072130750325    12.000000000000
         C           -2.191901758093     0.366345314241     0.185992750325    12.000000000000
         C            3.949594241907     0.332544314241     0.116900750325    12.000000000000
         H           -0.784926758093    -0.889242685759     1.130363750325     1.007825032230
         H            0.073957241907     1.197082314241    -0.643624249675     1.007825032230
         H           -1.352611758093    -1.327845685759    -1.839361249675     1.007825032230
         H           -0.324965758093    -2.334225685759    -0.790032249675     1.007825032230
         H           -2.079877758093    -2.235668685759    -0.490859249675     1.007825032230
         H            2.546917241907     0.917215314241    -1.427368249675     1.007825032230
         H            2.354412241907     1.799533314241     0.074879750325     1.007825032230
         H            4.177138241907    -0.646967685759    -0.305465249675     1.007825032230
         H            4.718385241907     1.040885314241    -0.203534249675     1.007825032230
         H            3.989266241907     0.241869314241     1.203206750325     1.007825032230
         H           -2.847274758093     2.098191314241    -0.122396249675     1.007825032230

  Basis Set: AUG-CC-PVTZ
    Blend: AUG-CC-PVTZ
  Basis Set: (AUG-CC-PVTZ AUX)
    Blend: AUG-CC-PVTZ-JKFIT
	 Reference Energy          =    -512.8855917061041509 [Eh]
	 Singles Energy            =      -0.0000000000000000 [Eh]
	 Same-Spin Energy          =      -0.5113642146336269 [Eh]
	 Opposite-Spin Energy      =      -1.6150370357943706 [Eh]
	 Correlation Energy        =      -2.1264012504279974 [Eh]
	 Total Energy              =    -515.0119929565321399 [Eh]

	 ================> DF-SCS-MP2 Energies <==================
	-----------------------------------------------------------
	 SCS Same-Spin Scale       =       0.3333333333333333 [-]
	 SCS Opposite-Spin Scale   =       1.2000000000000000 [-]
	 SCS Same-Spin Energy      =      -0.1704547382112090 [Eh]
	 SCS Opposite-Spin Energy  =      -1.9380444429532446 [Eh]
	 SCS Correlation Energy    =      -2.1084991811644538 [Eh]
	 SCS Total Energy          =    -514.9940908872686123 [Eh]
	-----------------------------------------------------------

  Dipole Moment: [D]
     X:    -0.1075      Y:     3.3894      Z:    -1.8461     Total:     3.8611

*** Psi4 exiting successfully. Buy a developer a beer!
