                               Psi4 1.3.2 release

  ==> Input File <==

--------------------------------------------------------------------------
#psi4
#
memory 32 gb

molecule  {
0 1
  O       -1.9705880     1.6613530    -0.1848000
  O        1.6688240    -1.2224340     0.6437850
  O       -3.2913740    -0.0479250     0.4948630
  N        0.2140730     0.2683100    -0.2698780
  C       -0.9510770    -0.4970410     0.1176100
  C       -1.1968270    -1.6816620    -0.8184860
  C        2.5789920     0.8068070    -0.3378900
  C        1.4682490    -0.1481810     0.0706060
  C       -2.1854427     0.3759933     0.1329532
  C        3.9506640     0.3320720     0.1153760
  H       -0.7529139    -0.9081805     1.1158260
  H        0.0750270     1.1966100    -0.6451490
  H       -1.3515420    -1.3283180    -1.8408860
  H       -0.3238960    -2.3346980    -0.7915570
  H       -2.0788080    -2.2361410    -0.4923840
  H        2.5479870     0.9167430    -1.4288930
  H        2.3554820     1.7990610     0.0733550
  H        4.1782080    -0.6474400    -0.3069900
  H        4.7194550     1.0404130    -0.2050590
  H        3.9903360     0.2413970     1.2016820
  H       -2.8462050     2.0977190    -0.1239210
units angstrom
no_reorient  #important for SAPT in psi4, default
symmetry c1  #important for SAPT in psi4, default
}

set PROPERTIES_ORIGIN ["COM"]
properties('MP2/aug-cc-pvtz', properties = ['dipole'])
--------------------------------------------------------------------------

    Molecular point group: c1
  Charge       = 0
  Multiplicity = 1
  Basis Set: AUG-CC-PVTZ
    Blend: AUG-CC-PVTZ
  Basis Set: (AUG-CC-PVTZ AUX)
    Blend: AUG-CC-PVTZ-JKFIT

    Orbital Energies [Eh]
    ---------------------

    Doubly Occupied:

       1A    -20.643973     2A    -20.560087     3A    -20.525170
       4A    -15.591649     5A    -11.407682     6A    -11.356226
       7A    -11.297139     8A    -11.247559     9A    -11.225950
      10A    -11.219814    11A     -1.486208    12A     -1.381078
      13A     -1.363580    14A     -1.246925    15A     -1.075789
      16A     -1.035802    17A     -0.929674    18A     -0.887189
      19A     -0.822176    20A     -0.794396    21A     -0.732205
      22A     -0.716676    23A     -0.683110    24A     -0.668063
      25A     -0.642517    26A     -0.634873    27A     -0.608866
      28A     -0.602947    29A     -0.581329    30A     -0.546311
      31A     -0.543180    32A     -0.524479    33A     -0.520899
      34A     -0.519565    35A     -0.494927    36A     -0.484422
      37A     -0.467990    38A     -0.428453    39A     -0.399359

  @DF-RHF Final Energy:  -512.88258944732149

   => Energetics <=

    Nuclear Repulsion Energy =            548.1460340935068416
    One-Electron Energy =               -1788.2607753288418735
    Two-Electron Energy =                 727.2321517880135389
    Total Energy =                       -512.8825894473214930
  Basis Set: (AUG-CC-PVTZ AUX)
    Blend: AUG-CC-PVTZ-RI
    Molecular point group: c1

    Geometry (in Angstrom), charge = 0, multiplicity = 1:

       Center              X                  Y                   Z               Mass
    ------------   -----------------  -----------------  -----------------  -----------------
         O           -1.971248627593     1.660644179513    -0.180448430635    15.994914619570
         O            1.668163372407    -1.223142820487     0.648136569365    15.994914619570
         O           -3.292034627593    -0.048633820487     0.499214569365    15.994914619570
         N            0.213412372407     0.267601179513    -0.265526430635    14.003074004430
         C           -0.951737627593    -0.497749820487     0.121961569365    12.000000000000
         C           -1.197487627593    -1.682370820487    -0.814134430635    12.000000000000
         C            2.578331372407     0.806098179513    -0.333538430635    12.000000000000
         C            1.467588372407    -0.148889820487     0.074957569365    12.000000000000
         C           -2.186103327593     0.375284479513     0.137304769365    12.000000000000
         C            3.950003372407     0.331363179513     0.119727569365    12.000000000000
         H           -0.753574527593    -0.908889320487     1.120177569365     1.007825032230
         H            0.074366372407     1.195901179513    -0.640797430635     1.007825032230
         H           -1.352202627593    -1.329026820487    -1.836534430635     1.007825032230
         H           -0.324556627593    -2.335406820487    -0.787205430635     1.007825032230
         H           -2.079468627593    -2.236849820487    -0.488032430635     1.007825032230
         H            2.547326372407     0.916034179513    -1.424541430635     1.007825032230
         H            2.354821372407     1.798352179513     0.077706569365     1.007825032230
         H            4.177547372407    -0.648148820487    -0.302638430635     1.007825032230
         H            4.718794372407     1.039704179513    -0.200707430635     1.007825032230
         H            3.989675372407     0.240688179513     1.206033569365     1.007825032230
         H           -2.846865627593     2.097010179513    -0.119569430635     1.007825032230

  Basis Set: AUG-CC-PVTZ
    Blend: AUG-CC-PVTZ
  Basis Set: (AUG-CC-PVTZ AUX)
    Blend: AUG-CC-PVTZ-JKFIT
	 Reference Energy          =    -512.8825894473214930 [Eh]
	 Singles Energy            =      -0.0000000000000000 [Eh]
	 Same-Spin Energy          =      -0.5117444168095666 [Eh]
	 Opposite-Spin Energy      =      -1.6156389736969943 [Eh]
	 Correlation Energy        =      -2.1273833905065609 [Eh]
	 Total Energy              =    -515.0099728378280588 [Eh]

	 ================> DF-SCS-MP2 Energies <==================
	-----------------------------------------------------------
	 SCS Same-Spin Scale       =       0.3333333333333333 [-]
	 SCS Opposite-Spin Scale   =       1.2000000000000000 [-]
	 SCS Same-Spin Energy      =      -0.1705814722698555 [Eh]
	 SCS Opposite-Spin Energy  =      -1.9387667684363930 [Eh]
	 SCS Correlation Energy    =      -2.1093482407062485 [Eh]
	 SCS Total Energy          =    -514.9919376880277468 [Eh]
	-----------------------------------------------------------

  Dipole Moment: [D]
     X:    -0.0008      Y:     3.5266      Z:    -1.9631     Total:     4.0362

*** Psi4 exiting successfully. Buy a developer a beer!
