                               Psi4 1.3.2 release

  ==> Input File <==

--------------------------------------------------------------------------
#psi4
#
memory 32 gb

molecule  {
0 1
  O       -1.9705880     1.6613530    -0.1848000
  O        1.6688240    -1.2224340     0.6437850
  O       -3.3139630     0.0110592     0.4868759
  N        0.2140730     0.2683100    -0.2698780
  C       -0.9101559    -0.4329210     0.0956990
  C       -1.1968270    -1.6816620    -0.8184860
  C        2.5789920     0.8068070    -0.3378900
  C        1.4682490    -0.1481810     0.0706060
  C       -2.1908320     0.3658730     0.1844680
  C        3.9506640     0.3320720     0.1153760
  H       -0.7838570    -0.8897150     1.1288390
  H        0.0750270     1.1966100    -0.6451490
  H       -1.3515420    -1.3283180    -1.8408860
  H       -0.3238960    -2.3346980    -0.7915570
  H       -2.0788080    -2.2361410    -0.4923840
  H        2.5479870     0.9167430    -1.4288930
  H        2.3554820     1.7990610     0.0733550
  H        4.1782080    -0.6474400    -0.3069900
  H        4.7194550     1.0404130    -0.2050590
  H        3.9903360     0.2413970     1.2016820
  H       -2.8462050     2.0977190    -0.1239210
units angstrom
no_reorient  #important for SAPT in psi4, default
symmetry c1  #important for SAPT in psi4, default
}

set PROPERTIES_ORIGIN ["COM"]
properties('MP2/aug-cc-pvtz', properties = ['dipole'])
--------------------------------------------------------------------------

    Molecular point group: c1
  Charge       = 0
  Multiplicity = 1
  Basis Set: AUG-CC-PVTZ
    Blend: AUG-CC-PVTZ
  Basis Set: (AUG-CC-PVTZ AUX)
    Blend: AUG-CC-PVTZ-JKFIT

    Orbital Energies [Eh]
    ---------------------

    Doubly Occupied:

       1A    -20.628923     2A    -20.563007     3A    -20.529485
       4A    -15.595839     5A    -11.405114     6A    -11.360782
       7A    -11.299090     8A    -11.250350     9A    -11.228399
      10A    -11.221766    11A     -1.477548    12A     -1.386933
      13A     -1.367644    14A     -1.265748    15A     -1.076086
      16A     -1.033053    17A     -0.929190    18A     -0.890650
      19A     -0.815646    20A     -0.801180    21A     -0.737507
      22A     -0.711957    23A     -0.688768    24A     -0.664636
      25A     -0.643397    26A     -0.633238    27A     -0.608283
      28A     -0.603037    29A     -0.584857    30A     -0.547550
      31A     -0.540288    32A     -0.531067    33A     -0.522751
      34A     -0.516036    35A     -0.497885    36A     -0.486690
      37A     -0.466422    38A     -0.433197    39A     -0.397015

  @DF-RHF Final Energy:  -512.87740202833004

   => Energetics <=

    Nuclear Repulsion Energy =            548.6097326674317856
    One-Electron Energy =               -1789.0922436645046218
    Two-Electron Energy =                 727.6051089687429112
    Total Energy =                       -512.8774020283300388
  Basis Set: (AUG-CC-PVTZ AUX)
    Blend: AUG-CC-PVTZ-RI
    Molecular point group: c1

    Geometry (in Angstrom), charge = 0, multiplicity = 1:

       Center              X                  Y                   Z               Mass
    ------------   -----------------  -----------------  -----------------  -----------------
         O           -1.971482213679     1.649546017050    -0.182106947128    15.994914619570
         O            1.667929786321    -1.234240982950     0.646478052872    15.994914619570
         O           -3.314857213679    -0.000747782950     0.489568952872    15.994914619570
         N            0.213178786321     0.256503017050    -0.267184947128    14.003074004430
         C           -0.911050113679    -0.444727982950     0.098392052872    12.000000000000
         C           -1.197721213679    -1.693468982950    -0.815792947128    12.000000000000
         C            2.578097786321     0.795000017050    -0.335196947128    12.000000000000
         C            1.467354786321    -0.159987982950     0.073299052872    12.000000000000
         C           -2.191726213679     0.354066017050     0.187161052872    12.000000000000
         C            3.949769786321     0.320265017050     0.118069052872    12.000000000000
         H           -0.784751213679    -0.901521982950     1.131532052872     1.007825032230
         H            0.074132786321     1.184803017050    -0.642455947128     1.007825032230
         H           -1.352436213679    -1.340124982950    -1.838192947128     1.007825032230
         H           -0.324790213679    -2.346504982950    -0.788863947128     1.007825032230
         H           -2.079702213679    -2.247947982950    -0.489690947128     1.007825032230
         H            2.547092786321     0.904936017050    -1.426199947128     1.007825032230
         H            2.354587786321     1.787254017050     0.076048052872     1.007825032230
         H            4.177313786321    -0.659246982950    -0.304296947128     1.007825032230
         H            4.718560786321     1.028606017050    -0.202365947128     1.007825032230
         H            3.989441786321     0.229590017050     1.204375052872     1.007825032230
         H           -2.847099213679     2.085912017050    -0.121227947128     1.007825032230

  Basis Set: AUG-CC-PVTZ
    Blend: AUG-CC-PVTZ
  Basis Set: (AUG-CC-PVTZ AUX)
    Blend: AUG-CC-PVTZ-JKFIT
	 Reference Energy          =    -512.8774020283300388 [Eh]
	 Singles Energy            =      -0.0000000000000000 [Eh]
	 Same-Spin Energy          =      -0.5120998990975146 [Eh]
	 Opposite-Spin Energy      =      -1.6156063101568519 [Eh]
	 Correlation Energy        =      -2.1277062092543666 [Eh]
	 Total Energy              =    -515.0051082375844089 [Eh]

	 ================> DF-SCS-MP2 Energies <==================
	-----------------------------------------------------------
	 SCS Same-Spin Scale       =       0.3333333333333333 [-]
	 SCS Opposite-Spin Scale   =       1.2000000000000000 [-]
	 SCS Same-Spin Energy      =      -0.1706999663658382 [Eh]
	 SCS Opposite-Spin Energy  =      -1.9387275721882222 [Eh]
	 SCS Correlation Energy    =      -2.1094275385540606 [Eh]
	 SCS Total Energy          =    -514.9868295668841256 [Eh]
	-----------------------------------------------------------

  Dipole Moment: [D]
     X:     0.2747      Y:     3.2962      Z:    -1.8569     Total:     3.7932

*** Psi4 exiting successfully. Buy a developer a beer!
