                               Psi4 1.3.2 release

  ==> Input File <==

--------------------------------------------------------------------------
#psi4
#
memory 32 gb

molecule  {
0 1
  O       -1.9705880     1.6613530    -0.1848000
  O        1.6688240    -1.2224340     0.6437850
  O       -3.2913740    -0.0479250     0.4948630
  N        0.2140730     0.2683100    -0.2698780
  C       -0.9510770    -0.4970410     0.1176100
  C       -1.1968270    -1.6816620    -0.8184860
  C        2.5789920     0.8068070    -0.3378900
  C        1.5046860    -0.1793411     0.0933868
  C       -2.1908320     0.3658730     0.1844680
  C        3.9277037     0.2894246     0.1370834
  H       -0.7838570    -0.8897150     1.1288390
  H        0.0750270     1.1966100    -0.6451490
  H       -1.3515420    -1.3283180    -1.8408860
  H       -0.3238960    -2.3346980    -0.7915570
  H       -2.0788080    -2.2361410    -0.4923840
  H        2.5479870     0.9167430    -1.4288930
  H        2.3554820     1.7990610     0.0733550
  H        4.1782080    -0.6474400    -0.3069900
  H        4.7194550     1.0404130    -0.2050590
  H        3.9903360     0.2413970     1.2016820
  H       -2.8462050     2.0977190    -0.1239210
units angstrom
no_reorient  #important for SAPT in psi4, default
symmetry c1  #important for SAPT in psi4, default
}

set PROPERTIES_ORIGIN ["COM"]
properties('MP2/aug-cc-pvtz', properties = ['dipole'])
--------------------------------------------------------------------------

    Molecular point group: c1
  Charge       = 0
  Multiplicity = 1
  Basis Set: AUG-CC-PVTZ
    Blend: AUG-CC-PVTZ
  Basis Set: (AUG-CC-PVTZ AUX)
    Blend: AUG-CC-PVTZ-JKFIT

    Orbital Energies [Eh]
    ---------------------

    Doubly Occupied:

       1A    -20.633208     2A    -20.561328     3A    -20.536215
       4A    -15.580601     5A    -11.402070     6A    -11.356306
       7A    -11.292006     8A    -11.247880     9A    -11.224038
      10A    -11.221405    11A     -1.475214    12A     -1.410339
      13A     -1.370643    14A     -1.233945    15A     -1.073342
      16A     -1.031477    17A     -0.923787    18A     -0.884425
      19A     -0.812335    20A     -0.782854    21A     -0.727995
      22A     -0.711657    23A     -0.684862    24A     -0.663946
      25A     -0.646235    26A     -0.637003    27A     -0.610386
      28A     -0.606636    29A     -0.581062    30A     -0.546547
      31A     -0.543774    32A     -0.528045    33A     -0.523667
      34A     -0.512498    35A     -0.505109    36A     -0.491777
      37A     -0.466916    38A     -0.429708    39A     -0.396005

  @DF-RHF Final Energy:  -512.88123660612905

   => Energetics <=

    Nuclear Repulsion Energy =            548.3036428785715088
    One-Electron Energy =               -1788.6352740231043299
    Two-Electron Energy =                 727.4503945384037706
    Total Energy =                       -512.8812366061290504
  Basis Set: (AUG-CC-PVTZ AUX)
    Blend: AUG-CC-PVTZ-RI
    Molecular point group: c1

    Geometry (in Angstrom), charge = 0, multiplicity = 1:

       Center              X                  Y                   Z               Mass
    ------------   -----------------  -----------------  -----------------  -----------------
         O           -1.971702627743     1.667458111261    -0.188479860697    15.994914619570
         O            1.667709372257    -1.216328888739     0.640105139303    15.994914619570
         O           -3.292488627743    -0.041819888739     0.491183139303    15.994914619570
         N            0.212958372257     0.274415111261    -0.273557860697    14.003074004430
         C           -0.952191627743    -0.490935888739     0.113930139303    12.000000000000
         C           -1.197941627743    -1.675556888739    -0.822165860697    12.000000000000
         C            2.577877372257     0.812912111261    -0.341569860697    12.000000000000
         C            1.503571372257    -0.173235988739     0.089706939303    12.000000000000
         C           -2.191946627743     0.371978111261     0.180788139303    12.000000000000
         C            3.926589072257     0.295529711261     0.133403539303    12.000000000000
         H           -0.784971627743    -0.883609888739     1.125159139303     1.007825032230
         H            0.073912372257     1.202715111261    -0.648828860697     1.007825032230
         H           -1.352656627743    -1.322212888739    -1.844565860697     1.007825032230
         H           -0.325010627743    -2.328592888739    -0.795236860697     1.007825032230
         H           -2.079922627743    -2.230035888739    -0.496063860697     1.007825032230
         H            2.546872372257     0.922848111261    -1.432572860697     1.007825032230
         H            2.354367372257     1.805166111261     0.069675139303     1.007825032230
         H            4.177093372257    -0.641334888739    -0.310669860697     1.007825032230
         H            4.718340372257     1.046518111261    -0.208738860697     1.007825032230
         H            3.989221372257     0.247502111261     1.198002139303     1.007825032230
         H           -2.847319627743     2.103824111261    -0.127600860697     1.007825032230

  Basis Set: AUG-CC-PVTZ
    Blend: AUG-CC-PVTZ
  Basis Set: (AUG-CC-PVTZ AUX)
    Blend: AUG-CC-PVTZ-JKFIT
	 Reference Energy          =    -512.8812366061290504 [Eh]
	 Singles Energy            =      -0.0000000000000000 [Eh]
	 Same-Spin Energy          =      -0.5106698500368327 [Eh]
	 Opposite-Spin Energy      =      -1.6137974800203596 [Eh]
	 Correlation Energy        =      -2.1244673300571923 [Eh]
	 Total Energy              =    -515.0057039361862508 [Eh]

	 ================> DF-SCS-MP2 Energies <==================
	-----------------------------------------------------------
	 SCS Same-Spin Scale       =       0.3333333333333333 [-]
	 SCS Opposite-Spin Scale   =       1.2000000000000000 [-]
	 SCS Same-Spin Energy      =      -0.1702232833456109 [Eh]
	 SCS Opposite-Spin Energy  =      -1.9365569760244314 [Eh]
	 SCS Correlation Energy    =      -2.1067802593700424 [Eh]
	 SCS Total Energy          =    -514.9880168654990484 [Eh]
	-----------------------------------------------------------

  Dipole Moment: [D]
     X:     0.3112      Y:     3.1586      Z:    -1.6946     Total:     3.5979

*** Psi4 exiting successfully. Buy a developer a beer!
