                               Psi4 1.4a3.dev225

  ==> Input File <==

--------------------------------------------------------------------------
#psi4
#
memory 32 gb

molecule  {
0 1
  O       -2.1439760    -1.5096120     0.4578230
  O        1.6019480     1.2946100    -0.5777250
  O       -3.1849820    -0.0999640    -0.9818910
  N        0.1649120    -0.2715720     0.2333030
  C       -1.0051050     0.5087660    -0.1211110
  C       -1.3315568     1.6318234     0.9462207
  C        2.5597860    -0.6480590     0.5035240
  C        1.4183570     0.2162400    -0.0039080
  C       -2.2159370    -0.3767160    -0.3010400
  C        3.7806550    -0.5458820    -0.4040570
  H       -0.8075500     0.9861290    -1.0847450
  H        0.0342290    -1.1271740     0.7572540
  H       -1.5188550     1.1449870     1.8886910
  H       -0.4592110     2.2615650     0.9886780
  H       -2.1947650     2.1753270     0.6002850
  H        2.8115640    -0.2961200     1.5118980
  H        2.2315720    -1.6889350     0.6045970
  H        4.0689510     0.4992230    -0.5227640
  H        4.6219880    -1.1034150     0.0157220
  H        3.5611410    -0.9492480    -1.3958190
  H       -2.9864200    -1.9858630     0.3018850
units angstrom
no_reorient  #important for SAPT in psi4, default
symmetry c1  #important for SAPT in psi4, default
}

set PROPERTIES_ORIGIN ["COM"]
properties('MP2/aug-cc-pvtz', properties = ['dipole'])
--------------------------------------------------------------------------

    Molecular point group: c1
  Charge       = 0
  Multiplicity = 1
  Basis Set: AUG-CC-PVTZ
    Blend: AUG-CC-PVTZ
  Basis Set: (AUG-CC-PVTZ AUX)
    Blend: AUG-CC-PVTZ-JKFIT

    Orbital Energies [Eh]
    ---------------------

    Doubly Occupied:

       1A    -20.634005     2A    -20.564541     3A    -20.522855
       4A    -15.596125     5A    -11.403504     6A    -11.356889
       7A    -11.297730     8A    -11.247784     9A    -11.232880
      10A    -11.221867    11A     -1.475975    12A     -1.379514
      13A     -1.372161    14A     -1.244794    15A     -1.073015
      16A     -1.034235    17A     -0.930857    18A     -0.885784
      19A     -0.821941    20A     -0.794390    21A     -0.726874
      22A     -0.713988    23A     -0.679995    24A     -0.659839
      25A     -0.641553    26A     -0.628662    27A     -0.609172
      28A     -0.601627    29A     -0.591157    30A     -0.556222
      31A     -0.545943    32A     -0.533880    33A     -0.524602
      34A     -0.514614    35A     -0.498346    36A     -0.486412
      37A     -0.468894    38A     -0.427659    39A     -0.397612

  @DF-RHF Final Energy:  -512.88471073168216

   => Energetics <=

    Nuclear Repulsion Energy =            546.7949560396937159
    One-Electron Energy =               -1785.5635373757011166
    Two-Electron Energy =                 725.8838706043252387
    Total Energy =                       -512.8847107316821621
  Basis Set: (AUG-CC-PVTZ AUX)
    Blend: AUG-CC-PVTZ-RI
    Molecular point group: c1

    Geometry (in Angstrom), charge = 0, multiplicity = 1:

       Center              X                  Y                   Z               Mass
    ------------   -----------------  -----------------  -----------------  -----------------
         O           -2.079225311943    -1.513121894986     0.480061427863    15.994914619570
         O            1.666698688057     1.291100105014    -0.555486572137    15.994914619570
         O           -3.120231311943    -0.103473894986    -0.959652572137    15.994914619570
         N            0.229662688057    -0.275081894986     0.255541427863    14.003074004430
         C           -0.940354311943     0.505256105014    -0.098872572137    12.000000000000
         C           -1.266806111943     1.628313505014     0.968459127863    12.000000000000
         C            2.624536688057    -0.651568894986     0.525762427863    12.000000000000
         C            1.483107688057     0.212730105014     0.018330427863    12.000000000000
         C           -2.151186311943    -0.380225894986    -0.278801572137    12.000000000000
         C            3.845405688057    -0.549391894986    -0.381818572137    12.000000000000
         H           -0.742799311943     0.982619105014    -1.062506572137     1.007825032230
         H            0.098979688057    -1.130683894986     0.779492427863     1.007825032230
         H           -1.454104311943     1.141477105014     1.910929427863     1.007825032230
         H           -0.394460311943     2.258055105014     1.010916427863     1.007825032230
         H           -2.130014311943     2.171817105014     0.622523427863     1.007825032230
         H            2.876314688057    -0.299629894986     1.534136427863     1.007825032230
         H            2.296322688057    -1.692444894986     0.626835427863     1.007825032230
         H            4.133701688057     0.495713105014    -0.500525572137     1.007825032230
         H            4.686738688057    -1.106924894986     0.037960427863     1.007825032230
         H            3.625891688057    -0.952757894986    -1.373580572137     1.007825032230
         H           -2.921669311943    -1.989372894986     0.324123427863     1.007825032230

  Basis Set: AUG-CC-PVTZ
    Blend: AUG-CC-PVTZ
  Basis Set: (AUG-CC-PVTZ AUX)
    Blend: AUG-CC-PVTZ-JKFIT
	 Reference Energy          =    -512.8847107316821621 [Eh]
	 Singles Energy            =      -0.0000000000000000 [Eh]
	 Same-Spin Energy          =      -0.5109735171472539 [Eh]
	 Opposite-Spin Energy      =      -1.6149909799714590 [Eh]
	 Correlation Energy        =      -2.1259644971187130 [Eh]
	 Total Energy              =    -515.0106752288008920 [Eh]

	 ================> DF-SCS-MP2 Energies <==================
	-----------------------------------------------------------
	 SCS Same-Spin Scale       =       0.3333333333333333 [-]
	 SCS Opposite-Spin Scale   =       1.2000000000000000 [-]
	 SCS Same-Spin Energy      =      -0.1703245057157513 [Eh]
	 SCS Opposite-Spin Energy  =      -1.9379891759657508 [Eh]
	 SCS Correlation Energy    =      -2.1083136816815022 [Eh]
	 SCS Total Energy          =    -514.9930244133636279 [Eh]
	-----------------------------------------------------------

  Dipole Moment: [D]
     X:    -0.1981      Y:    -3.0411      Z:     2.6537     Total:     4.0410

*** Psi4 exiting successfully. Buy a developer a beer!
