                               Psi4 1.3.2 release

  ==> Input File <==

--------------------------------------------------------------------------
#psi4
#
memory 32 gb

molecule  {
0 1
  O       -1.9705880     1.6613530    -0.1848000
  O        1.6688240    -1.2224340     0.6437850
  O       -3.2992421    -0.0283817     0.4922941
  N        0.2140730     0.2683100    -0.2698780
  C       -0.9370534    -0.4759219     0.1102830
  C       -1.1968270    -1.6816620    -0.8184860
  C        2.5789920     0.8068070    -0.3378900
  C        1.4682490    -0.1481810     0.0706060
  C       -2.1908320     0.3658730     0.1844680
  C        3.9506640     0.3320720     0.1153760
  H       -0.7838570    -0.8897150     1.1288390
  H        0.0750270     1.1966100    -0.6451490
  H       -1.3515420    -1.3283180    -1.8408860
  H       -0.3238960    -2.3346980    -0.7915570
  H       -2.0788080    -2.2361410    -0.4923840
  H        2.5479870     0.9167430    -1.4288930
  H        2.3554820     1.7990610     0.0733550
  H        4.1782080    -0.6474400    -0.3069900
  H        4.7194550     1.0404130    -0.2050590
  H        3.9903360     0.2413970     1.2016820
  H       -2.8462050     2.0977190    -0.1239210
units angstrom
no_reorient  #important for SAPT in psi4, default
symmetry c1  #important for SAPT in psi4, default
}

set PROPERTIES_ORIGIN ["COM"]
properties('MP2/aug-cc-pvtz', properties = ['dipole'])
--------------------------------------------------------------------------

    Molecular point group: c1
  Charge       = 0
  Multiplicity = 1
  Basis Set: AUG-CC-PVTZ
    Blend: AUG-CC-PVTZ
  Basis Set: (AUG-CC-PVTZ AUX)
    Blend: AUG-CC-PVTZ-JKFIT

    Orbital Energies [Eh]
    ---------------------

    Doubly Occupied:

       1A    -20.634081     2A    -20.564055     3A    -20.526227
       4A    -15.593167     5A    -11.405454     6A    -11.357547
       7A    -11.297607     8A    -11.248304     9A    -11.227352
      10A    -11.220317    11A     -1.478225    12A     -1.382611
      13A     -1.371751    14A     -1.252396    15A     -1.075553
      16A     -1.034959    17A     -0.928504    18A     -0.887446
      19A     -0.816243    20A     -0.795333    21A     -0.733207
      22A     -0.713811    23A     -0.684839    24A     -0.665406
      25A     -0.642164    26A     -0.633661    27A     -0.609328
      28A     -0.603373    29A     -0.582321    30A     -0.546838
      31A     -0.543594    32A     -0.526869    33A     -0.521190
      34A     -0.519069    35A     -0.497879    36A     -0.487891
      37A     -0.468006    38A     -0.429920    39A     -0.399638

  @DF-RHF Final Energy:  -512.88505101691021

   => Energetics <=

    Nuclear Repulsion Energy =            548.2136900817938567
    One-Electron Energy =               -1788.3852081460161116
    Two-Electron Energy =                 727.2864670473120441
    Total Energy =                       -512.8850510169102108
  Basis Set: (AUG-CC-PVTZ AUX)
    Blend: AUG-CC-PVTZ-RI
    Molecular point group: c1

    Geometry (in Angstrom), charge = 0, multiplicity = 1:

       Center              X                  Y                   Z               Mass
    ------------   -----------------  -----------------  -----------------  -----------------
         O           -1.970880379266     1.657451399628    -0.183910659985    15.994914619570
         O            1.668531620734    -1.226335600372     0.644674340015    15.994914619570
         O           -3.299534479266    -0.032283300372     0.493183440015    15.994914619570
         N            0.213780620734     0.264408399628    -0.268988659985    14.003074004430
         C           -0.937345779266    -0.479823500372     0.111172340015    12.000000000000
         C           -1.197119379266    -1.685563600372    -0.817596659985    12.000000000000
         C            2.578699620734     0.802905399628    -0.337000659985    12.000000000000
         C            1.467956620734    -0.152082600372     0.071495340015    12.000000000000
         C           -2.191124379266     0.361971399628     0.185357340015    12.000000000000
         C            3.950371620734     0.328170399628     0.116265340015    12.000000000000
         H           -0.784149379266    -0.893616600372     1.129728340015     1.007825032230
         H            0.074734620734     1.192708399628    -0.644259659985     1.007825032230
         H           -1.351834379266    -1.332219600372    -1.839996659985     1.007825032230
         H           -0.324188379266    -2.338599600372    -0.790667659985     1.007825032230
         H           -2.079100379266    -2.240042600372    -0.491494659985     1.007825032230
         H            2.547694620734     0.912841399628    -1.428003659985     1.007825032230
         H            2.355189620734     1.795159399628     0.074244340015     1.007825032230
         H            4.177915620734    -0.651341600372    -0.306100659985     1.007825032230
         H            4.719162620734     1.036511399628    -0.204169659985     1.007825032230
         H            3.990043620734     0.237495399628     1.202571340015     1.007825032230
         H           -2.846497379266     2.093817399628    -0.123031659985     1.007825032230

  Basis Set: AUG-CC-PVTZ
    Blend: AUG-CC-PVTZ
  Basis Set: (AUG-CC-PVTZ AUX)
    Blend: AUG-CC-PVTZ-JKFIT
	 Reference Energy          =    -512.8850510169102108 [Eh]
	 Singles Energy            =      -0.0000000000000000 [Eh]
	 Same-Spin Energy          =      -0.5114999550326587 [Eh]
	 Opposite-Spin Energy      =      -1.6150157882132357 [Eh]
	 Correlation Energy        =      -2.1265157432458945 [Eh]
	 Total Energy              =    -515.0115667601561427 [Eh]

	 ================> DF-SCS-MP2 Energies <==================
	-----------------------------------------------------------
	 SCS Same-Spin Scale       =       0.3333333333333333 [-]
	 SCS Opposite-Spin Scale   =       1.2000000000000000 [-]
	 SCS Same-Spin Energy      =      -0.1704999850108862 [Eh]
	 SCS Opposite-Spin Energy  =      -1.9380189458558827 [Eh]
	 SCS Correlation Energy    =      -2.1085189308667691 [Eh]
	 SCS Total Energy          =    -514.9935699477770186 [Eh]
	-----------------------------------------------------------

  Dipole Moment: [D]
     X:     0.0303      Y:     3.3451      Z:    -1.8586     Total:     3.8269

*** Psi4 exiting successfully. Buy a developer a beer!
