                               Psi4 1.3.2 release

  ==> Input File <==

--------------------------------------------------------------------------
#psi4
#
memory 32 gb

molecule  {
0 1
  O       -1.9705880     1.6613530    -0.1848000
  O        1.6688240    -1.2224340     0.6437850
  O       -3.2913740    -0.0479250     0.4948630
  N        0.2140730     0.2683100    -0.2698780
  C       -0.9510770    -0.4970410     0.1176100
  C       -1.1968270    -1.6816620    -0.8184860
  C        2.5789920     0.8068070    -0.3378900
  C        1.4682490    -0.1481810     0.0706060
  C       -2.1746965     0.4607823     0.1574147
  C        3.9506640     0.3320720     0.1153760
  H       -0.7838570    -0.8897150     1.1288390
  H        0.0750270     1.1966100    -0.6451490
  H       -1.3515420    -1.3283180    -1.8408860
  H       -0.3238960    -2.3346980    -0.7915570
  H       -2.0788080    -2.2361410    -0.4923840
  H        2.5479870     0.9167430    -1.4288930
  H        2.3554820     1.7990610     0.0733550
  H        4.1782080    -0.6474400    -0.3069900
  H        4.7194550     1.0404130    -0.2050590
  H        3.9903360     0.2413970     1.2016820
  H       -2.8462050     2.0977190    -0.1239210
units angstrom
no_reorient  #important for SAPT in psi4, default
symmetry c1  #important for SAPT in psi4, default
}

set PROPERTIES_ORIGIN ["COM"]
properties('MP2/aug-cc-pvtz', properties = ['dipole'])
--------------------------------------------------------------------------

    Molecular point group: c1
  Charge       = 0
  Multiplicity = 1
  Basis Set: AUG-CC-PVTZ
    Blend: AUG-CC-PVTZ
  Basis Set: (AUG-CC-PVTZ AUX)
    Blend: AUG-CC-PVTZ-JKFIT

    Orbital Energies [Eh]
    ---------------------

    Doubly Occupied:

       1A    -20.664780     2A    -20.548294     3A    -20.524121
       4A    -15.590343     5A    -11.407052     6A    -11.355056
       7A    -11.296164     8A    -11.247250     9A    -11.223014
      10A    -11.219571    11A     -1.527953    12A     -1.379897
      13A     -1.343837    14A     -1.245265    15A     -1.071460
      16A     -1.030364    17A     -0.934815    18A     -0.891087
      19A     -0.834011    20A     -0.798525    21A     -0.740133
      22A     -0.720815    23A     -0.687788    24A     -0.675368
      25A     -0.647732    26A     -0.636772    27A     -0.604252
      28A     -0.595202    29A     -0.580868    30A     -0.543591
      31A     -0.537811    32A     -0.522679    33A     -0.520207
      34A     -0.517066    35A     -0.492576    36A     -0.473566
      37A     -0.457616    38A     -0.426565    39A     -0.398264

  @DF-RHF Final Energy:  -512.87190773982582

   => Energetics <=

    Nuclear Repulsion Energy =            548.1115263005041243
    One-Electron Energy =               -1788.1434070261693705
    Two-Electron Energy =                 727.1599729858395449
    Total Energy =                       -512.8719077398258150
  Basis Set: (AUG-CC-PVTZ AUX)
    Blend: AUG-CC-PVTZ-RI
    Molecular point group: c1

    Geometry (in Angstrom), charge = 0, multiplicity = 1:

       Center              X                  Y                   Z               Mass
    ------------   -----------------  -----------------  -----------------  -----------------
         O           -1.971922554287     1.653502453526    -0.182562200524    15.994914619570
         O            1.667489445713    -1.230284546474     0.646022799476    15.994914619570
         O           -3.292708554287    -0.055775546474     0.497100799476    15.994914619570
         N            0.212738445713     0.260459453526    -0.267640200524    14.003074004430
         C           -0.952411554287    -0.504891546474     0.119847799476    12.000000000000
         C           -1.198161554287    -1.689512546474    -0.816248200524    12.000000000000
         C            2.577657445713     0.798956453526    -0.335652200524    12.000000000000
         C            1.466914445713    -0.156031546474     0.072843799476    12.000000000000
         C           -2.176031054287     0.452931753526     0.159652499476    12.000000000000
         C            3.949329445713     0.324221453526     0.117613799476    12.000000000000
         H           -0.785191554287    -0.897565546474     1.131076799476     1.007825032230
         H            0.073692445713     1.188759453526    -0.642911200524     1.007825032230
         H           -1.352876554287    -1.336168546474    -1.838648200524     1.007825032230
         H           -0.325230554287    -2.342548546474    -0.789319200524     1.007825032230
         H           -2.080142554287    -2.243991546474    -0.490146200524     1.007825032230
         H            2.546652445713     0.908892453526    -1.426655200524     1.007825032230
         H            2.354147445713     1.791210453526     0.075592799476     1.007825032230
         H            4.176873445713    -0.655290546474    -0.304752200524     1.007825032230
         H            4.718120445713     1.032562453526    -0.202821200524     1.007825032230
         H            3.989001445713     0.233546453526     1.203919799476     1.007825032230
         H           -2.847539554287     2.089868453526    -0.121683200524     1.007825032230

  Basis Set: AUG-CC-PVTZ
    Blend: AUG-CC-PVTZ
  Basis Set: (AUG-CC-PVTZ AUX)
    Blend: AUG-CC-PVTZ-JKFIT
	 Reference Energy          =    -512.8719077398258150 [Eh]
	 Singles Energy            =      -0.0000000000000000 [Eh]
	 Same-Spin Energy          =      -0.5117709615382143 [Eh]
	 Opposite-Spin Energy      =      -1.6152649941187112 [Eh]
	 Correlation Energy        =      -2.1270359556569254 [Eh]
	 Total Energy              =    -514.9989436954826942 [Eh]

	 ================> DF-SCS-MP2 Energies <==================
	-----------------------------------------------------------
	 SCS Same-Spin Scale       =       0.3333333333333333 [-]
	 SCS Opposite-Spin Scale   =       1.2000000000000000 [-]
	 SCS Same-Spin Energy      =      -0.1705903205127381 [Eh]
	 SCS Opposite-Spin Energy  =      -1.9383179929424532 [Eh]
	 SCS Correlation Energy    =      -2.1089083134551911 [Eh]
	 SCS Total Energy          =    -514.9808160532810462 [Eh]
	-----------------------------------------------------------

  Dipole Moment: [D]
     X:     0.0739      Y:     4.0802      Z:    -2.0591     Total:     4.5710

*** Psi4 exiting successfully. Buy a developer a beer!
