                               Psi4 1.3.2 release

  ==> Input File <==

--------------------------------------------------------------------------
#psi4
#
memory 32 gb

molecule  {
0 1
  O       -1.9705880     1.6613530    -0.1848000
  O        1.6688240    -1.2224340     0.6437850
  O       -3.2913740    -0.0479250     0.4948630
  N        0.2140730     0.2683100    -0.2698780
  C       -0.9510770    -0.4970410     0.1176100
  C       -1.1968270    -1.6816620    -0.8184860
  C        2.5789920     0.8068070    -0.3378900
  C        1.4682490    -0.1481810     0.0706060
  C       -2.1908320     0.3658730     0.1844680
  C        3.9506640     0.3320720     0.1153760
  H       -0.7838570    -0.8897150     1.1288390
  H        0.0612722     1.2884398    -0.6822718
  H       -1.3515420    -1.3283180    -1.8408860
  H       -0.3238960    -2.3346980    -0.7915570
  H       -2.0788080    -2.2361410    -0.4923840
  H        2.5479870     0.9167430    -1.4288930
  H        2.3554820     1.7990610     0.0733550
  H        4.1782080    -0.6474400    -0.3069900
  H        4.7194550     1.0404130    -0.2050590
  H        3.9903360     0.2413970     1.2016820
  H       -2.8462050     2.0977190    -0.1239210
units angstrom
no_reorient  #important for SAPT in psi4, default
symmetry c1  #important for SAPT in psi4, default
}

set PROPERTIES_ORIGIN ["COM"]
properties('MP2/aug-cc-pvtz', properties = ['dipole'])
--------------------------------------------------------------------------

    Molecular point group: c1
  Charge       = 0
  Multiplicity = 1
  Basis Set: AUG-CC-PVTZ
    Blend: AUG-CC-PVTZ
  Basis Set: (AUG-CC-PVTZ AUX)
    Blend: AUG-CC-PVTZ-JKFIT

    Orbital Energies [Eh]
    ---------------------

    Doubly Occupied:

       1A    -20.637112     2A    -20.564675     3A    -20.523686
       4A    -15.598609     5A    -11.405788     6A    -11.354994
       7A    -11.297026     8A    -11.246447     9A    -11.226497
      10A    -11.218937    11A     -1.479004    12A     -1.379022
      13A     -1.374078    14A     -1.236578    15A     -1.074100
      16A     -1.033316    17A     -0.927606    18A     -0.884711
      19A     -0.813031    20A     -0.779917    21A     -0.728796
      22A     -0.711057    23A     -0.681996    24A     -0.663066
      25A     -0.640771    26A     -0.632779    27A     -0.610976
      28A     -0.598845    29A     -0.577725    30A     -0.546895
      31A     -0.544087    32A     -0.522025    33A     -0.520616
      34A     -0.519209    35A     -0.497481    36A     -0.488146
      37A     -0.468240    38A     -0.426988    39A     -0.397883

  @DF-RHF Final Energy:  -512.87519219415390

   => Energetics <=

    Nuclear Repulsion Energy =            547.4843321425995555
    One-Electron Energy =               -1787.0536184505476740
    Two-Electron Energy =                 726.6940941137941081
    Total Energy =                       -512.8751921941538967
  Basis Set: (AUG-CC-PVTZ AUX)
    Blend: AUG-CC-PVTZ-RI
    Molecular point group: c1

    Geometry (in Angstrom), charge = 0, multiplicity = 1:

       Center              X                  Y                   Z               Mass
    ------------   -----------------  -----------------  -----------------  -----------------
         O           -1.970492328440     1.660715076043    -0.184542062693    15.994914619570
         O            1.668919671560    -1.223071923957     0.644042937307    15.994914619570
         O           -3.291278328440    -0.048562923957     0.495120937307    15.994914619570
         N            0.214168671560     0.267672076043    -0.269620062693    14.003074004430
         C           -0.950981328440    -0.497678923957     0.117867937307    12.000000000000
         C           -1.196731328440    -1.682299923957    -0.818228062693    12.000000000000
         C            2.579087671560     0.806169076043    -0.337632062693    12.000000000000
         C            1.468344671560    -0.148818923957     0.070863937307    12.000000000000
         C           -2.190736328440     0.365235076043     0.184725937307    12.000000000000
         C            3.950759671560     0.331434076043     0.115633937307    12.000000000000
         H           -0.783761328440    -0.890352923957     1.129096937307     1.007825032230
         H            0.061367871560     1.287801876043    -0.682013862693     1.007825032230
         H           -1.351446328440    -1.328955923957    -1.840628062693     1.007825032230
         H           -0.323800328440    -2.335335923957    -0.791299062693     1.007825032230
         H           -2.078712328440    -2.236778923957    -0.492126062693     1.007825032230
         H            2.548082671560     0.916105076043    -1.428635062693     1.007825032230
         H            2.355577671560     1.798423076043     0.073612937307     1.007825032230
         H            4.178303671560    -0.648077923957    -0.306732062693     1.007825032230
         H            4.719550671560     1.039775076043    -0.204801062693     1.007825032230
         H            3.990431671560     0.240759076043     1.201939937307     1.007825032230
         H           -2.846109328440     2.097081076043    -0.123663062693     1.007825032230

  Basis Set: AUG-CC-PVTZ
    Blend: AUG-CC-PVTZ
  Basis Set: (AUG-CC-PVTZ AUX)
    Blend: AUG-CC-PVTZ-JKFIT
	 Reference Energy          =    -512.8751921941538967 [Eh]
	 Singles Energy            =      -0.0000000000000000 [Eh]
	 Same-Spin Energy          =      -0.5122729951888769 [Eh]
	 Opposite-Spin Energy      =      -1.6170041742968135 [Eh]
	 Correlation Energy        =      -2.1292771694856905 [Eh]
	 Total Energy              =    -515.0044693636396005 [Eh]

	 ================> DF-SCS-MP2 Energies <==================
	-----------------------------------------------------------
	 SCS Same-Spin Scale       =       0.3333333333333333 [-]
	 SCS Opposite-Spin Scale   =       1.2000000000000000 [-]
	 SCS Same-Spin Energy      =      -0.1707576650629590 [Eh]
	 SCS Opposite-Spin Energy  =      -1.9404050091561762 [Eh]
	 SCS Correlation Energy    =      -2.1111626742191349 [Eh]
	 SCS Total Energy          =    -514.9863548683730414 [Eh]
	-----------------------------------------------------------

  Dipole Moment: [D]
     X:    -0.1574      Y:     3.4582      Z:    -1.8931     Total:     3.9456

*** Psi4 exiting successfully. Buy a developer a beer!
