                               Psi4 1.3.2 release

  ==> Input File <==

--------------------------------------------------------------------------
#psi4
#
memory 32 gb

molecule  {
0 1
  O       -1.9705880     1.6613530    -0.1848000
  O        1.6688240    -1.2224340     0.6437850
  O       -3.2913740    -0.0479250     0.4948630
  N        0.2140730     0.2683100    -0.2698780
  C       -0.9510770    -0.4970410     0.1176100
  C       -1.1968270    -1.6816620    -0.8184860
  C        2.5789920     0.8068070    -0.3378900
  C        1.4910542    -0.1389955     0.1463310
  C       -2.1908320     0.3658730     0.1844680
  C        3.9506640     0.3320720     0.1153760
  H       -0.7838570    -0.8897150     1.1288390
  H        0.0750270     1.1966100    -0.6451490
  H       -1.3515420    -1.3283180    -1.8408860
  H       -0.3238960    -2.3346980    -0.7915570
  H       -2.0788080    -2.2361410    -0.4923840
  H        2.5926549     0.9526337    -1.4250343
  H        2.3554820     1.7990610     0.0733550
  H        4.1782080    -0.6474400    -0.3069900
  H        4.7194550     1.0404130    -0.2050590
  H        3.9903360     0.2413970     1.2016820
  H       -2.8462050     2.0977190    -0.1239210
units angstrom
no_reorient  #important for SAPT in psi4, default
symmetry c1  #important for SAPT in psi4, default
}

set PROPERTIES_ORIGIN ["COM"]
properties('MP2/aug-cc-pvtz', properties = ['dipole'])
--------------------------------------------------------------------------

    Molecular point group: c1
  Charge       = 0
  Multiplicity = 1
  Basis Set: AUG-CC-PVTZ
    Blend: AUG-CC-PVTZ
  Basis Set: (AUG-CC-PVTZ AUX)
    Blend: AUG-CC-PVTZ-JKFIT

    Orbital Energies [Eh]
    ---------------------

    Doubly Occupied:

       1A    -20.634087     2A    -20.562150     3A    -20.534344
       4A    -15.584403     5A    -11.402876     6A    -11.358533
       7A    -11.293555     8A    -11.247479     9A    -11.224473
      10A    -11.220070    11A     -1.476109    12A     -1.400541
      13A     -1.371474    14A     -1.237208    15A     -1.073272
      16A     -1.032820    17A     -0.924451    18A     -0.884146
      19A     -0.813687    20A     -0.785240    21A     -0.729676
      22A     -0.712521    23A     -0.685278    24A     -0.664938
      25A     -0.640536    26A     -0.635108    27A     -0.610837
      28A     -0.606890    29A     -0.579477    30A     -0.544811
      31A     -0.544625    32A     -0.526910    33A     -0.521610
      34A     -0.520164    35A     -0.496742    36A     -0.491185
      37A     -0.467438    38A     -0.431645    39A     -0.397547

  @DF-RHF Final Energy:  -512.88209010202854

   => Energetics <=

    Nuclear Repulsion Energy =            547.7758357774935121
    One-Electron Energy =               -1787.5781424849208179
    Two-Electron Energy =                 726.9202166053987639
    Total Energy =                       -512.8820901020285419
  Basis Set: (AUG-CC-PVTZ AUX)
    Blend: AUG-CC-PVTZ-RI
    Molecular point group: c1

    Geometry (in Angstrom), charge = 0, multiplicity = 1:

       Center              X                  Y                   Z               Mass
    ------------   -----------------  -----------------  -----------------  -----------------
         O           -1.972784555196     1.660343891583    -0.191090464756    15.994914619570
         O            1.666627444804    -1.223443108417     0.637494535244    15.994914619570
         O           -3.293570555196    -0.048934108417     0.488572535244    15.994914619570
         N            0.211876444804     0.267300891583    -0.276168464756    14.003074004430
         C           -0.953273555196    -0.498050108417     0.111319535244    12.000000000000
         C           -1.199023555196    -1.682671108417    -0.824776464756    12.000000000000
         C            2.576795444804     0.805797891583    -0.344180464756    12.000000000000
         C            1.488857644804    -0.140004608417     0.140040535244    12.000000000000
         C           -2.193028555196     0.364863891583     0.178177535244    12.000000000000
         C            3.948467444804     0.331062891583     0.109085535244    12.000000000000
         H           -0.786053555196    -0.890724108417     1.122548535244     1.007825032230
         H            0.072830444804     1.195600891583    -0.651439464756     1.007825032230
         H           -1.353738555196    -1.329327108417    -1.847176464756     1.007825032230
         H           -0.326092555196    -2.335707108417    -0.797847464756     1.007825032230
         H           -2.081004555196    -2.237150108417    -0.498674464756     1.007825032230
         H            2.590458344804     0.951624591583    -1.431324764756     1.007825032230
         H            2.353285444804     1.798051891583     0.067064535244     1.007825032230
         H            4.176011444804    -0.648449108417    -0.313280464756     1.007825032230
         H            4.717258444804     1.039403891583    -0.211349464756     1.007825032230
         H            3.988139444804     0.240387891583     1.195391535244     1.007825032230
         H           -2.848401555196     2.096709891583    -0.130211464756     1.007825032230

  Basis Set: AUG-CC-PVTZ
    Blend: AUG-CC-PVTZ
  Basis Set: (AUG-CC-PVTZ AUX)
    Blend: AUG-CC-PVTZ-JKFIT
	 Reference Energy          =    -512.8820901020285419 [Eh]
	 Singles Energy            =      -0.0000000000000000 [Eh]
	 Same-Spin Energy          =      -0.5109888183883249 [Eh]
	 Opposite-Spin Energy      =      -1.6145759293894955 [Eh]
	 Correlation Energy        =      -2.1255647477778203 [Eh]
	 Total Energy              =    -515.0076548498063858 [Eh]

	 ================> DF-SCS-MP2 Energies <==================
	-----------------------------------------------------------
	 SCS Same-Spin Scale       =       0.3333333333333333 [-]
	 SCS Opposite-Spin Scale   =       1.2000000000000000 [-]
	 SCS Same-Spin Energy      =      -0.1703296061294416 [Eh]
	 SCS Opposite-Spin Energy  =      -1.9374911152673944 [Eh]
	 SCS Correlation Energy    =      -2.1078207213968359 [Eh]
	 SCS Total Energy          =    -514.9899108234253617 [Eh]
	-----------------------------------------------------------

  Dipole Moment: [D]
     X:     0.2092      Y:     3.2535      Z:    -1.7068     Total:     3.6799

*** Psi4 exiting successfully. Buy a developer a beer!
