                               Psi4 1.3.2 release

  ==> Input File <==

--------------------------------------------------------------------------
#psi4
#
memory 32 gb

molecule  {
0 1
  O       -1.9705880     1.6613530    -0.1848000
  O        1.6688240    -1.2224340     0.6437850
  O       -3.2913740    -0.0479250     0.4948630
  N        0.2140730     0.2683100    -0.2698780
  C       -0.9510770    -0.4970410     0.1176100
  C       -1.1968270    -1.6816620    -0.8184860
  C        2.5789920     0.8068070    -0.3378900
  C        1.3221688    -0.2737770     0.1243297
  C       -2.1908320     0.3658730     0.1844680
  C        3.9506640     0.3320720     0.1153760
  H       -0.7838570    -0.8897150     1.1288390
  H        0.0750270     1.1966100    -0.6451490
  H       -1.3515420    -1.3283180    -1.8408860
  H       -0.3238960    -2.3346980    -0.7915570
  H       -2.0788080    -2.2361410    -0.4923840
  H        2.5479870     0.9167430    -1.4288930
  H        2.3554820     1.7990610     0.0733550
  H        4.1782080    -0.6474400    -0.3069900
  H        4.7194550     1.0404130    -0.2050590
  H        3.9903360     0.2413970     1.2016820
  H       -2.8462050     2.0977190    -0.1239210
units angstrom
no_reorient  #important for SAPT in psi4, default
symmetry c1  #important for SAPT in psi4, default
}

set PROPERTIES_ORIGIN ["COM"]
properties('MP2/aug-cc-pvtz', properties = ['dipole'])
--------------------------------------------------------------------------

    Molecular point group: c1
  Charge       = 0
  Multiplicity = 1
  Basis Set: AUG-CC-PVTZ
    Blend: AUG-CC-PVTZ
  Basis Set: (AUG-CC-PVTZ AUX)
    Blend: AUG-CC-PVTZ-JKFIT

    Orbital Energies [Eh]
    ---------------------

    Doubly Occupied:

       1A    -20.641863     2A    -20.569025     3A    -20.536347
       4A    -15.599291     5A    -11.410061     6A    -11.348718
       7A    -11.301705     8A    -11.234262     9A    -11.226179
      10A    -11.206569    11A     -1.483748    12A     -1.447602
      13A     -1.378567    14A     -1.285183    15A     -1.069821
      16A     -1.014632    17A     -0.935083    18A     -0.856614
      19A     -0.833698    20A     -0.807978    21A     -0.733776
      22A     -0.721001    23A     -0.690465    24A     -0.673958
      25A     -0.643973    26A     -0.640145    27A     -0.620880
      28A     -0.609353    29A     -0.589620    30A     -0.557570
      31A     -0.553074    32A     -0.532748    33A     -0.526166
      34A     -0.505500    35A     -0.500326    36A     -0.485842
      37A     -0.474077    38A     -0.419814    39A     -0.381233

  @DF-RHF Final Energy:  -512.84718171375357

   => Energetics <=

    Nuclear Repulsion Energy =            549.9352072203864736
    One-Electron Energy =               -1791.4718443713932174
    Two-Electron Energy =                 728.6894554372531729
    Total Energy =                       -512.8471817137535709
  Basis Set: (AUG-CC-PVTZ AUX)
    Blend: AUG-CC-PVTZ-RI
    Molecular point group: c1

    Geometry (in Angstrom), charge = 0, multiplicity = 1:

       Center              X                  Y                   Z               Mass
    ------------   -----------------  -----------------  -----------------  -----------------
         O           -1.958504644580     1.671741873048    -0.189243788634    15.994914619570
         O            1.680907355420    -1.212045126952     0.639341211366    15.994914619570
         O           -3.279290644580    -0.037536126952     0.490419211366    15.994914619570
         N            0.226156355420     0.278698873048    -0.274321788634    14.003074004430
         C           -0.938993644580    -0.486652126952     0.113166211366    12.000000000000
         C           -1.184743644580    -1.671273126952    -0.822929788634    12.000000000000
         C            2.591075355420     0.817195873048    -0.342333788634    12.000000000000
         C            1.334252155420    -0.263388126952     0.119885911366    12.000000000000
         C           -2.178748644580     0.376261873048     0.180024211366    12.000000000000
         C            3.962747355420     0.342460873048     0.110932211366    12.000000000000
         H           -0.771773644580    -0.879326126952     1.124395211366     1.007825032230
         H            0.087110355420     1.206998873048    -0.649592788634     1.007825032230
         H           -1.339458644580    -1.317929126952    -1.845329788634     1.007825032230
         H           -0.311812644580    -2.324309126952    -0.796000788634     1.007825032230
         H           -2.066724644580    -2.225752126952    -0.496827788634     1.007825032230
         H            2.560070355420     0.927131873048    -1.433336788634     1.007825032230
         H            2.367565355420     1.809449873048     0.068911211366     1.007825032230
         H            4.190291355420    -0.637051126952    -0.311433788634     1.007825032230
         H            4.731538355420     1.050801873048    -0.209502788634     1.007825032230
         H            4.002419355420     0.251785873048     1.197238211366     1.007825032230
         H           -2.834121644580     2.108107873048    -0.128364788634     1.007825032230

  Basis Set: AUG-CC-PVTZ
    Blend: AUG-CC-PVTZ
  Basis Set: (AUG-CC-PVTZ AUX)
    Blend: AUG-CC-PVTZ-JKFIT
	 Reference Energy          =    -512.8471817137535709 [Eh]
	 Singles Energy            =      -0.0000000000000000 [Eh]
	 Same-Spin Energy          =      -0.5103907894781201 [Eh]
	 Opposite-Spin Energy      =      -1.6129121726885500 [Eh]
	 Correlation Energy        =      -2.1233029621666701 [Eh]
	 Total Energy              =    -514.9704846759202610 [Eh]

	 ================> DF-SCS-MP2 Energies <==================
	-----------------------------------------------------------
	 SCS Same-Spin Scale       =       0.3333333333333333 [-]
	 SCS Opposite-Spin Scale   =       1.2000000000000000 [-]
	 SCS Same-Spin Energy      =      -0.1701302631593734 [Eh]
	 SCS Opposite-Spin Energy  =      -1.9354946072262600 [Eh]
	 SCS Correlation Energy    =      -2.1056248703856335 [Eh]
	 SCS Total Energy          =    -514.9528065841392390 [Eh]
	-----------------------------------------------------------

  Dipole Moment: [D]
     X:    -1.1335      Y:     2.6708      Z:    -1.6062     Total:     3.3163

*** Psi4 exiting successfully. Buy a developer a beer!
