                               Psi4 1.4a3.dev225

  ==> Input File <==

--------------------------------------------------------------------------
#psi4
#
memory 32 gb

molecule  {
0 1
  O       -2.1439760    -1.5096120     0.4578230
  O        1.6019480     1.2946100    -0.5777250
  O       -3.1849820    -0.0999640    -0.9818910
  N        0.1649120    -0.2715720     0.2333030
  C       -1.0051050     0.5087660    -0.1211110
  C       -1.3212480     1.5963590     0.9125160
  C        2.5597860    -0.6480590     0.5035240
  C        1.4183570     0.2162400    -0.0039080
  C       -2.2159370    -0.3767160    -0.3010400
  C        3.7806550    -0.5458820    -0.4040570
  H       -0.8039364     0.9948608    -1.1023716
  H        0.0342290    -1.1271740     0.7572540
  H       -1.5188550     1.1449870     1.8886910
  H       -0.4592110     2.2615650     0.9886780
  H       -2.1947650     2.1753270     0.6002850
  H        2.8115640    -0.2961200     1.5118980
  H        2.2315720    -1.6889350     0.6045970
  H        4.0689510     0.4992230    -0.5227640
  H        4.6219880    -1.1034150     0.0157220
  H        3.5611410    -0.9492480    -1.3958190
  H       -2.9864200    -1.9858630     0.3018850
units angstrom
no_reorient  #important for SAPT in psi4, default
symmetry c1  #important for SAPT in psi4, default
}

set PROPERTIES_ORIGIN ["COM"]
properties('MP2/aug-cc-pvtz', properties = ['dipole'])
--------------------------------------------------------------------------

    Molecular point group: c1
  Charge       = 0
  Multiplicity = 1
  Basis Set: AUG-CC-PVTZ
    Blend: AUG-CC-PVTZ
  Basis Set: (AUG-CC-PVTZ AUX)
    Blend: AUG-CC-PVTZ-JKFIT

    Orbital Energies [Eh]
    ---------------------

    Doubly Occupied:

       1A    -20.634392     2A    -20.564993     3A    -20.522827
       4A    -15.595977     5A    -11.403938     6A    -11.356953
       7A    -11.298516     8A    -11.247795     9A    -11.233456
      10A    -11.221880    11A     -1.476408    12A     -1.379579
      13A     -1.372541    14A     -1.245870    15A     -1.075692
      16A     -1.037135    17A     -0.928364    18A     -0.885977
      19A     -0.819960    20A     -0.794544    21A     -0.727999
      22A     -0.714355    23A     -0.680464    24A     -0.660443
      25A     -0.642211    26A     -0.628717    27A     -0.609022
      28A     -0.600805    29A     -0.593709    30A     -0.552492
      31A     -0.541499    32A     -0.533941    33A     -0.523143
      34A     -0.513738    35A     -0.497847    36A     -0.487452
      37A     -0.468772    38A     -0.427516    39A     -0.400426

  @DF-RHF Final Energy:  -512.88569838026217

   => Energetics <=

    Nuclear Repulsion Energy =            547.6363207113133740
    One-Electron Energy =               -1787.2413464190667582
    Two-Electron Energy =                 726.7193273274912144
    Total Energy =                       -512.8856983802621698
  Basis Set: (AUG-CC-PVTZ AUX)
    Blend: AUG-CC-PVTZ-RI
    Molecular point group: c1

    Geometry (in Angstrom), charge = 0, multiplicity = 1:

       Center              X                  Y                   Z               Mass
    ------------   -----------------  -----------------  -----------------  -----------------
         O           -2.080103123062    -1.510249064705     0.482971813181    15.994914619570
         O            1.665820876938     1.293972935295    -0.552576186819    15.994914619570
         O           -3.121109123062    -0.100601064705    -0.956742186819    15.994914619570
         N            0.228784876938    -0.272209064705     0.258451813181    14.003074004430
         C           -0.941232123062     0.508128935295    -0.095962186819    12.000000000000
         C           -1.257375123062     1.595721935295     0.937664813181    12.000000000000
         C            2.623658876938    -0.648696064705     0.528672813181    12.000000000000
         C            1.482229876938     0.215602935295     0.021240813181    12.000000000000
         C           -2.152064123062    -0.377353064705    -0.275891186819    12.000000000000
         C            3.844527876938    -0.546519064705    -0.378908186819    12.000000000000
         H           -0.740063523062     0.994223735295    -1.077222786819     1.007825032230
         H            0.098101876938    -1.127811064705     0.782402813181     1.007825032230
         H           -1.454982123062     1.144349935295     1.913839813181     1.007825032230
         H           -0.395338123062     2.260927935295     1.013826813181     1.007825032230
         H           -2.130892123062     2.174689935295     0.625433813181     1.007825032230
         H            2.875436876938    -0.296757064705     1.537046813181     1.007825032230
         H            2.295444876938    -1.689572064705     0.629745813181     1.007825032230
         H            4.132823876938     0.498585935295    -0.497615186819     1.007825032230
         H            4.685860876938    -1.104052064705     0.040870813181     1.007825032230
         H            3.625013876938    -0.949885064705    -1.370670186819     1.007825032230
         H           -2.922547123062    -1.986500064705     0.327033813181     1.007825032230

  Basis Set: AUG-CC-PVTZ
    Blend: AUG-CC-PVTZ
  Basis Set: (AUG-CC-PVTZ AUX)
    Blend: AUG-CC-PVTZ-JKFIT
	 Reference Energy          =    -512.8856983802621698 [Eh]
	 Singles Energy            =      -0.0000000000000000 [Eh]
	 Same-Spin Energy          =      -0.5112420378815759 [Eh]
	 Opposite-Spin Energy      =      -1.6153011032579627 [Eh]
	 Correlation Energy        =      -2.1265431411395386 [Eh]
	 Total Energy              =    -515.0122415214017337 [Eh]

	 ================> DF-SCS-MP2 Energies <==================
	-----------------------------------------------------------
	 SCS Same-Spin Scale       =       0.3333333333333333 [-]
	 SCS Opposite-Spin Scale   =       1.2000000000000000 [-]
	 SCS Same-Spin Energy      =      -0.1704140126271919 [Eh]
	 SCS Opposite-Spin Energy  =      -1.9383613239095552 [Eh]
	 SCS Correlation Energy    =      -2.1087753365367470 [Eh]
	 SCS Total Energy          =    -514.9944737167988933 [Eh]
	-----------------------------------------------------------

  Dipole Moment: [D]
     X:    -0.2104      Y:    -3.0368      Z:     2.6485     Total:     4.0349

*** Psi4 exiting successfully. Buy a developer a beer!
