                               Psi4 1.3.2 release

  ==> Input File <==

--------------------------------------------------------------------------
#psi4
#
memory 32 gb

molecule  {
0 1
  O       -1.9705880     1.6613530    -0.1848000
  O        1.6688240    -1.2224340     0.6437850
  O       -3.2913740    -0.0479250     0.4948630
  N        0.2140730     0.2683100    -0.2698780
  C       -0.9510770    -0.4970410     0.1176100
  C       -1.1968270    -1.6816620    -0.8184860
  C        2.5789920     0.8068070    -0.3378900
  C        1.4682490    -0.1481810     0.0706060
  C       -2.1212908     0.3530739     0.1741276
  C        3.9506640     0.3320720     0.1153760
  H       -0.7838570    -0.8897150     1.1288390
  H        0.0750270     1.1966100    -0.6451490
  H       -1.3515420    -1.3283180    -1.8408860
  H       -0.3238960    -2.3346980    -0.7915570
  H       -2.0788080    -2.2361410    -0.4923840
  H        2.5479870     0.9167430    -1.4288930
  H        2.3554820     1.7990610     0.0733550
  H        4.1782080    -0.6474400    -0.3069900
  H        4.7194550     1.0404130    -0.2050590
  H        3.9903360     0.2413970     1.2016820
  H       -2.8240096     2.1413772    -0.1392470
units angstrom
no_reorient  #important for SAPT in psi4, default
symmetry c1  #important for SAPT in psi4, default
}

set PROPERTIES_ORIGIN ["COM"]
properties('MP2/aug-cc-pvtz', properties = ['dipole'])
--------------------------------------------------------------------------

    Molecular point group: c1
  Charge       = 0
  Multiplicity = 1
  Basis Set: AUG-CC-PVTZ
    Blend: AUG-CC-PVTZ
  Basis Set: (AUG-CC-PVTZ AUX)
    Blend: AUG-CC-PVTZ-JKFIT

    Orbital Energies [Eh]
    ---------------------

    Doubly Occupied:

       1A    -20.637219     2A    -20.554479     3A    -20.527527
       4A    -15.595015     5A    -11.412107     6A    -11.358633
       7A    -11.299862     8A    -11.249228     9A    -11.231290
      10A    -11.221109    11A     -1.467662    12A     -1.383485
      13A     -1.337091    14A     -1.252363    15A     -1.084494
      16A     -1.042139    17A     -0.939848    18A     -0.890297
      19A     -0.825892    20A     -0.795255    21A     -0.736198
      22A     -0.704296    23A     -0.685575    24A     -0.666197
      25A     -0.642404    26A     -0.628207    27A     -0.605491
      28A     -0.598055    29A     -0.582762    30A     -0.551329
      31A     -0.545347    32A     -0.526188    33A     -0.523389
      34A     -0.521690    35A     -0.495473    36A     -0.473126
      37A     -0.464403    38A     -0.430880    39A     -0.403651

  @DF-RHF Final Energy:  -512.87101214509585

   => Energetics <=

    Nuclear Repulsion Energy =            548.2994077603933647
    One-Electron Energy =               -1788.5615209167058310
    Two-Electron Energy =                 727.3911010112165059
    Total Energy =                       -512.8710121450958468
  Basis Set: (AUG-CC-PVTZ AUX)
    Blend: AUG-CC-PVTZ-RI
    Molecular point group: c1

    Geometry (in Angstrom), charge = 0, multiplicity = 1:

       Center              X                  Y                   Z               Mass
    ------------   -----------------  -----------------  -----------------  -----------------
         O           -1.976494276084     1.662108419393    -0.183838163204    15.994914619570
         O            1.662917723916    -1.221678580607     0.644746836796    15.994914619570
         O           -3.297280276084    -0.047169580607     0.495824836796    15.994914619570
         N            0.208166723916     0.269065419393    -0.268916163204    14.003074004430
         C           -0.956983276084    -0.496285580607     0.118571836796    12.000000000000
         C           -1.202733276084    -1.680906580607    -0.817524163204    12.000000000000
         C            2.573085723916     0.807562419393    -0.336928163204    12.000000000000
         C            1.462342723916    -0.147425580607     0.071567836796    12.000000000000
         C           -2.127197076084     0.353829319393     0.175089436796    12.000000000000
         C            3.944757723916     0.332827419393     0.116337836796    12.000000000000
         H           -0.789763276084    -0.888959580607     1.129800836796     1.007825032230
         H            0.069120723916     1.197365419393    -0.644187163204     1.007825032230
         H           -1.357448276084    -1.327562580607    -1.839924163204     1.007825032230
         H           -0.329802276084    -2.333942580607    -0.790595163204     1.007825032230
         H           -2.084714276084    -2.235385580607    -0.491422163204     1.007825032230
         H            2.542080723916     0.917498419393    -1.427931163204     1.007825032230
         H            2.349575723916     1.799816419393     0.074316836796     1.007825032230
         H            4.172301723916    -0.646684580607    -0.306028163204     1.007825032230
         H            4.713548723916     1.041168419393    -0.204097163204     1.007825032230
         H            3.984429723916     0.242152419393     1.202643836796     1.007825032230
         H           -2.829915876084     2.142132619393    -0.138285163204     1.007825032230

  Basis Set: AUG-CC-PVTZ
    Blend: AUG-CC-PVTZ
  Basis Set: (AUG-CC-PVTZ AUX)
    Blend: AUG-CC-PVTZ-JKFIT
	 Reference Energy          =    -512.8710121450958468 [Eh]
	 Singles Energy            =      -0.0000000000000000 [Eh]
	 Same-Spin Energy          =      -0.5130342832380150 [Eh]
	 Opposite-Spin Energy      =      -1.6181828205944764 [Eh]
	 Correlation Energy        =      -2.1312171038324914 [Eh]
	 Total Energy              =    -515.0022292489283018 [Eh]

	 ================> DF-SCS-MP2 Energies <==================
	-----------------------------------------------------------
	 SCS Same-Spin Scale       =       0.3333333333333333 [-]
	 SCS Opposite-Spin Scale   =       1.2000000000000000 [-]
	 SCS Same-Spin Energy      =      -0.1710114277460050 [Eh]
	 SCS Opposite-Spin Energy  =      -1.9418193847133716 [Eh]
	 SCS Correlation Energy    =      -2.1128308124593764 [Eh]
	 SCS Total Energy          =    -514.9838429575552254 [Eh]
	-----------------------------------------------------------

  Dipole Moment: [D]
     X:     0.3408      Y:     3.3829      Z:    -1.9717     Total:     3.9304

*** Psi4 exiting successfully. Buy a developer a beer!
