                               Psi4 1.4a3.dev225

  ==> Input File <==

--------------------------------------------------------------------------
#psi4
#
memory 32 gb

molecule  {
0 1
  O       -2.1439760    -1.5096120     0.4578230
  O        1.6019480     1.2946100    -0.5777250
  O       -3.1849820    -0.0999640    -0.9818910
  N        0.1649120    -0.2715720     0.2333030
  C       -1.0051050     0.5087660    -0.1211110
  C       -1.3212480     1.5963590     0.9125160
  C        2.5597860    -0.6480590     0.5035240
  C        1.4183570     0.2162400    -0.0039080
  C       -2.2159370    -0.3767160    -0.3010400
  C        3.7806550    -0.5458820    -0.4040570
  H       -0.8111636     0.9773972    -1.0671184
  H        0.0342290    -1.1271740     0.7572540
  H       -1.5188550     1.1449870     1.8886910
  H       -0.4592110     2.2615650     0.9886780
  H       -2.1947650     2.1753270     0.6002850
  H        2.8115640    -0.2961200     1.5118980
  H        2.2315720    -1.6889350     0.6045970
  H        4.0689510     0.4992230    -0.5227640
  H        4.6219880    -1.1034150     0.0157220
  H        3.5611410    -0.9492480    -1.3958190
  H       -2.9864200    -1.9858630     0.3018850
units angstrom
no_reorient  #important for SAPT in psi4, default
symmetry c1  #important for SAPT in psi4, default
}

set PROPERTIES_ORIGIN ["COM"]
properties('MP2/aug-cc-pvtz', properties = ['dipole'])
--------------------------------------------------------------------------

    Molecular point group: c1
  Charge       = 0
  Multiplicity = 1
  Basis Set: AUG-CC-PVTZ
    Blend: AUG-CC-PVTZ
  Basis Set: (AUG-CC-PVTZ AUX)
    Blend: AUG-CC-PVTZ-JKFIT

    Orbital Energies [Eh]
    ---------------------

    Doubly Occupied:

       1A    -20.634361     2A    -20.565263     3A    -20.522821
       4A    -15.595725     5A    -11.403936     6A    -11.356965
       7A    -11.294425     8A    -11.247762     9A    -11.233305
      10A    -11.221861    11A     -1.476473    12A     -1.379616
      13A     -1.372721    14A     -1.246155    15A     -1.076595
      16A     -1.037739    17A     -0.928532    18A     -0.885958
      19A     -0.823800    20A     -0.794620    21A     -0.728014
      22A     -0.714453    23A     -0.680645    24A     -0.661761
      25A     -0.642896    26A     -0.629952    27A     -0.609473
      28A     -0.601533    29A     -0.593737    30A     -0.552512
      31A     -0.542217    32A     -0.534916    33A     -0.523883
      34A     -0.514484    35A     -0.497922    36A     -0.488371
      37A     -0.469006    38A     -0.427537    39A     -0.400637

  @DF-RHF Final Energy:  -512.88650757630353

   => Energetics <=

    Nuclear Repulsion Energy =            547.8503205916833849
    One-Electron Energy =               -1787.6484906364737526
    Two-Electron Energy =                 726.9116624684868384
    Total Energy =                       -512.8865075763035293
  Basis Set: (AUG-CC-PVTZ AUX)
    Blend: AUG-CC-PVTZ-RI
    Molecular point group: c1

    Geometry (in Angstrom), charge = 0, multiplicity = 1:

       Center              X                  Y                   Z               Mass
    ------------   -----------------  -----------------  -----------------  -----------------
         O           -2.080052915868    -1.510127745474     0.482726910003    15.994914619570
         O            1.665871084132     1.294094254526    -0.552821089997    15.994914619570
         O           -3.121058915868    -0.100479745474    -0.956987089997    15.994914619570
         N            0.228835084132    -0.272087745474     0.258206910003    14.003074004430
         C           -0.941181915868     0.508250254526    -0.096207089997    12.000000000000
         C           -1.257324915868     1.595843254526     0.937419910003    12.000000000000
         C            2.623709084132    -0.648574745474     0.528427910003    12.000000000000
         C            1.482280084132     0.215724254526     0.020995910003    12.000000000000
         C           -2.152013915868    -0.377231745474    -0.276136089997    12.000000000000
         C            3.844578084132    -0.546397745474    -0.379153089997    12.000000000000
         H           -0.747240515868     0.976881454526    -1.042214489997     1.007825032230
         H            0.098152084132    -1.127689745474     0.782157910003     1.007825032230
         H           -1.454931915868     1.144471254526     1.913594910003     1.007825032230
         H           -0.395287915868     2.261049254526     1.013581910003     1.007825032230
         H           -2.130841915868     2.174811254526     0.625188910003     1.007825032230
         H            2.875487084132    -0.296635745474     1.536801910003     1.007825032230
         H            2.295495084132    -1.689450745474     0.629500910003     1.007825032230
         H            4.132874084132     0.498707254526    -0.497860089997     1.007825032230
         H            4.685911084132    -1.103930745474     0.040625910003     1.007825032230
         H            3.625064084132    -0.949763745474    -1.370915089997     1.007825032230
         H           -2.922496915868    -1.986378745474     0.326788910003     1.007825032230

  Basis Set: AUG-CC-PVTZ
    Blend: AUG-CC-PVTZ
  Basis Set: (AUG-CC-PVTZ AUX)
    Blend: AUG-CC-PVTZ-JKFIT
	 Reference Energy          =    -512.8865075763035293 [Eh]
	 Singles Energy            =      -0.0000000000000000 [Eh]
	 Same-Spin Energy          =      -0.5111144030062234 [Eh]
	 Opposite-Spin Energy      =      -1.6149327183390130 [Eh]
	 Correlation Energy        =      -2.1260471213452363 [Eh]
	 Total Energy              =    -515.0125546976487385 [Eh]

	 ================> DF-SCS-MP2 Energies <==================
	-----------------------------------------------------------
	 SCS Same-Spin Scale       =       0.3333333333333333 [-]
	 SCS Opposite-Spin Scale   =       1.2000000000000000 [-]
	 SCS Same-Spin Energy      =      -0.1703714676687411 [Eh]
	 SCS Opposite-Spin Energy  =      -1.9379192620068155 [Eh]
	 SCS Correlation Energy    =      -2.1082907296755566 [Eh]
	 SCS Total Energy          =    -514.9947983059790886 [Eh]
	-----------------------------------------------------------

  Dipole Moment: [D]
     X:    -0.2206      Y:    -3.0411      Z:     2.6494     Total:     4.0393

*** Psi4 exiting successfully. Buy a developer a beer!
