                               Psi4 1.3.2 release

  ==> Input File <==

--------------------------------------------------------------------------
#psi4
#
memory 32 gb

molecule  {
0 1
  O       -1.9705880     1.6613530    -0.1848000
  O        1.6688240    -1.2224340     0.6437850
  O       -3.2913740    -0.0479250     0.4948630
  N        0.2140730     0.2683100    -0.2698780
  C       -0.9510770    -0.4970410     0.1176100
  C       -1.1968270    -1.6816620    -0.8184860
  C        2.5789920     0.8068070    -0.3378900
  C        1.4498230    -0.1900286     0.0839569
  C       -2.1908320     0.3658730     0.1844680
  C        3.9506640     0.3320720     0.1153760
  H       -0.7838570    -0.8897150     1.1288390
  H        0.0404871     1.1898023    -0.6475324
  H       -1.3515420    -1.3283180    -1.8408860
  H       -0.3238960    -2.3346980    -0.7915570
  H       -2.0788080    -2.2361410    -0.4923840
  H        2.5479870     0.9167430    -1.4288930
  H        2.3554820     1.7990610     0.0733550
  H        4.1782080    -0.6474400    -0.3069900
  H        4.7194550     1.0404130    -0.2050590
  H        3.9903360     0.2413970     1.2016820
  H       -2.8462050     2.0977190    -0.1239210
units angstrom
no_reorient  #important for SAPT in psi4, default
symmetry c1  #important for SAPT in psi4, default
}

set PROPERTIES_ORIGIN ["COM"]
properties('MP2/aug-cc-pvtz', properties = ['dipole'])
--------------------------------------------------------------------------

    Molecular point group: c1
  Charge       = 0
  Multiplicity = 1
  Basis Set: AUG-CC-PVTZ
    Blend: AUG-CC-PVTZ
  Basis Set: (AUG-CC-PVTZ AUX)
    Blend: AUG-CC-PVTZ-JKFIT

    Orbital Energies [Eh]
    ---------------------

    Doubly Occupied:

       1A    -20.637177     2A    -20.564628     3A    -20.530605
       4A    -15.588893     5A    -11.405594     6A    -11.353774
       7A    -11.295462     8A    -11.243848     9A    -11.227204
      10A    -11.217124    11A     -1.479108    12A     -1.405588
      13A     -1.374141    14A     -1.249874    15A     -1.069245
      16A     -1.031658    17A     -0.928018    18A     -0.878642
      19A     -0.817233    20A     -0.796034    21A     -0.729461
      22A     -0.715231    23A     -0.683563    24A     -0.666157
      25A     -0.639166    26A     -0.637024    27A     -0.610944
      28A     -0.609062    29A     -0.583541    30A     -0.547750
      31A     -0.546381    32A     -0.524550    33A     -0.523124
      34A     -0.518204    35A     -0.496984    36A     -0.493022
      37A     -0.469161    38A     -0.423722    39A     -0.402957

  @DF-RHF Final Energy:  -512.88551357376321

   => Energetics <=

    Nuclear Repulsion Energy =            548.4331360037530203
    One-Electron Energy =               -1788.8095919054078422
    Two-Electron Energy =                 727.4909423278917302
    Total Energy =                       -512.8855135737632054
  Basis Set: (AUG-CC-PVTZ AUX)
    Blend: AUG-CC-PVTZ-RI
    Molecular point group: c1

    Geometry (in Angstrom), charge = 0, multiplicity = 1:

       Center              X                  Y                   Z               Mass
    ------------   -----------------  -----------------  -----------------  -----------------
         O           -1.968823801191     1.664861794163    -0.185887735802    15.994914619570
         O            1.670588198809    -1.218925205837     0.642697264198    15.994914619570
         O           -3.289609801191    -0.044416205837     0.493775264198    15.994914619570
         N            0.215837198809     0.271818794163    -0.270965735802    14.003074004430
         C           -0.949312801191    -0.493532205837     0.116522264198    12.000000000000
         C           -1.195062801191    -1.678153205837    -0.819573735802    12.000000000000
         C            2.580756198809     0.810315794163    -0.338977735802    12.000000000000
         C            1.451587198809    -0.186519805837     0.082869164198    12.000000000000
         C           -2.189067801191     0.369381794163     0.183380264198    12.000000000000
         C            3.952428198809     0.335580794163     0.114288264198    12.000000000000
         H           -0.782092801191    -0.886206205837     1.127751264198     1.007825032230
         H            0.042251298809     1.193311094163    -0.648620135802     1.007825032230
         H           -1.349777801191    -1.324809205837    -1.841973735802     1.007825032230
         H           -0.322131801191    -2.331189205837    -0.792644735802     1.007825032230
         H           -2.077043801191    -2.232632205837    -0.493471735802     1.007825032230
         H            2.549751198809     0.920251794163    -1.429980735802     1.007825032230
         H            2.357246198809     1.802569794163     0.072267264198     1.007825032230
         H            4.179972198809    -0.643931205837    -0.308077735802     1.007825032230
         H            4.721219198809     1.043921794163    -0.206146735802     1.007825032230
         H            3.992100198809     0.244905794163     1.200594264198     1.007825032230
         H           -2.844440801191     2.101227794163    -0.125008735802     1.007825032230

  Basis Set: AUG-CC-PVTZ
    Blend: AUG-CC-PVTZ
  Basis Set: (AUG-CC-PVTZ AUX)
    Blend: AUG-CC-PVTZ-JKFIT
	 Reference Energy          =    -512.8855135737632054 [Eh]
	 Singles Energy            =      -0.0000000000000000 [Eh]
	 Same-Spin Energy          =      -0.5104938132780474 [Eh]
	 Opposite-Spin Energy      =      -1.6133112991012171 [Eh]
	 Correlation Energy        =      -2.1238051123792645 [Eh]
	 Total Energy              =    -515.0093186861424783 [Eh]

	 ================> DF-SCS-MP2 Energies <==================
	-----------------------------------------------------------
	 SCS Same-Spin Scale       =       0.3333333333333333 [-]
	 SCS Opposite-Spin Scale   =       1.2000000000000000 [-]
	 SCS Same-Spin Energy      =      -0.1701646044260158 [Eh]
	 SCS Opposite-Spin Energy  =      -1.9359735589214604 [Eh]
	 SCS Correlation Energy    =      -2.1061381633474761 [Eh]
	 SCS Total Energy          =    -514.9916517371107147 [Eh]
	-----------------------------------------------------------

  Dipole Moment: [D]
     X:    -0.1875      Y:     3.1693      Z:    -1.7631     Total:     3.6315

*** Psi4 exiting successfully. Buy a developer a beer!
