                               Psi4 1.3.2 release

  ==> Input File <==

--------------------------------------------------------------------------
#psi4
#
memory 32 gb

molecule  {
0 1
  O       -1.9705880     1.6613530    -0.1848000
  O        1.6688240    -1.2224340     0.6437850
  O       -3.2913740    -0.0479250     0.4948630
  N        0.2140730     0.2683100    -0.2698780
  C       -0.9510770    -0.4970410     0.1176100
  C       -1.1968270    -1.6816620    -0.8184860
  C        2.5789920     0.8068070    -0.3378900
  C        1.6520541    -0.2092196     0.1205055
  C       -2.1908320     0.3658730     0.1844680
  C        3.9506640     0.3320720     0.1153760
  H       -0.7838570    -0.8897150     1.1288390
  H        0.0750270     1.1966100    -0.6451490
  H       -1.3515420    -1.3283180    -1.8408860
  H       -0.3238960    -2.3346980    -0.7915570
  H       -2.0788080    -2.2361410    -0.4923840
  H        2.5479870     0.9167430    -1.4288930
  H        2.3554820     1.7990610     0.0733550
  H        4.1782080    -0.6474400    -0.3069900
  H        4.7194550     1.0404130    -0.2050590
  H        3.9903360     0.2413970     1.2016820
  H       -2.8462050     2.0977190    -0.1239210
units angstrom
no_reorient  #important for SAPT in psi4, default
symmetry c1  #important for SAPT in psi4, default
}

set PROPERTIES_ORIGIN ["COM"]
properties('MP2/aug-cc-pvtz', properties = ['dipole'])
--------------------------------------------------------------------------

    Molecular point group: c1
  Charge       = 0
  Multiplicity = 1
  Basis Set: AUG-CC-PVTZ
    Blend: AUG-CC-PVTZ
  Basis Set: (AUG-CC-PVTZ AUX)
    Blend: AUG-CC-PVTZ-JKFIT

    Orbital Energies [Eh]
    ---------------------

    Doubly Occupied:

       1A    -20.622775     2A    -20.562168     3A    -20.551713
       4A    -15.549185     5A    -11.391498     6A    -11.368389
       7A    -11.278250     8A    -11.256215     9A    -11.230514
      10A    -11.214743    11A     -1.465016    12A     -1.459267
      13A     -1.360881    14A     -1.193589    15A     -1.092339
      16A     -1.013530    17A     -0.916048    18A     -0.890866
      19A     -0.798822    20A     -0.764347    21A     -0.728352
      22A     -0.700433    23A     -0.684920    24A     -0.670504
      25A     -0.661028    26A     -0.641207    27A     -0.605652
      28A     -0.596070    29A     -0.576964    30A     -0.549911
      31A     -0.541862    32A     -0.536216    33A     -0.528600
      34A     -0.516379    35A     -0.512930    36A     -0.483531
      37A     -0.464815    38A     -0.424723    39A     -0.371066

  @DF-RHF Final Energy:  -512.84788968765690

   => Energetics <=

    Nuclear Repulsion Energy =            547.1841325877797999
    One-Electron Energy =               -1786.5134085070208130
    Two-Electron Energy =                 726.4813862315839970
    Total Energy =                       -512.8478896876569024
  Basis Set: (AUG-CC-PVTZ AUX)
    Blend: AUG-CC-PVTZ-RI
    Molecular point group: c1

    Geometry (in Angstrom), charge = 0, multiplicity = 1:

       Center              X                  Y                   Z               Mass
    ------------   -----------------  -----------------  -----------------  -----------------
         O           -1.985791591337     1.666401912957    -0.188927464319    15.994914619570
         O            1.653620408663    -1.217385087043     0.639657535681    15.994914619570
         O           -3.306577591337    -0.042876087043     0.490735535681    15.994914619570
         N            0.198869408663     0.273358912957    -0.274005464319    14.003074004430
         C           -0.966280591337    -0.491992087043     0.113482535681    12.000000000000
         C           -1.212030591337    -1.676613087043    -0.822613464319    12.000000000000
         C            2.563788408663     0.811855912957    -0.342017464319    12.000000000000
         C            1.636850508663    -0.204170687043     0.116378035681    12.000000000000
         C           -2.206035591337     0.370921912957     0.180340535681    12.000000000000
         C            3.935460408663     0.337120912957     0.111248535681    12.000000000000
         H           -0.799060591337    -0.884666087043     1.124711535681     1.007825032230
         H            0.059823408663     1.201658912957    -0.649276464319     1.007825032230
         H           -1.366745591337    -1.323269087043    -1.845013464319     1.007825032230
         H           -0.339099591337    -2.329649087043    -0.795684464319     1.007825032230
         H           -2.094011591337    -2.231092087043    -0.496511464319     1.007825032230
         H            2.532783408663     0.921791912957    -1.433020464319     1.007825032230
         H            2.340278408663     1.804109912957     0.069227535681     1.007825032230
         H            4.163004408663    -0.642391087043    -0.311117464319     1.007825032230
         H            4.704251408663     1.045461912957    -0.209186464319     1.007825032230
         H            3.975132408663     0.246445912957     1.197554535681     1.007825032230
         H           -2.861408591337     2.102767912957    -0.128048464319     1.007825032230

  Basis Set: AUG-CC-PVTZ
    Blend: AUG-CC-PVTZ
  Basis Set: (AUG-CC-PVTZ AUX)
    Blend: AUG-CC-PVTZ-JKFIT
	 Reference Energy          =    -512.8478896876569024 [Eh]
	 Singles Energy            =      -0.0000000000000000 [Eh]
	 Same-Spin Energy          =      -0.5111703269779360 [Eh]
	 Opposite-Spin Energy      =      -1.6148324165347605 [Eh]
	 Correlation Energy        =      -2.1260027435126965 [Eh]
	 Total Energy              =    -514.9738924311695882 [Eh]

	 ================> DF-SCS-MP2 Energies <==================
	-----------------------------------------------------------
	 SCS Same-Spin Scale       =       0.3333333333333333 [-]
	 SCS Opposite-Spin Scale   =       1.2000000000000000 [-]
	 SCS Same-Spin Energy      =      -0.1703901089926453 [Eh]
	 SCS Opposite-Spin Energy  =      -1.9377988998417126 [Eh]
	 SCS Correlation Energy    =      -2.1081890088343580 [Eh]
	 SCS Total Energy          =    -514.9560786964912040 [Eh]
	-----------------------------------------------------------

  Dipole Moment: [D]
     X:     1.8336      Y:     2.9478      Z:    -1.4089     Total:     3.7466

*** Psi4 exiting successfully. Buy a developer a beer!
