                               Psi4 1.4a3.dev225

  ==> Input File <==

--------------------------------------------------------------------------
#psi4
#
memory 32 gb

molecule  {
0 1
  O       -2.1439760    -1.5096120     0.4578230
  O        1.6019480     1.2946100    -0.5777250
  O       -3.1849820    -0.0999640    -0.9818910
  N        0.1649120    -0.2715720     0.2333030
  C       -1.0051050     0.5087660    -0.1211110
  C       -1.3212480     1.5963590     0.9125160
  C        2.5597860    -0.6480590     0.5035240
  C        1.4183570     0.2162400    -0.0039080
  C       -2.2319658    -0.3884379    -0.3034219
  C        3.7806550    -0.5458820    -0.4040570
  H       -0.8075500     0.9861290    -1.0847450
  H        0.0342290    -1.1271740     0.7572540
  H       -1.5188550     1.1449870     1.8886910
  H       -0.4592110     2.2615650     0.9886780
  H       -2.1947650     2.1753270     0.6002850
  H        2.8115640    -0.2961200     1.5118980
  H        2.2315720    -1.6889350     0.6045970
  H        4.0689510     0.4992230    -0.5227640
  H        4.6219880    -1.1034150     0.0157220
  H        3.5611410    -0.9492480    -1.3958190
  H       -2.9864200    -1.9858630     0.3018850
units angstrom
no_reorient  #important for SAPT in psi4, default
symmetry c1  #important for SAPT in psi4, default
}

set PROPERTIES_ORIGIN ["COM"]
properties('MP2/aug-cc-pvtz', properties = ['dipole'])
--------------------------------------------------------------------------

    Molecular point group: c1
  Charge       = 0
  Multiplicity = 1
  Basis Set: AUG-CC-PVTZ
    Blend: AUG-CC-PVTZ
  Basis Set: (AUG-CC-PVTZ AUX)
    Blend: AUG-CC-PVTZ-JKFIT

    Orbital Energies [Eh]
    ---------------------

    Doubly Occupied:

       1A    -20.636226     2A    -20.566073     3A    -20.521951
       4A    -15.594731     5A    -11.402402     6A    -11.356094
       7A    -11.295445     8A    -11.247211     9A    -11.231888
      10A    -11.221439    11A     -1.481794    12A     -1.380509
      13A     -1.378422    14A     -1.244317    15A     -1.073728
      16A     -1.035207    17A     -0.925769    18A     -0.884892
      19A     -0.821395    20A     -0.794277    21A     -0.727670
      22A     -0.717013    23A     -0.680147    24A     -0.662249
      25A     -0.644720    26A     -0.628863    27A     -0.609432
      28A     -0.600908    29A     -0.593035    30A     -0.552138
      31A     -0.541033    32A     -0.534101    33A     -0.522872
      34A     -0.513709    35A     -0.499961    36A     -0.488615
      37A     -0.467471    38A     -0.426652    39A     -0.399114

  @DF-RHF Final Energy:  -512.88724950246183

   => Energetics <=

    Nuclear Repulsion Energy =            547.6646536617653283
    One-Electron Energy =               -1787.2968619410394240
    Two-Electron Energy =                 726.7449587768121546
    Total Energy =                       -512.8872495024618274
  Basis Set: (AUG-CC-PVTZ AUX)
    Blend: AUG-CC-PVTZ-RI
    Molecular point group: c1

    Geometry (in Angstrom), charge = 0, multiplicity = 1:

       Center              X                  Y                   Z               Mass
    ------------   -----------------  -----------------  -----------------  -----------------
         O           -2.078752173747    -1.509218810927     0.483046383946    15.994914619570
         O            1.667171826253     1.295003189073    -0.552501616054    15.994914619570
         O           -3.119758173747    -0.099570810927    -0.956667616054    15.994914619570
         N            0.230135826253    -0.271178810927     0.258526383946    14.003074004430
         C           -0.939881173747     0.509159189073    -0.095887616054    12.000000000000
         C           -1.256024173747     1.596752189073     0.937739383946    12.000000000000
         C            2.625009826253    -0.647665810927     0.528747383946    12.000000000000
         C            1.483580826253     0.216633189073     0.021315383946    12.000000000000
         C           -2.166741973747    -0.388044710927    -0.278198516054    12.000000000000
         C            3.845878826253    -0.545488810927    -0.378833616054    12.000000000000
         H           -0.742326173747     0.986522189073    -1.059521616054     1.007825032230
         H            0.099452826253    -1.126780810927     0.782477383946     1.007825032230
         H           -1.453631173747     1.145380189073     1.913914383946     1.007825032230
         H           -0.393987173747     2.261958189073     1.013901383946     1.007825032230
         H           -2.129541173747     2.175720189073     0.625508383946     1.007825032230
         H            2.876787826253    -0.295726810927     1.537121383946     1.007825032230
         H            2.296795826253    -1.688541810927     0.629820383946     1.007825032230
         H            4.134174826253     0.499616189073    -0.497540616054     1.007825032230
         H            4.687211826253    -1.103021810927     0.040945383946     1.007825032230
         H            3.626364826253    -0.948854810927    -1.370595616054     1.007825032230
         H           -2.921196173747    -1.985469810927     0.327108383946     1.007825032230

  Basis Set: AUG-CC-PVTZ
    Blend: AUG-CC-PVTZ
  Basis Set: (AUG-CC-PVTZ AUX)
    Blend: AUG-CC-PVTZ-JKFIT
	 Reference Energy          =    -512.8872495024618274 [Eh]
	 Singles Energy            =      -0.0000000000000000 [Eh]
	 Same-Spin Energy          =      -0.5108151283884093 [Eh]
	 Opposite-Spin Energy      =      -1.6143825781824321 [Eh]
	 Correlation Energy        =      -2.1251977065708414 [Eh]
	 Total Energy              =    -515.0124472090326435 [Eh]

	 ================> DF-SCS-MP2 Energies <==================
	-----------------------------------------------------------
	 SCS Same-Spin Scale       =       0.3333333333333333 [-]
	 SCS Opposite-Spin Scale   =       1.2000000000000000 [-]
	 SCS Same-Spin Energy      =      -0.1702717094628031 [Eh]
	 SCS Opposite-Spin Energy  =      -1.9372590938189185 [Eh]
	 SCS Correlation Energy    =      -2.1075308032817217 [Eh]
	 SCS Total Energy          =    -514.9947803057435749 [Eh]
	-----------------------------------------------------------

  Dipole Moment: [D]
     X:    -0.3183      Y:    -3.1122      Z:     2.6313     Total:     4.0879

*** Psi4 exiting successfully. Buy a developer a beer!
