                               Psi4 1.4a3.dev225

  ==> Input File <==

--------------------------------------------------------------------------
#psi4
#
memory 32 gb

molecule  {
0 1
  O       -2.1439760    -1.5096120     0.4578230
  O        1.6019480     1.2946100    -0.5777250
  O       -3.1849820    -0.0999640    -0.9818910
  N        0.1649120    -0.2715720     0.2333030
  C       -1.0212394     0.5195268    -0.1259983
  C       -1.3212480     1.5963590     0.9125160
  C        2.5597860    -0.6480590     0.5035240
  C        1.4183570     0.2162400    -0.0039080
  C       -2.2159370    -0.3767160    -0.3010400
  C        3.7806550    -0.5458820    -0.4040570
  H       -0.8075500     0.9861290    -1.0847450
  H        0.0342290    -1.1271740     0.7572540
  H       -1.5188550     1.1449870     1.8886910
  H       -0.4592110     2.2615650     0.9886780
  H       -2.1947650     2.1753270     0.6002850
  H        2.8115640    -0.2961200     1.5118980
  H        2.2315720    -1.6889350     0.6045970
  H        4.0689510     0.4992230    -0.5227640
  H        4.6219880    -1.1034150     0.0157220
  H        3.5611410    -0.9492480    -1.3958190
  H       -2.9864200    -1.9858630     0.3018850
units angstrom
no_reorient  #important for SAPT in psi4, default
symmetry c1  #important for SAPT in psi4, default
}

set PROPERTIES_ORIGIN ["COM"]
properties('MP2/aug-cc-pvtz', properties = ['dipole'])
--------------------------------------------------------------------------

    Molecular point group: c1
  Charge       = 0
  Multiplicity = 1
  Basis Set: AUG-CC-PVTZ
    Blend: AUG-CC-PVTZ
  Basis Set: (AUG-CC-PVTZ AUX)
    Blend: AUG-CC-PVTZ-JKFIT

    Orbital Energies [Eh]
    ---------------------

    Doubly Occupied:

       1A    -20.635031     2A    -20.565421     3A    -20.521870
       4A    -15.594991     5A    -11.404218     6A    -11.356075
       7A    -11.297037     8A    -11.247195     9A    -11.233797
      10A    -11.221445    11A     -1.477009    12A     -1.378259
      13A     -1.373220    14A     -1.241576    15A     -1.076863
      16A     -1.038386    17A     -0.929121    18A     -0.885405
      19A     -0.822001    20A     -0.792716    21A     -0.726872
      22A     -0.714680    23A     -0.679034    24A     -0.661994
      25A     -0.642807    26A     -0.628802    27A     -0.610125
      28A     -0.600870    29A     -0.592538    30A     -0.554565
      31A     -0.540936    32A     -0.534416    33A     -0.523007
      34A     -0.514032    35A     -0.497734    36A     -0.488432
      37A     -0.469607    38A     -0.426476    39A     -0.400873

  @DF-RHF Final Energy:  -512.88603484912824

   => Energetics <=

    Nuclear Repulsion Energy =            547.5730426080585858
    One-Electron Energy =               -1787.1192906896076238
    Two-Electron Energy =                 726.6602132324208014
    Total Energy =                       -512.8860348491282366
  Basis Set: (AUG-CC-PVTZ AUX)
    Blend: AUG-CC-PVTZ-RI
    Molecular point group: c1

    Geometry (in Angstrom), charge = 0, multiplicity = 1:

       Center              X                  Y                   Z               Mass
    ------------   -----------------  -----------------  -----------------  -----------------
         O           -2.078743438888    -1.511078500455     0.483253621784    15.994914619570
         O            1.667180561112     1.293143499545    -0.552294378216    15.994914619570
         O           -3.119749438888    -0.101430500455    -0.956460378216    15.994914619570
         N            0.230144561112    -0.273038500455     0.258733621784    14.003074004430
         C           -0.956006838888     0.518060299545    -0.100567678216    12.000000000000
         C           -1.256015438888     1.594892499545     0.937946621784    12.000000000000
         C            2.625018561112    -0.649525500455     0.528954621784    12.000000000000
         C            1.483589561112     0.214773499545     0.021522621784    12.000000000000
         C           -2.150704438888    -0.378182500455    -0.275609378216    12.000000000000
         C            3.845887561112    -0.547348500455    -0.378626378216    12.000000000000
         H           -0.742317438888     0.984662499545    -1.059314378216     1.007825032230
         H            0.099461561112    -1.128640500455     0.782684621784     1.007825032230
         H           -1.453622438888     1.143520499545     1.914121621784     1.007825032230
         H           -0.393978438888     2.260098499545     1.014108621784     1.007825032230
         H           -2.129532438888     2.173860499545     0.625715621784     1.007825032230
         H            2.876796561112    -0.297586500455     1.537328621784     1.007825032230
         H            2.296804561112    -1.690401500455     0.630027621784     1.007825032230
         H            4.134183561112     0.497756499545    -0.497333378216     1.007825032230
         H            4.687220561112    -1.104881500455     0.041152621784     1.007825032230
         H            3.626373561112    -0.950714500455    -1.370388378216     1.007825032230
         H           -2.921187438888    -1.987329500455     0.327315621784     1.007825032230

  Basis Set: AUG-CC-PVTZ
    Blend: AUG-CC-PVTZ
  Basis Set: (AUG-CC-PVTZ AUX)
    Blend: AUG-CC-PVTZ-JKFIT
	 Reference Energy          =    -512.8860348491282366 [Eh]
	 Singles Energy            =      -0.0000000000000000 [Eh]
	 Same-Spin Energy          =      -0.5110962970325610 [Eh]
	 Opposite-Spin Energy      =      -1.6151255039938319 [Eh]
	 Correlation Energy        =      -2.1262218010263929 [Eh]
	 Total Energy              =    -515.0122566501546544 [Eh]

	 ================> DF-SCS-MP2 Energies <==================
	-----------------------------------------------------------
	 SCS Same-Spin Scale       =       0.3333333333333333 [-]
	 SCS Opposite-Spin Scale   =       1.2000000000000000 [-]
	 SCS Same-Spin Energy      =      -0.1703654323441870 [Eh]
	 SCS Opposite-Spin Energy  =      -1.9381506047925983 [Eh]
	 SCS Correlation Energy    =      -2.1085160371367850 [Eh]
	 SCS Total Energy          =    -514.9945508862650740 [Eh]
	-----------------------------------------------------------

  Dipole Moment: [D]
     X:    -0.2761      Y:    -3.0166      Z:     2.6531     Total:     4.0268

*** Psi4 exiting successfully. Buy a developer a beer!
