                               Psi4 1.3.2 release

  ==> Input File <==

--------------------------------------------------------------------------
#psi4
#
memory 32 gb

molecule  {
0 1
  O       -1.9705880     1.6613530    -0.1848000
  O        1.6688240    -1.2224340     0.6437850
  O       -3.2913740    -0.0479250     0.4948630
  N        0.2417277     0.2261743    -0.2666557
  C       -0.9510770    -0.4970410     0.1176100
  C       -1.1968270    -1.6816620    -0.8184860
  C        2.5789920     0.8068070    -0.3378900
  C        1.4682490    -0.1481810     0.0706060
  C       -2.2185752     0.3232969     0.1987099
  C        3.9506640     0.3320720     0.1153760
  H       -0.7838570    -0.8897150     1.1288390
  H        0.0750270     1.1966100    -0.6451490
  H       -1.3515420    -1.3283180    -1.8408860
  H       -0.3238960    -2.3346980    -0.7915570
  H       -2.0788080    -2.2361410    -0.4923840
  H        2.5479870     0.9167430    -1.4288930
  H        2.3554820     1.7990610     0.0733550
  H        4.1782080    -0.6474400    -0.3069900
  H        4.7194550     1.0404130    -0.2050590
  H        3.9903360     0.2413970     1.2016820
  H       -2.8462050     2.0977190    -0.1239210
units angstrom
no_reorient  #important for SAPT in psi4, default
symmetry c1  #important for SAPT in psi4, default
}

set PROPERTIES_ORIGIN ["COM"]
properties('MP2/aug-cc-pvtz', properties = ['dipole'])
--------------------------------------------------------------------------

    Molecular point group: c1
  Charge       = 0
  Multiplicity = 1
  Basis Set: AUG-CC-PVTZ
    Blend: AUG-CC-PVTZ
  Basis Set: (AUG-CC-PVTZ AUX)
    Blend: AUG-CC-PVTZ-JKFIT

    Orbital Energies [Eh]
    ---------------------

    Doubly Occupied:

       1A    -20.624054     2A    -20.577064     3A    -20.515993
       4A    -15.595838     5A    -11.406326     6A    -11.349008
       7A    -11.299134     8A    -11.245741     9A    -11.228329
      10A    -11.218076    11A     -1.480549    12A     -1.385184
      13A     -1.379343    14A     -1.246735    15A     -1.078008
      16A     -1.037471    17A     -0.925834    18A     -0.884036
      19A     -0.805598    20A     -0.792465    21A     -0.731531
      22A     -0.715283    23A     -0.681979    24A     -0.666808
      25A     -0.641521    26A     -0.637379    27A     -0.614736
      28A     -0.598768    29A     -0.577967    30A     -0.548599
      31A     -0.547144    32A     -0.522875    33A     -0.521451
      34A     -0.517713    35A     -0.507500    36A     -0.489884
      37A     -0.470932    38A     -0.425024    39A     -0.399349

  @DF-RHF Final Energy:  -512.88018373864440

   => Energetics <=

    Nuclear Repulsion Energy =            548.4427393994545810
    One-Electron Energy =               -1788.8633912255468204
    Two-Electron Energy =                 727.5404680874477208
    Total Energy =                       -512.8801837386444049
  Basis Set: (AUG-CC-PVTZ AUX)
    Blend: AUG-CC-PVTZ-RI
    Molecular point group: c1

    Geometry (in Angstrom), charge = 0, multiplicity = 1:

       Center              X                  Y                   Z               Mass
    ------------   -----------------  -----------------  -----------------  -----------------
         O           -1.970962398147     1.668941855307    -0.186289022031    15.994914619570
         O            1.668449601853    -1.214845144693     0.642295977969    15.994914619570
         O           -3.291748398147    -0.040336144693     0.493373977969    15.994914619570
         N            0.241353301853     0.233763155307    -0.268144722031    14.003074004430
         C           -0.951451398147    -0.489452144693     0.116120977969    12.000000000000
         C           -1.197201398147    -1.674073144693    -0.819975022031    12.000000000000
         C            2.578617601853     0.814395855307    -0.339379022031    12.000000000000
         C            1.467874601853    -0.140592144693     0.069116977969    12.000000000000
         C           -2.218949598147     0.330885755307     0.197220877969    12.000000000000
         C            3.950289601853     0.339660855307     0.113886977969    12.000000000000
         H           -0.784231398147    -0.882126144693     1.127349977969     1.007825032230
         H            0.074652601853     1.204198855307    -0.646638022031     1.007825032230
         H           -1.351916398147    -1.320729144693    -1.842375022031     1.007825032230
         H           -0.324270398147    -2.327109144693    -0.793046022031     1.007825032230
         H           -2.079182398147    -2.228552144693    -0.493873022031     1.007825032230
         H            2.547612601853     0.924331855307    -1.430382022031     1.007825032230
         H            2.355107601853     1.806649855307     0.071865977969     1.007825032230
         H            4.177833601853    -0.639851144693    -0.308479022031     1.007825032230
         H            4.719080601853     1.048001855307    -0.206548022031     1.007825032230
         H            3.989961601853     0.248985855307     1.200192977969     1.007825032230
         H           -2.846579398147     2.105307855307    -0.125410022031     1.007825032230

  Basis Set: AUG-CC-PVTZ
    Blend: AUG-CC-PVTZ
  Basis Set: (AUG-CC-PVTZ AUX)
    Blend: AUG-CC-PVTZ-JKFIT
	 Reference Energy          =    -512.8801837386444049 [Eh]
	 Singles Energy            =      -0.0000000000000000 [Eh]
	 Same-Spin Energy          =      -0.5111186858886919 [Eh]
	 Opposite-Spin Energy      =      -1.6145215713505467 [Eh]
	 Correlation Energy        =      -2.1256402572392386 [Eh]
	 Total Energy              =    -515.0058239958835884 [Eh]

	 ================> DF-SCS-MP2 Energies <==================
	-----------------------------------------------------------
	 SCS Same-Spin Scale       =       0.3333333333333333 [-]
	 SCS Opposite-Spin Scale   =       1.2000000000000000 [-]
	 SCS Same-Spin Energy      =      -0.1703728952962306 [Eh]
	 SCS Opposite-Spin Energy  =      -1.9374258856206561 [Eh]
	 SCS Correlation Energy    =      -2.1077987809168865 [Eh]
	 SCS Total Energy          =    -514.9879825195613421 [Eh]
	-----------------------------------------------------------

  Dipole Moment: [D]
     X:    -0.5098      Y:     3.1290      Z:    -1.7771     Total:     3.6344

*** Psi4 exiting successfully. Buy a developer a beer!
