                               Psi4 1.3.2 release

  ==> Input File <==

--------------------------------------------------------------------------
#psi4
#
memory 32 gb

molecule  {
0 1
  O       -1.9705880     1.6613530    -0.1848000
  O        1.6688240    -1.2224340     0.6437850
  O       -3.2913740    -0.0479250     0.4948630
  N        0.2187125     0.2781502    -0.2747226
  C       -0.9510770    -0.4970410     0.1176100
  C       -1.1968270    -1.6816620    -0.8184860
  C        2.5699511     0.8149914    -0.3431238
  C        1.4682490    -0.1481810     0.0706060
  C       -2.1908320     0.3658730     0.1844680
  C        3.9506640     0.3320720     0.1153760
  H       -0.7838570    -0.8897150     1.1288390
  H        0.0750270     1.1966100    -0.6451490
  H       -1.3515420    -1.3283180    -1.8408860
  H       -0.3238960    -2.3346980    -0.7915570
  H       -2.0788080    -2.2361410    -0.4923840
  H        2.5479870     0.9167430    -1.4288930
  H        2.3554820     1.7990610     0.0733550
  H        4.1782080    -0.6474400    -0.3069900
  H        4.7194550     1.0404130    -0.2050590
  H        3.9903360     0.2413970     1.2016820
  H       -2.8462050     2.0977190    -0.1239210
units angstrom
no_reorient  #important for SAPT in psi4, default
symmetry c1  #important for SAPT in psi4, default
}

set PROPERTIES_ORIGIN ["COM"]
properties('MP2/aug-cc-pvtz', properties = ['dipole'])
--------------------------------------------------------------------------

    Molecular point group: c1
  Charge       = 0
  Multiplicity = 1
  Basis Set: AUG-CC-PVTZ
    Blend: AUG-CC-PVTZ
  Basis Set: (AUG-CC-PVTZ AUX)
    Blend: AUG-CC-PVTZ-JKFIT

    Orbital Energies [Eh]
    ---------------------

    Doubly Occupied:

       1A    -20.636635     2A    -20.564648     3A    -20.525444
       4A    -15.591139     5A    -11.405748     6A    -11.356123
       7A    -11.297861     8A    -11.245954     9A    -11.227249
      10A    -11.219708    11A     -1.478683    12A     -1.380459
      13A     -1.373892    14A     -1.245487    15A     -1.075113
      16A     -1.034558    17A     -0.928052    18A     -0.885636
      19A     -0.817334    20A     -0.794388    21A     -0.730244
      22A     -0.715186    23A     -0.681818    24A     -0.666222
      25A     -0.642171    26A     -0.634101    27A     -0.610657
      28A     -0.603448    29A     -0.580462    30A     -0.547103
      31A     -0.544104    32A     -0.522412    33A     -0.521519
      34A     -0.518148    35A     -0.498946    36A     -0.489621
      37A     -0.468449    38A     -0.428474    39A     -0.401210

  @DF-RHF Final Energy:  -512.88593928953651

   => Energetics <=

    Nuclear Repulsion Energy =            547.8504133487462013
    One-Electron Energy =               -1787.6958900465647275
    Two-Electron Energy =                 726.9595374082819035
    Total Energy =                       -512.8859392895365090
  Basis Set: (AUG-CC-PVTZ AUX)
    Blend: AUG-CC-PVTZ-RI
    Molecular point group: c1

    Geometry (in Angstrom), charge = 0, multiplicity = 1:

       Center              X                  Y                   Z               Mass
    ------------   -----------------  -----------------  -----------------  -----------------
         O           -1.970287873278     1.659726218059    -0.183899413605    15.994914619570
         O            1.669124126722    -1.224060781941     0.644685586395    15.994914619570
         O           -3.291073873278    -0.049551781941     0.495763586395    15.994914619570
         N            0.219012626722     0.276523418059    -0.273822013605    14.003074004430
         C           -0.950776873278    -0.498667781941     0.118510586395    12.000000000000
         C           -1.196526873278    -1.683288781941    -0.817585413605    12.000000000000
         C            2.570251226722     0.813364618059    -0.342223213605    12.000000000000
         C            1.468549126722    -0.149807781941     0.071506586395    12.000000000000
         C           -2.190531873278     0.364246218059     0.185368586395    12.000000000000
         C            3.950964126722     0.330445218059     0.116276586395    12.000000000000
         H           -0.783556873278    -0.891341781941     1.129739586395     1.007825032230
         H            0.075327126722     1.194983218059    -0.644248413605     1.007825032230
         H           -1.351241873278    -1.329944781941    -1.839985413605     1.007825032230
         H           -0.323595873278    -2.336324781941    -0.790656413605     1.007825032230
         H           -2.078507873278    -2.237767781941    -0.491483413605     1.007825032230
         H            2.548287126722     0.915116218059    -1.427992413605     1.007825032230
         H            2.355782126722     1.797434218059     0.074255586395     1.007825032230
         H            4.178508126722    -0.649066781941    -0.306089413605     1.007825032230
         H            4.719755126722     1.038786218059    -0.204158413605     1.007825032230
         H            3.990636126722     0.239770218059     1.202582586395     1.007825032230
         H           -2.845904873278     2.096092218059    -0.123020413605     1.007825032230

  Basis Set: AUG-CC-PVTZ
    Blend: AUG-CC-PVTZ
  Basis Set: (AUG-CC-PVTZ AUX)
    Blend: AUG-CC-PVTZ-JKFIT
	 Reference Energy          =    -512.8859392895365090 [Eh]
	 Singles Energy            =      -0.0000000000000000 [Eh]
	 Same-Spin Energy          =      -0.5111655850649517 [Eh]
	 Opposite-Spin Energy      =      -1.6148335417198538 [Eh]
	 Correlation Energy        =      -2.1259991267848055 [Eh]
	 Total Energy              =    -515.0119384163212999 [Eh]

	 ================> DF-SCS-MP2 Energies <==================
	-----------------------------------------------------------
	 SCS Same-Spin Scale       =       0.3333333333333333 [-]
	 SCS Opposite-Spin Scale   =       1.2000000000000000 [-]
	 SCS Same-Spin Energy      =      -0.1703885283549839 [Eh]
	 SCS Opposite-Spin Energy  =      -1.9378002500638245 [Eh]
	 SCS Correlation Energy    =      -2.1081887784188083 [Eh]
	 SCS Total Energy          =    -514.9941280679553302 [Eh]
	-----------------------------------------------------------

  Dipole Moment: [D]
     X:    -0.1201      Y:     3.3456      Z:    -1.8538     Total:     3.8268

*** Psi4 exiting successfully. Buy a developer a beer!
