                               Psi4 1.3.2 release

  ==> Input File <==

--------------------------------------------------------------------------
#psi4
#
memory 32 gb

molecule  {
0 1
  O       -1.9705880     1.6613530    -0.1848000
  O        1.6688240    -1.2224340     0.6437850
  O       -3.2913740    -0.0479250     0.4948630
  N        0.2234472     0.2879580    -0.2795409
  C       -0.9510770    -0.4970410     0.1176100
  C       -1.1968270    -1.6816620    -0.8184860
  C        2.5608264     0.8231025    -0.3483261
  C        1.4682490    -0.1481810     0.0706060
  C       -2.1908320     0.3658730     0.1844680
  C        3.9506640     0.3320720     0.1153760
  H       -0.7838570    -0.8897150     1.1288390
  H        0.0750270     1.1966100    -0.6451490
  H       -1.3515420    -1.3283180    -1.8408860
  H       -0.3238960    -2.3346980    -0.7915570
  H       -2.0788080    -2.2361410    -0.4923840
  H        2.5479870     0.9167430    -1.4288930
  H        2.3554820     1.7990610     0.0733550
  H        4.1782080    -0.6474400    -0.3069900
  H        4.7194550     1.0404130    -0.2050590
  H        3.9903360     0.2413970     1.2016820
  H       -2.8462050     2.0977190    -0.1239210
units angstrom
no_reorient  #important for SAPT in psi4, default
symmetry c1  #important for SAPT in psi4, default
}

set PROPERTIES_ORIGIN ["COM"]
properties('MP2/aug-cc-pvtz', properties = ['dipole'])
--------------------------------------------------------------------------

    Molecular point group: c1
  Charge       = 0
  Multiplicity = 1
  Basis Set: AUG-CC-PVTZ
    Blend: AUG-CC-PVTZ
  Basis Set: (AUG-CC-PVTZ AUX)
    Blend: AUG-CC-PVTZ-JKFIT

    Orbital Energies [Eh]
    ---------------------

    Doubly Occupied:

       1A    -20.636639     2A    -20.564691     3A    -20.526289
       4A    -15.590661     5A    -11.405742     6A    -11.356388
       7A    -11.298534     8A    -11.244706     9A    -11.227648
      10A    -11.219836    11A     -1.478685    12A     -1.380390
      13A     -1.373932    14A     -1.244986    15A     -1.074790
      16A     -1.033345    17A     -0.927835    18A     -0.885398
      19A     -0.817920    20A     -0.796059    21A     -0.729440
      22A     -0.715570    23A     -0.680809    24A     -0.666353
      25A     -0.642997    26A     -0.634282    27A     -0.610743
      28A     -0.604103    29A     -0.579891    30A     -0.547048
      31A     -0.543796    32A     -0.522309    33A     -0.521699
      34A     -0.514395    35A     -0.500247    36A     -0.490450
      37A     -0.468427    38A     -0.428653    39A     -0.402249

  @DF-RHF Final Energy:  -512.88499139291991

   => Energetics <=

    Nuclear Repulsion Energy =            547.6702942285118070
    One-Electron Energy =               -1787.3347052415574581
    Two-Electron Energy =                 726.7794196201256227
    Total Energy =                       -512.8849913929199147
  Basis Set: (AUG-CC-PVTZ AUX)
    Blend: AUG-CC-PVTZ-RI
    Molecular point group: c1

    Geometry (in Angstrom), charge = 0, multiplicity = 1:

       Center              X                  Y                   Z               Mass
    ------------   -----------------  -----------------  -----------------  -----------------
         O           -1.969990121253     1.658108611031    -0.183004017414    15.994914619570
         O            1.669421878747    -1.225678388969     0.645580982586    15.994914619570
         O           -3.290776121253    -0.051169388969     0.496658982586    15.994914619570
         N            0.224045078747     0.284713611031    -0.277744917414    14.003074004430
         C           -0.950479121253    -0.500285388969     0.119405982586    12.000000000000
         C           -1.196229121253    -1.684906388969    -0.816690017414    12.000000000000
         C            2.561424278747     0.819858111031    -0.346530117414    12.000000000000
         C            1.468846878747    -0.151425388969     0.072401982586    12.000000000000
         C           -2.190234121253     0.362628611031     0.186263982586    12.000000000000
         C            3.951261878747     0.328827611031     0.117171982586    12.000000000000
         H           -0.783259121253    -0.892959388969     1.130634982586     1.007825032230
         H            0.075624878747     1.193365611031    -0.643353017414     1.007825032230
         H           -1.350944121253    -1.331562388969    -1.839090017414     1.007825032230
         H           -0.323298121253    -2.337942388969    -0.789761017414     1.007825032230
         H           -2.078210121253    -2.239385388969    -0.490588017414     1.007825032230
         H            2.548584878747     0.913498611031    -1.427097017414     1.007825032230
         H            2.356079878747     1.795816611031     0.075150982586     1.007825032230
         H            4.178805878747    -0.650684388969    -0.305194017414     1.007825032230
         H            4.720052878747     1.037168611031    -0.203263017414     1.007825032230
         H            3.990933878747     0.238152611031     1.203477982586     1.007825032230
         H           -2.845607121253     2.094474611031    -0.122125017414     1.007825032230

  Basis Set: AUG-CC-PVTZ
    Blend: AUG-CC-PVTZ
  Basis Set: (AUG-CC-PVTZ AUX)
    Blend: AUG-CC-PVTZ-JKFIT
	 Reference Energy          =    -512.8849913929199147 [Eh]
	 Singles Energy            =      -0.0000000000000000 [Eh]
	 Same-Spin Energy          =      -0.5110360708290462 [Eh]
	 Opposite-Spin Energy      =      -1.6147935056373659 [Eh]
	 Correlation Energy        =      -2.1258295764664119 [Eh]
	 Total Energy              =    -515.0108209693863728 [Eh]

	 ================> DF-SCS-MP2 Energies <==================
	-----------------------------------------------------------
	 SCS Same-Spin Scale       =       0.3333333333333333 [-]
	 SCS Opposite-Spin Scale   =       1.2000000000000000 [-]
	 SCS Same-Spin Energy      =      -0.1703453569430154 [Eh]
	 SCS Opposite-Spin Energy  =      -1.9377522067648389 [Eh]
	 SCS Correlation Energy    =      -2.1080975637078545 [Eh]
	 SCS Total Energy          =    -514.9930889566277301 [Eh]
	-----------------------------------------------------------

  Dipole Moment: [D]
     X:    -0.1468      Y:     3.3224      Z:    -1.8473     Total:     3.8043

*** Psi4 exiting successfully. Buy a developer a beer!
