                               Psi4 1.3.2 release

  ==> Input File <==

--------------------------------------------------------------------------
#psi4
#
memory 32 gb

molecule  {
0 1
  O       -1.9705880     1.6613530    -0.1848000
  O        1.6899569    -1.2182799     0.6437709
  O       -3.2913740    -0.0479250     0.4948630
  N        0.2234101     0.2881594    -0.2791577
  C       -0.9510770    -0.4970410     0.1176100
  C       -1.1968270    -1.6816620    -0.8184860
  C        2.5789920     0.8068070    -0.3378900
  C        1.4682490    -0.1481810     0.0706060
  C       -2.1908320     0.3658730     0.1844680
  C        3.9506640     0.3320720     0.1153760
  H       -0.7838570    -0.8897150     1.1288390
  H        0.0750270     1.1966100    -0.6451490
  H       -1.3515420    -1.3283180    -1.8408860
  H       -0.3238960    -2.3346980    -0.7915570
  H       -2.0788080    -2.2361410    -0.4923840
  H        2.5479870     0.9167430    -1.4288930
  H        2.3554820     1.7990610     0.0733550
  H        4.1782080    -0.6474400    -0.3069900
  H        4.7194550     1.0404130    -0.2050590
  H        3.9903360     0.2413970     1.2016820
  H       -2.8462050     2.0977190    -0.1239210
units angstrom
no_reorient  #important for SAPT in psi4, default
symmetry c1  #important for SAPT in psi4, default
}

set PROPERTIES_ORIGIN ["COM"]
properties('MP2/aug-cc-pvtz', properties = ['dipole'])
--------------------------------------------------------------------------

    Molecular point group: c1
  Charge       = 0
  Multiplicity = 1
  Basis Set: AUG-CC-PVTZ
    Blend: AUG-CC-PVTZ
  Basis Set: (AUG-CC-PVTZ AUX)
    Blend: AUG-CC-PVTZ-JKFIT

    Orbital Energies [Eh]
    ---------------------

    Doubly Occupied:

       1A    -20.637120     2A    -20.565236     3A    -20.525853
       4A    -15.592013     5A    -11.406356     6A    -11.356188
       7A    -11.299535     8A    -11.244874     9A    -11.228302
      10A    -11.218061    11A     -1.479188    12A     -1.379988
      13A     -1.374433    14A     -1.246165    15A     -1.075180
      16A     -1.035825    17A     -0.928545    18A     -0.884820
      19A     -0.818632    20A     -0.795651    21A     -0.728972
      22A     -0.716051    23A     -0.681244    24A     -0.666907
      25A     -0.640736    26A     -0.634340    27A     -0.611474
      28A     -0.604155    29A     -0.580519    30A     -0.548003
      31A     -0.544886    32A     -0.522580    33A     -0.521686
      34A     -0.518595    35A     -0.497559    36A     -0.488668
      37A     -0.469078    38A     -0.427505    39A     -0.403014

  @DF-RHF Final Energy:  -512.88548180665623

   => Energetics <=

    Nuclear Repulsion Energy =            547.6230345764097365
    One-Electron Energy =               -1787.2211549964456481
    Two-Electron Energy =                 726.7126386133796814
    Total Energy =                       -512.8854818066562302
  Basis Set: (AUG-CC-PVTZ AUX)
    Blend: AUG-CC-PVTZ-RI
    Molecular point group: c1

    Geometry (in Angstrom), charge = 0, multiplicity = 1:

       Center              X                  Y                   Z               Mass
    ------------   -----------------  -----------------  -----------------  -----------------
         O           -1.973819112154     1.658979072995    -0.183902688062    15.994914619570
         O            1.686725787846    -1.220653827005     0.644668211938    15.994914619570
         O           -3.294605112154    -0.050298927005     0.495760311938    15.994914619570
         N            0.220178987846     0.285785472995    -0.278260388062    14.003074004430
         C           -0.954308112154    -0.499414927005     0.118507311938    12.000000000000
         C           -1.200058112154    -1.684035927005    -0.817588688062    12.000000000000
         C            2.575760887846     0.804433072995    -0.336992688062    12.000000000000
         C            1.465017887846    -0.150554927005     0.071503311938    12.000000000000
         C           -2.194063112154     0.363499072995     0.185365311938    12.000000000000
         C            3.947432887846     0.329698072995     0.116273311938    12.000000000000
         H           -0.787088112154    -0.892088927005     1.129736311938     1.007825032230
         H            0.071795887846     1.194236072995    -0.644251688062     1.007825032230
         H           -1.354773112154    -1.330691927005    -1.839988688062     1.007825032230
         H           -0.327127112154    -2.337071927005    -0.790659688062     1.007825032230
         H           -2.082039112154    -2.238514927005    -0.491486688062     1.007825032230
         H            2.544755887846     0.914369072995    -1.427995688062     1.007825032230
         H            2.352250887846     1.796687072995     0.074252311938     1.007825032230
         H            4.174976887846    -0.649813927005    -0.306092688062     1.007825032230
         H            4.716223887846     1.038039072995    -0.204161688062     1.007825032230
         H            3.987104887846     0.239023072995     1.202579311938     1.007825032230
         H           -2.849436112154     2.095345072995    -0.123023688062     1.007825032230

  Basis Set: AUG-CC-PVTZ
    Blend: AUG-CC-PVTZ
  Basis Set: (AUG-CC-PVTZ AUX)
    Blend: AUG-CC-PVTZ-JKFIT
	 Reference Energy          =    -512.8854818066562302 [Eh]
	 Singles Energy            =      -0.0000000000000000 [Eh]
	 Same-Spin Energy          =      -0.5110967190926918 [Eh]
	 Opposite-Spin Energy      =      -1.6147659751286083 [Eh]
	 Correlation Energy        =      -2.1258626942213001 [Eh]
	 Total Energy              =    -515.0113445008774988 [Eh]

	 ================> DF-SCS-MP2 Energies <==================
	-----------------------------------------------------------
	 SCS Same-Spin Scale       =       0.3333333333333333 [-]
	 SCS Opposite-Spin Scale   =       1.2000000000000000 [-]
	 SCS Same-Spin Energy      =      -0.1703655730308973 [Eh]
	 SCS Opposite-Spin Energy  =      -1.9377191701543299 [Eh]
	 SCS Correlation Energy    =      -2.1080847431852270 [Eh]
	 SCS Total Energy          =    -514.9935665498414892 [Eh]
	-----------------------------------------------------------

  Dipole Moment: [D]
     X:    -0.2101      Y:     3.3030      Z:    -1.8450     Total:     3.7892

*** Psi4 exiting successfully. Buy a developer a beer!
