                               Psi4 1.3.2 release

  ==> Input File <==

--------------------------------------------------------------------------
#psi4
#
memory 32 gb

molecule  {
0 1
  O       -1.9705880     1.6613530    -0.1848000
  O        1.6688240    -1.2224340     0.6437850
  O       -3.2913740    -0.0479250     0.4948630
  N        0.2433302     0.3268495    -0.2985437
  C       -0.9510770    -0.4970410     0.1176100
  C       -1.1968270    -1.6816620    -0.8184860
  C        2.5235023     0.8548011    -0.3688124
  C        1.4682490    -0.1481810     0.0706060
  C       -2.1908320     0.3658730     0.1844680
  C        3.9506640     0.3320720     0.1153760
  H       -0.7838570    -0.8897150     1.1288390
  H        0.0750270     1.1966100    -0.6451490
  H       -1.3515420    -1.3283180    -1.8408860
  H       -0.3238960    -2.3346980    -0.7915570
  H       -2.0788080    -2.2361410    -0.4923840
  H        2.5479870     0.9167430    -1.4288930
  H        2.3554820     1.7990610     0.0733550
  H        4.1782080    -0.6474400    -0.3069900
  H        4.7194550     1.0404130    -0.2050590
  H        3.9903360     0.2413970     1.2016820
  H       -2.8462050     2.0977190    -0.1239210
units angstrom
no_reorient  #important for SAPT in psi4, default
symmetry c1  #important for SAPT in psi4, default
}

set PROPERTIES_ORIGIN ["COM"]
properties('MP2/aug-cc-pvtz', properties = ['dipole'])
--------------------------------------------------------------------------

    Molecular point group: c1
  Charge       = 0
  Multiplicity = 1
  Basis Set: AUG-CC-PVTZ
    Blend: AUG-CC-PVTZ
  Basis Set: (AUG-CC-PVTZ AUX)
    Blend: AUG-CC-PVTZ-JKFIT

    Orbital Energies [Eh]
    ---------------------

    Doubly Occupied:

       1A    -20.636634     2A    -20.564858     3A    -20.529795
       4A    -15.588817     5A    -11.405731     6A    -11.357950
       7A    -11.301130     8A    -11.240363     9A    -11.229210
      10A    -11.220282    11A     -1.478672    12A     -1.380454
      13A     -1.374078    14A     -1.244095    15A     -1.074116
      16A     -1.028603    17A     -0.927036    18A     -0.884981
      19A     -0.822659    20A     -0.801331    21A     -0.726365
      22A     -0.716929    23A     -0.676901    24A     -0.666776
      25A     -0.647185    26A     -0.634963    27A     -0.612093
      28A     -0.605681    29A     -0.577157    30A     -0.547299
      31A     -0.543003    32A     -0.523432    33A     -0.522669
      34A     -0.506111    35A     -0.496576    36A     -0.492114
      37A     -0.468017    38A     -0.428447    39A     -0.406316

  @DF-RHF Final Energy:  -512.87299221139278

   => Energetics <=

    Nuclear Repulsion Energy =            546.9859927164487772
    One-Electron Energy =               -1785.9403078492957775
    Two-Electron Energy =                 726.0813229214543298
    Total Energy =                       -512.8729922113927842
  Basis Set: (AUG-CC-PVTZ AUX)
    Blend: AUG-CC-PVTZ-RI
    Molecular point group: c1

    Geometry (in Angstrom), charge = 0, multiplicity = 1:

       Center              X                  Y                   Z               Mass
    ------------   -----------------  -----------------  -----------------  -----------------
         O           -1.968821984962     1.651732661974    -0.179475241813    15.994914619570
         O            1.670590015038    -1.232054338026     0.649109758187    15.994914619570
         O           -3.289607984962    -0.057545338026     0.500187758187    15.994914619570
         N            0.245096215038     0.317229161974    -0.293218941813    14.003074004430
         C           -0.949310984962    -0.506661338026     0.122934758187    12.000000000000
         C           -1.195060984962    -1.691282338026    -0.813161241813    12.000000000000
         C            2.525268315038     0.845180761974    -0.363487641813    12.000000000000
         C            1.470015015038    -0.157801338026     0.075930758187    12.000000000000
         C           -2.189065984962     0.356252661974     0.189792758187    12.000000000000
         C            3.952430015038     0.322451661974     0.120700758187    12.000000000000
         H           -0.782090984962    -0.899335338026     1.134163758187     1.007825032230
         H            0.076793015038     1.186989661974    -0.639824241813     1.007825032230
         H           -1.349775984962    -1.337938338026    -1.835561241813     1.007825032230
         H           -0.322129984962    -2.344318338026    -0.786232241813     1.007825032230
         H           -2.077041984962    -2.245761338026    -0.487059241813     1.007825032230
         H            2.549753015038     0.907122661974    -1.423568241813     1.007825032230
         H            2.357248015038     1.789440661974     0.078679758187     1.007825032230
         H            4.179974015038    -0.657060338026    -0.301665241813     1.007825032230
         H            4.721221015038     1.030792661974    -0.199734241813     1.007825032230
         H            3.992102015038     0.231776661974     1.207006758187     1.007825032230
         H           -2.844438984962     2.088098661974    -0.118596241813     1.007825032230

  Basis Set: AUG-CC-PVTZ
    Blend: AUG-CC-PVTZ
  Basis Set: (AUG-CC-PVTZ AUX)
    Blend: AUG-CC-PVTZ-JKFIT
	 Reference Energy          =    -512.8729922113927842 [Eh]
	 Singles Energy            =      -0.0000000000000000 [Eh]
	 Same-Spin Energy          =      -0.5107976368012241 [Eh]
	 Opposite-Spin Energy      =      -1.6152341766824718 [Eh]
	 Correlation Energy        =      -2.1260318134836957 [Eh]
	 Total Energy              =    -514.9990240248764621 [Eh]

	 ================> DF-SCS-MP2 Energies <==================
	-----------------------------------------------------------
	 SCS Same-Spin Scale       =       0.3333333333333333 [-]
	 SCS Opposite-Spin Scale   =       1.2000000000000000 [-]
	 SCS Same-Spin Energy      =      -0.1702658789337414 [Eh]
	 SCS Opposite-Spin Energy  =      -1.9382810120189662 [Eh]
	 SCS Correlation Energy    =      -2.1085468909527076 [Eh]
	 SCS Total Energy          =    -514.9815391023454367 [Eh]
	-----------------------------------------------------------

  Dipole Moment: [D]
     X:    -0.2471      Y:     3.2268      Z:    -1.8190     Total:     3.7124

*** Psi4 exiting successfully. Buy a developer a beer!
