                               Psi4 1.3.2 release

  ==> Input File <==

--------------------------------------------------------------------------
#psi4
#
memory 32 gb

molecule  {
0 1
  O       -1.9705880     1.6613530    -0.1848000
  O        1.6263134    -1.2293663     0.6440500
  O       -3.2913740    -0.0479250     0.4948630
  N        0.2140730     0.2683100    -0.2698780
  C       -0.9510770    -0.4970410     0.1176100
  C       -1.1968270    -1.6816620    -0.8184860
  C        2.5422534     0.8395603    -0.3577664
  C        1.4682490    -0.1481810     0.0706060
  C       -2.1908320     0.3658730     0.1844680
  C        3.9506640     0.3320720     0.1153760
  H       -0.7838570    -0.8897150     1.1288390
  H        0.0750270     1.1966100    -0.6451490
  H       -1.3515420    -1.3283180    -1.8408860
  H       -0.3238960    -2.3346980    -0.7915570
  H       -2.0788080    -2.2361410    -0.4923840
  H        2.5479870     0.9167430    -1.4288930
  H        2.3554820     1.7990610     0.0733550
  H        4.1782080    -0.6474400    -0.3069900
  H        4.7194550     1.0404130    -0.2050590
  H        3.9903360     0.2413970     1.2016820
  H       -2.8462050     2.0977190    -0.1239210
units angstrom
no_reorient  #important for SAPT in psi4, default
symmetry c1  #important for SAPT in psi4, default
}

set PROPERTIES_ORIGIN ["COM"]
properties('MP2/aug-cc-pvtz', properties = ['dipole'])
--------------------------------------------------------------------------

    Molecular point group: c1
  Charge       = 0
  Multiplicity = 1
  Basis Set: AUG-CC-PVTZ
    Blend: AUG-CC-PVTZ
  Basis Set: (AUG-CC-PVTZ AUX)
    Blend: AUG-CC-PVTZ-JKFIT

    Orbital Energies [Eh]
    ---------------------

    Doubly Occupied:

       1A    -20.635637     2A    -20.563501     3A    -20.525428
       4A    -15.588866     5A    -11.404511     6A    -11.356429
       7A    -11.295178     8A    -11.247083     9A    -11.225575
      10A    -11.223132    11A     -1.477650    12A     -1.381614
      13A     -1.372822    14A     -1.243613    15A     -1.074809
      16A     -1.031040    17A     -0.926886    18A     -0.887076
      19A     -0.815850    20A     -0.793252    21A     -0.731772
      22A     -0.713768    23A     -0.682034    24A     -0.665131
      25A     -0.646409    26A     -0.633729    27A     -0.609289
      28A     -0.602614    29A     -0.579862    30A     -0.545516
      31A     -0.542510    32A     -0.525082    33A     -0.522176
      34A     -0.509686    35A     -0.503623    36A     -0.490330
      37A     -0.467129    38A     -0.429993    39A     -0.398560

  @DF-RHF Final Energy:  -512.88282131131552

   => Energetics <=

    Nuclear Repulsion Energy =            548.1694173385844806
    One-Electron Energy =               -1788.3661524369049403
    Two-Electron Energy =                 727.3139137870049353
    Total Energy =                       -512.8828213113155243
  Basis Set: (AUG-CC-PVTZ AUX)
    Blend: AUG-CC-PVTZ-RI
    Molecular point group: c1

    Geometry (in Angstrom), charge = 0, multiplicity = 1:

       Center              X                  Y                   Z               Mass
    ------------   -----------------  -----------------  -----------------  -----------------
         O           -1.962862050097     1.659408089114    -0.183185065537    15.994914619570
         O            1.634039349903    -1.231311210886     0.645664934463    15.994914619570
         O           -3.283648050097    -0.049869910886     0.496477934463    15.994914619570
         N            0.221798949903     0.266365089114    -0.268263065537    14.003074004430
         C           -0.943351050097    -0.498985910886     0.119224934463    12.000000000000
         C           -1.189101050097    -1.683606910886    -0.816871065537    12.000000000000
         C            2.549979349903     0.837615389114    -0.356151465537    12.000000000000
         C            1.475974949903    -0.150125910886     0.072220934463    12.000000000000
         C           -2.183106050097     0.363928089114     0.186082934463    12.000000000000
         C            3.958389949903     0.330127089114     0.116990934463    12.000000000000
         H           -0.776131050097    -0.891659910886     1.130453934463     1.007825032230
         H            0.082752949903     1.194665089114    -0.643534065537     1.007825032230
         H           -1.343816050097    -1.330262910886    -1.839271065537     1.007825032230
         H           -0.316170050097    -2.336642910886    -0.789942065537     1.007825032230
         H           -2.071082050097    -2.238085910886    -0.490769065537     1.007825032230
         H            2.555712949903     0.914798089114    -1.427278065537     1.007825032230
         H            2.363207949903     1.797116089114     0.074969934463     1.007825032230
         H            4.185933949903    -0.649384910886    -0.305375065537     1.007825032230
         H            4.727180949903     1.038468089114    -0.203444065537     1.007825032230
         H            3.998061949903     0.239452089114     1.203296934463     1.007825032230
         H           -2.838479050097     2.095774089114    -0.122306065537     1.007825032230

  Basis Set: AUG-CC-PVTZ
    Blend: AUG-CC-PVTZ
  Basis Set: (AUG-CC-PVTZ AUX)
    Blend: AUG-CC-PVTZ-JKFIT
	 Reference Energy          =    -512.8828213113155243 [Eh]
	 Singles Energy            =      -0.0000000000000000 [Eh]
	 Same-Spin Energy          =      -0.5112889931898564 [Eh]
	 Opposite-Spin Energy      =      -1.6151602525405813 [Eh]
	 Correlation Energy        =      -2.1264492457304378 [Eh]
	 Total Energy              =    -515.0092705570459657 [Eh]

	 ================> DF-SCS-MP2 Energies <==================
	-----------------------------------------------------------
	 SCS Same-Spin Scale       =       0.3333333333333333 [-]
	 SCS Opposite-Spin Scale   =       1.2000000000000000 [-]
	 SCS Same-Spin Energy      =      -0.1704296643966188 [Eh]
	 SCS Opposite-Spin Energy  =      -1.9381923030486974 [Eh]
	 SCS Correlation Energy    =      -2.1086219674453162 [Eh]
	 SCS Total Energy          =    -514.9914432787608121 [Eh]
	-----------------------------------------------------------

  Dipole Moment: [D]
     X:     0.0359      Y:     3.4002      Z:    -1.8637     Total:     3.8776

*** Psi4 exiting successfully. Buy a developer a beer!
