                               Psi4 1.3.2 release

  ==> Input File <==

--------------------------------------------------------------------------
#psi4
#
memory 32 gb

molecule  {
0 1
  O       -1.9705880     1.6613530    -0.1848000
  O        1.6688240    -1.2224340     0.6437850
  O       -3.2913740    -0.0479250     0.4948630
  N        0.2140730     0.2683100    -0.2698780
  C       -0.9510770    -0.4970410     0.1176100
  C       -1.1968270    -1.6816620    -0.8184860
  C        2.5789920     0.8068070    -0.3378900
  C        1.4682490    -0.1481810     0.0706060
  C       -2.2023686     0.3683525     0.1860937
  C        3.9506640     0.3320720     0.1153760
  H       -0.7838570    -0.8897150     1.1288390
  H        0.0750270     1.1966100    -0.6451490
  H       -1.3515420    -1.3283180    -1.8408860
  H       -0.3238960    -2.3346980    -0.7915570
  H       -2.0788080    -2.2361410    -0.4923840
  H        2.5479870     0.9167430    -1.4288930
  H        2.3554820     1.7990610     0.0733550
  H        4.1782080    -0.6474400    -0.3069900
  H        4.7194550     1.0404130    -0.2050590
  H        3.9903360     0.2413970     1.2016820
  H       -2.8496725     2.0903231    -0.1213818
units angstrom
no_reorient  #important for SAPT in psi4, default
symmetry c1  #important for SAPT in psi4, default
}

set PROPERTIES_ORIGIN ["COM"]
properties('MP2/aug-cc-pvtz', properties = ['dipole'])
--------------------------------------------------------------------------

    Molecular point group: c1
  Charge       = 0
  Multiplicity = 1
  Basis Set: AUG-CC-PVTZ
    Blend: AUG-CC-PVTZ
  Basis Set: (AUG-CC-PVTZ AUX)
    Blend: AUG-CC-PVTZ-JKFIT

    Orbital Energies [Eh]
    ---------------------

    Doubly Occupied:

       1A    -20.636585     2A    -20.566255     3A    -20.524117
       4A    -15.591036     5A    -11.404749     6A    -11.355437
       7A    -11.296574     8A    -11.246926     9A    -11.226127
      10A    -11.219315    11A     -1.481207    12A     -1.380712
      13A     -1.379013    14A     -1.245091    15A     -1.074232
      16A     -1.034603    17A     -0.926391    18A     -0.885053
      19A     -0.815512    20A     -0.792257    21A     -0.730769
      22A     -0.716455    23A     -0.682444    24A     -0.666383
      25A     -0.641581    26A     -0.635368    27A     -0.611611
      28A     -0.602537    29A     -0.580484    30A     -0.546768
      31A     -0.544671    32A     -0.524063    33A     -0.521098
      34A     -0.519541    35A     -0.499881    36A     -0.489246
      37A     -0.468013    38A     -0.427743    39A     -0.399505

  @DF-RHF Final Energy:  -512.88672651590423

   => Energetics <=

    Nuclear Repulsion Energy =            548.0008665952636875
    One-Electron Energy =               -1787.9964798322644128
    Two-Electron Energy =                 727.1088867210964963
    Total Energy =                       -512.8867265159042290
  Basis Set: (AUG-CC-PVTZ AUX)
    Blend: AUG-CC-PVTZ-RI
    Molecular point group: c1

    Geometry (in Angstrom), charge = 0, multiplicity = 1:

       Center              X                  Y                   Z               Mass
    ------------   -----------------  -----------------  -----------------  -----------------
         O           -1.969609527278     1.661199299240    -0.184952065866    15.994914619570
         O            1.669802472722    -1.222587700760     0.643632934134    15.994914619570
         O           -3.290395527278    -0.048078700760     0.494710934134    15.994914619570
         N            0.215051472722     0.268156299240    -0.270030065866    14.003074004430
         C           -0.950098527278    -0.497194700760     0.117457934134    12.000000000000
         C           -1.195848527278    -1.681815700760    -0.818638065866    12.000000000000
         C            2.579970472722     0.806653299240    -0.338042065866    12.000000000000
         C            1.469227472722    -0.148334700760     0.070453934134    12.000000000000
         C           -2.201390127278     0.368198799240     0.185941634134    12.000000000000
         C            3.951642472722     0.331918299240     0.115223934134    12.000000000000
         H           -0.782878527278    -0.889868700760     1.128686934134     1.007825032230
         H            0.076005472722     1.196456299240    -0.645301065866     1.007825032230
         H           -1.350563527278    -1.328471700760    -1.841038065866     1.007825032230
         H           -0.322917527278    -2.334851700760    -0.791709065866     1.007825032230
         H           -2.077829527278    -2.236294700760    -0.492536065866     1.007825032230
         H            2.548965472722     0.916589299240    -1.429045065866     1.007825032230
         H            2.356460472722     1.798907299240     0.073202934134     1.007825032230
         H            4.179186472722    -0.647593700760    -0.307142065866     1.007825032230
         H            4.720433472722     1.040259299240    -0.205211065866     1.007825032230
         H            3.991314472722     0.241243299240     1.201529934134     1.007825032230
         H           -2.848694027278     2.090169399240    -0.121533865866     1.007825032230

  Basis Set: AUG-CC-PVTZ
    Blend: AUG-CC-PVTZ
  Basis Set: (AUG-CC-PVTZ AUX)
    Blend: AUG-CC-PVTZ-JKFIT
	 Reference Energy          =    -512.8867265159042290 [Eh]
	 Singles Energy            =      -0.0000000000000000 [Eh]
	 Same-Spin Energy          =      -0.5110976162179437 [Eh]
	 Opposite-Spin Energy      =      -1.6144956087961650 [Eh]
	 Correlation Energy        =      -2.1255932250141090 [Eh]
	 Total Energy              =    -515.0123197409183149 [Eh]

	 ================> DF-SCS-MP2 Energies <==================
	-----------------------------------------------------------
	 SCS Same-Spin Scale       =       0.3333333333333333 [-]
	 SCS Opposite-Spin Scale   =       1.2000000000000000 [-]
	 SCS Same-Spin Energy      =      -0.1703658720726479 [Eh]
	 SCS Opposite-Spin Energy  =      -1.9373947305553980 [Eh]
	 SCS Correlation Energy    =      -2.1077606026280460 [Eh]
	 SCS Total Energy          =    -514.9944871185322199 [Eh]
	-----------------------------------------------------------

  Dipole Moment: [D]
     X:    -0.1683      Y:     3.3672      Z:    -1.8409     Total:     3.8413

*** Psi4 exiting successfully. Buy a developer a beer!
