                               Psi4 1.3.2 release

  ==> Input File <==

--------------------------------------------------------------------------
#psi4
#
memory 32 gb

molecule  {
0 1
  O       -1.9705880     1.6613530    -0.1848000
  O        1.6688240    -1.2224340     0.6437850
  O       -3.2913740    -0.0479250     0.4948630
  N        0.2140730     0.2683100    -0.2698780
  C       -0.9510770    -0.4970410     0.1176100
  C       -1.1968270    -1.6816620    -0.8184860
  C        2.5789920     0.8068070    -0.3378900
  C        1.4331652    -0.1158574     0.0473275
  C       -2.1908320     0.3658730     0.1844680
  C        3.9719532     0.3752978     0.0931164
  H       -0.7838570    -0.8897150     1.1288390
  H        0.0750270     1.1966100    -0.6451490
  H       -1.3515420    -1.3283180    -1.8408860
  H       -0.3238960    -2.3346980    -0.7915570
  H       -2.0788080    -2.2361410    -0.4923840
  H        2.5479870     0.9167430    -1.4288930
  H        2.3554820     1.7990610     0.0733550
  H        4.1782080    -0.6474400    -0.3069900
  H        4.7194550     1.0404130    -0.2050590
  H        3.9903360     0.2413970     1.2016820
  H       -2.8462050     2.0977190    -0.1239210
units angstrom
no_reorient  #important for SAPT in psi4, default
symmetry c1  #important for SAPT in psi4, default
}

set PROPERTIES_ORIGIN ["COM"]
properties('MP2/aug-cc-pvtz', properties = ['dipole'])
--------------------------------------------------------------------------

    Molecular point group: c1
  Charge       = 0
  Multiplicity = 1
  Basis Set: AUG-CC-PVTZ
    Blend: AUG-CC-PVTZ
  Basis Set: (AUG-CC-PVTZ AUX)
    Blend: AUG-CC-PVTZ-JKFIT

    Orbital Energies [Eh]
    ---------------------

    Doubly Occupied:

       1A    -20.640014     2A    -20.567867     3A    -20.512880
       4A    -15.602107     5A    -11.409416     6A    -11.355213
       7A    -11.302386     8A    -11.247744     9A    -11.229701
      10A    -11.218931    11A     -1.482127    12A     -1.377241
      13A     -1.359421    14A     -1.252448    15A     -1.080039
      16A     -1.038918    17A     -0.932928    18A     -0.888468
      19A     -0.821731    20A     -0.803734    21A     -0.736083
      22A     -0.717972    23A     -0.681423    24A     -0.668087
      25A     -0.639893    26A     -0.634456    27A     -0.614285
      28A     -0.595303    29A     -0.580957    30A     -0.554292
      31A     -0.546538    32A     -0.530924    33A     -0.516775
      34A     -0.511368    35A     -0.495997    36A     -0.479251
      37A     -0.471029    38A     -0.421370    39A     -0.400472

  @DF-RHF Final Energy:  -512.87556595101182

   => Energetics <=

    Nuclear Repulsion Energy =            547.8411003535451300
    One-Electron Energy =               -1787.5937565996910052
    Two-Electron Energy =                 726.8770902951339394
    Total Energy =                       -512.8755659510118221
  Basis Set: (AUG-CC-PVTZ AUX)
    Blend: AUG-CC-PVTZ-RI
    Molecular point group: c1

    Geometry (in Angstrom), charge = 0, multiplicity = 1:

       Center              X                  Y                   Z               Mass
    ------------   -----------------  -----------------  -----------------  -----------------
         O           -1.969446842138     1.655103836069    -0.181033203163    15.994914619570
         O            1.669965157862    -1.228683163931     0.647551796837    15.994914619570
         O           -3.290232842138    -0.054174163931     0.498629796837    15.994914619570
         N            0.215214157862     0.262060836069    -0.266111203163    14.003074004430
         C           -0.949935842138    -0.503290163931     0.121376796837    12.000000000000
         C           -1.195685842138    -1.687911163931    -0.814719203163    12.000000000000
         C            2.580133157862     0.800557836069    -0.334123203163    12.000000000000
         C            1.434306357862    -0.122106563931     0.051094296837    12.000000000000
         C           -2.189690842138     0.359623836069     0.188234796837    12.000000000000
         C            3.973094357862     0.369048636069     0.096883196837    12.000000000000
         H           -0.782715842138    -0.895964163931     1.132605796837     1.007825032230
         H            0.076168157862     1.190360836069    -0.641382203163     1.007825032230
         H           -1.350400842138    -1.334567163931    -1.837119203163     1.007825032230
         H           -0.322754842138    -2.340947163931    -0.787790203163     1.007825032230
         H           -2.077666842138    -2.242390163931    -0.488617203163     1.007825032230
         H            2.549128157862     0.910493836069    -1.425126203163     1.007825032230
         H            2.356623157862     1.792811836069     0.077121796837     1.007825032230
         H            4.179349157862    -0.653689163931    -0.303223203163     1.007825032230
         H            4.720596157862     1.034163836069    -0.201292203163     1.007825032230
         H            3.991477157862     0.235147836069     1.205448796837     1.007825032230
         H           -2.845063842138     2.091469836069    -0.120154203163     1.007825032230

  Basis Set: AUG-CC-PVTZ
    Blend: AUG-CC-PVTZ
  Basis Set: (AUG-CC-PVTZ AUX)
    Blend: AUG-CC-PVTZ-JKFIT
	 Reference Energy          =    -512.8755659510118221 [Eh]
	 Singles Energy            =      -0.0000000000000000 [Eh]
	 Same-Spin Energy          =      -0.5121763643330615 [Eh]
	 Opposite-Spin Energy      =      -1.6165594718848371 [Eh]
	 Correlation Energy        =      -2.1287358362178983 [Eh]
	 Total Energy              =    -515.0043017872296787 [Eh]

	 ================> DF-SCS-MP2 Energies <==================
	-----------------------------------------------------------
	 SCS Same-Spin Scale       =       0.3333333333333333 [-]
	 SCS Opposite-Spin Scale   =       1.2000000000000000 [-]
	 SCS Same-Spin Energy      =      -0.1707254547776871 [Eh]
	 SCS Opposite-Spin Energy  =      -1.9398713662618043 [Eh]
	 SCS Correlation Energy    =      -2.1105968210394916 [Eh]
	 SCS Total Energy          =    -514.9861627720513297 [Eh]
	-----------------------------------------------------------

  Dipole Moment: [D]
     X:    -0.4801      Y:     3.5729      Z:    -2.0211     Total:     4.1329

*** Psi4 exiting successfully. Buy a developer a beer!
