                               Psi4 1.3.2 release

  ==> Input File <==

--------------------------------------------------------------------------
#psi4
#
memory 32 gb

molecule  {
0 1
  O       -1.9705880     1.6613530    -0.1848000
  O        1.6688240    -1.2224340     0.6437850
  O       -3.2913740    -0.0479250     0.4948630
  N        0.2140730     0.2683100    -0.2698780
  C       -0.9801705    -0.4582943     0.1033675
  C       -1.1968270    -1.6816620    -0.8184860
  C        2.5789920     0.8068070    -0.3378900
  C        1.4682490    -0.1481810     0.0706060
  C       -2.1908320     0.3658730     0.1844680
  C        3.9506640     0.3320720     0.1153760
  H       -0.7838570    -0.8897150     1.1288390
  H        0.0402239     1.1923044    -0.6412455
  H       -1.3515420    -1.3283180    -1.8408860
  H       -0.3238960    -2.3346980    -0.7915570
  H       -2.0788080    -2.2361410    -0.4923840
  H        2.5479870     0.9167430    -1.4288930
  H        2.3554820     1.7990610     0.0733550
  H        4.1782080    -0.6474400    -0.3069900
  H        4.7194550     1.0404130    -0.2050590
  H        3.9903360     0.2413970     1.2016820
  H       -2.8462050     2.0977190    -0.1239210
units angstrom
no_reorient  #important for SAPT in psi4, default
symmetry c1  #important for SAPT in psi4, default
}

set PROPERTIES_ORIGIN ["COM"]
properties('MP2/aug-cc-pvtz', properties = ['dipole'])
--------------------------------------------------------------------------

    Molecular point group: c1
  Charge       = 0
  Multiplicity = 1
  Basis Set: AUG-CC-PVTZ
    Blend: AUG-CC-PVTZ
  Basis Set: (AUG-CC-PVTZ AUX)
    Blend: AUG-CC-PVTZ-JKFIT

    Orbital Energies [Eh]
    ---------------------

    Doubly Occupied:

       1A    -20.637184     2A    -20.564939     3A    -20.525215
       4A    -15.591991     5A    -11.405854     6A    -11.357536
       7A    -11.296557     8A    -11.247432     9A    -11.228741
      10A    -11.219632    11A     -1.480711    12A     -1.380622
      13A     -1.374966    14A     -1.246643    15A     -1.076546
      16A     -1.036699    17A     -0.933000    18A     -0.888703
      19A     -0.813434    20A     -0.795892    21A     -0.734219
      22A     -0.715424    23A     -0.682987    24A     -0.667282
      25A     -0.641751    26A     -0.631383    27A     -0.612337
      28A     -0.601401    29A     -0.576965    30A     -0.550184
      31A     -0.544645    32A     -0.523599    33A     -0.520260
      34A     -0.517781    35A     -0.498275    36A     -0.486473
      37A     -0.472273    38A     -0.429166    39A     -0.398311

  @DF-RHF Final Energy:  -512.88179041416060

   => Energetics <=

    Nuclear Repulsion Energy =            548.3490599388682085
    One-Electron Energy =               -1788.6476712319602029
    Two-Electron Energy =                 727.4168208789315031
    Total Energy =                       -512.8817904141606050
  Basis Set: (AUG-CC-PVTZ AUX)
    Blend: AUG-CC-PVTZ-RI
    Molecular point group: c1

    Geometry (in Angstrom), charge = 0, multiplicity = 1:

       Center              X                  Y                   Z               Mass
    ------------   -----------------  -----------------  -----------------  -----------------
         O           -1.967939594827     1.658177936319    -0.183648982174    15.994914619570
         O            1.671472405173    -1.225609063681     0.644936017826    15.994914619570
         O           -3.288725594827    -0.051100063681     0.496014017826    15.994914619570
         N            0.216721405173     0.265134936319    -0.268726982174    14.003074004430
         C           -0.977522094827    -0.461469363681     0.104518517826    12.000000000000
         C           -1.194178594827    -1.684837063681    -0.817334982174    12.000000000000
         C            2.581640405173     0.803631936319    -0.336738982174    12.000000000000
         C            1.470897405173    -0.151356063681     0.071757017826    12.000000000000
         C           -2.188183594827     0.362697936319     0.185619017826    12.000000000000
         C            3.953312405173     0.328896936319     0.116527017826    12.000000000000
         H           -0.781208594827    -0.892890063681     1.129990017826     1.007825032230
         H            0.042872305173     1.189129336319    -0.640094482174     1.007825032230
         H           -1.348893594827    -1.331493063681    -1.839734982174     1.007825032230
         H           -0.321247594827    -2.337873063681    -0.790405982174     1.007825032230
         H           -2.076159594827    -2.239316063681    -0.491232982174     1.007825032230
         H            2.550635405173     0.913567936319    -1.427741982174     1.007825032230
         H            2.358130405173     1.795885936319     0.074506017826     1.007825032230
         H            4.180856405173    -0.650615063681    -0.305838982174     1.007825032230
         H            4.722103405173     1.037237936319    -0.203907982174     1.007825032230
         H            3.992984405173     0.238221936319     1.202833017826     1.007825032230
         H           -2.843556594827     2.094543936319    -0.122769982174     1.007825032230

  Basis Set: AUG-CC-PVTZ
    Blend: AUG-CC-PVTZ
  Basis Set: (AUG-CC-PVTZ AUX)
    Blend: AUG-CC-PVTZ-JKFIT
	 Reference Energy          =    -512.8817904141606050 [Eh]
	 Singles Energy            =      -0.0000000000000000 [Eh]
	 Same-Spin Energy          =      -0.5118687974377782 [Eh]
	 Opposite-Spin Energy      =      -1.6157735132677706 [Eh]
	 Correlation Energy        =      -2.1276423107055491 [Eh]
	 Total Energy              =    -515.0094327248662012 [Eh]

	 ================> DF-SCS-MP2 Energies <==================
	-----------------------------------------------------------
	 SCS Same-Spin Scale       =       0.3333333333333333 [-]
	 SCS Opposite-Spin Scale   =       1.2000000000000000 [-]
	 SCS Same-Spin Energy      =      -0.1706229324792594 [Eh]
	 SCS Opposite-Spin Energy  =      -1.9389282159213246 [Eh]
	 SCS Correlation Energy    =      -2.1095511484005840 [Eh]
	 SCS Total Energy          =    -514.9913415625611606 [Eh]
	-----------------------------------------------------------

  Dipole Moment: [D]
     X:    -0.0833      Y:     3.3624      Z:    -1.8608     Total:     3.8438

*** Psi4 exiting successfully. Buy a developer a beer!
