                               Psi4 1.3.2 release

  ==> Input File <==

--------------------------------------------------------------------------
#psi4
#
memory 32 gb

molecule  {
0 1
  O       -1.9705880     1.6613530    -0.1848000
  O        1.6688240    -1.2224340     0.6437850
  O       -3.2913740    -0.0479250     0.4948630
  N        0.2069362     0.2787002    -0.2706100
  C       -0.9510770    -0.4970410     0.1176100
  C       -1.1968270    -1.6816620    -0.8184860
  C        2.5789920     0.8068070    -0.3378900
  C        1.4682490    -0.1481810     0.0706060
  C       -2.1836588     0.3763548     0.1808941
  C        3.9506640     0.3320720     0.1153760
  H       -0.7838570    -0.8897150     1.1288390
  H        0.0750270     1.1966100    -0.6451490
  H       -1.3515420    -1.3283180    -1.8408860
  H       -0.3238960    -2.3346980    -0.7915570
  H       -2.0788080    -2.2361410    -0.4923840
  H        2.5479870     0.9167430    -1.4288930
  H        2.3554820     1.7990610     0.0733550
  H        4.1782080    -0.6474400    -0.3069900
  H        4.7194550     1.0404130    -0.2050590
  H        3.9903360     0.2413970     1.2016820
  H       -2.8462050     2.0977190    -0.1239210
units angstrom
no_reorient  #important for SAPT in psi4, default
symmetry c1  #important for SAPT in psi4, default
}

set PROPERTIES_ORIGIN ["COM"]
properties('MP2/aug-cc-pvtz', properties = ['dipole'])
--------------------------------------------------------------------------

    Molecular point group: c1
  Charge       = 0
  Multiplicity = 1
  Basis Set: AUG-CC-PVTZ
    Blend: AUG-CC-PVTZ
  Basis Set: (AUG-CC-PVTZ AUX)
    Blend: AUG-CC-PVTZ-JKFIT

    Orbital Energies [Eh]
    ---------------------

    Doubly Occupied:

       1A    -20.639603     2A    -20.561433     3A    -20.526777
       4A    -15.590534     5A    -11.405599     6A    -11.357626
       7A    -11.296879     8A    -11.247675     9A    -11.226531
      10A    -11.219965    11A     -1.481397    12A     -1.380796
      13A     -1.368468    14A     -1.245984    15A     -1.075070
      16A     -1.035359    17A     -0.929083    18A     -0.886556
      19A     -0.820049    20A     -0.793056    21A     -0.730904
      22A     -0.715208    23A     -0.683049    24A     -0.666243
      25A     -0.641681    26A     -0.633841    27A     -0.608567
      28A     -0.604051    29A     -0.581589    30A     -0.546962
      31A     -0.543730    32A     -0.525187    33A     -0.521234
      34A     -0.519947    35A     -0.496018    36A     -0.486875
      37A     -0.467178    38A     -0.428881    39A     -0.400296

  @DF-RHF Final Energy:  -512.88503223610064

   => Energetics <=

    Nuclear Repulsion Energy =            547.9496054523583553
    One-Electron Energy =               -1787.8895170887067252
    Two-Electron Energy =                 727.0548794002477280
    Total Energy =                       -512.8850322361006420
  Basis Set: (AUG-CC-PVTZ AUX)
    Blend: AUG-CC-PVTZ-RI
    Molecular point group: c1

    Geometry (in Angstrom), charge = 0, multiplicity = 1:

       Center              X                  Y                   Z               Mass
    ------------   -----------------  -----------------  -----------------  -----------------
         O           -1.970492353898     1.659483097192    -0.184433678182    15.994914619570
         O            1.668919646102    -1.224303902808     0.644151321818    15.994914619570
         O           -3.291278353898    -0.049794902808     0.495229321818    15.994914619570
         N            0.207031846102     0.276830297192    -0.270243678182    14.003074004430
         C           -0.950981353898    -0.498910902808     0.117976321818    12.000000000000
         C           -1.196731353898    -1.683531902808    -0.818119678182    12.000000000000
         C            2.579087646102     0.804937097192    -0.337523678182    12.000000000000
         C            1.468344646102    -0.150050902808     0.070972321818    12.000000000000
         C           -2.183563153898     0.374484897192     0.181260421818    12.000000000000
         C            3.950759646102     0.330202097192     0.115742321818    12.000000000000
         H           -0.783761353898    -0.891584902808     1.129205321818     1.007825032230
         H            0.075122646102     1.194740097192    -0.644782678182     1.007825032230
         H           -1.351446353898    -1.330187902808    -1.840519678182     1.007825032230
         H           -0.323800353898    -2.336567902808    -0.791190678182     1.007825032230
         H           -2.078712353898    -2.238010902808    -0.492017678182     1.007825032230
         H            2.548082646102     0.914873097192    -1.428526678182     1.007825032230
         H            2.355577646102     1.797191097192     0.073721321818     1.007825032230
         H            4.178303646102    -0.649309902808    -0.306623678182     1.007825032230
         H            4.719550646102     1.038543097192    -0.204692678182     1.007825032230
         H            3.990431646102     0.239527097192     1.202048321818     1.007825032230
         H           -2.846109353898     2.095849097192    -0.123554678182     1.007825032230

  Basis Set: AUG-CC-PVTZ
    Blend: AUG-CC-PVTZ
  Basis Set: (AUG-CC-PVTZ AUX)
    Blend: AUG-CC-PVTZ-JKFIT
	 Reference Energy          =    -512.8850322361006420 [Eh]
	 Singles Energy            =      -0.0000000000000000 [Eh]
	 Same-Spin Energy          =      -0.5114215872564837 [Eh]
	 Opposite-Spin Energy      =      -1.6151403870916323 [Eh]
	 Correlation Energy        =      -2.1265619743481161 [Eh]
	 Total Energy              =    -515.0115942104487203 [Eh]

	 ================> DF-SCS-MP2 Energies <==================
	-----------------------------------------------------------
	 SCS Same-Spin Scale       =       0.3333333333333333 [-]
	 SCS Opposite-Spin Scale   =       1.2000000000000000 [-]
	 SCS Same-Spin Energy      =      -0.1704738624188279 [Eh]
	 SCS Opposite-Spin Energy  =      -1.9381684645099586 [Eh]
	 SCS Correlation Energy    =      -2.1086423269287864 [Eh]
	 SCS Total Energy          =    -514.9936745630294581 [Eh]
	-----------------------------------------------------------

  Dipole Moment: [D]
     X:     0.0145      Y:     3.4227      Z:    -1.8800     Total:     3.9051

*** Psi4 exiting successfully. Buy a developer a beer!
