                               Psi4 1.3.2 release

  ==> Input File <==

--------------------------------------------------------------------------
#psi4
#
memory 32 gb

molecule  {
0 1
  O       -1.9705880     1.6613530    -0.1848000
  O        1.6688240    -1.2224340     0.6437850
  O       -3.2913740    -0.0479250     0.4948630
  N        0.2140730     0.2683100    -0.2698780
  C       -0.9510770    -0.4970410     0.1176100
  C       -1.1968270    -1.6816620    -0.8184860
  C        2.5789920     0.8068070    -0.3378900
  C        1.4831179    -0.1423468     0.1212267
  C       -2.1908320     0.3658730     0.1844680
  C        3.9506640     0.3320720     0.1153760
  H       -0.7838570    -0.8897150     1.1288390
  H        0.0750270     1.1966100    -0.6451490
  H       -1.3515420    -1.3283180    -1.8408860
  H       -0.3238960    -2.3346980    -0.7915570
  H       -2.0788080    -2.2361410    -0.4923840
  H        2.5777637     0.9407097    -1.4266523
  H        2.3554820     1.7990610     0.0733550
  H        4.1782080    -0.6474400    -0.3069900
  H        4.7194550     1.0404130    -0.2050590
  H        3.9903360     0.2413970     1.2016820
  H       -2.8462050     2.0977190    -0.1239210
units angstrom
no_reorient  #important for SAPT in psi4, default
symmetry c1  #important for SAPT in psi4, default
}

set PROPERTIES_ORIGIN ["COM"]
properties('MP2/aug-cc-pvtz', properties = ['dipole'])
--------------------------------------------------------------------------

    Molecular point group: c1
  Charge       = 0
  Multiplicity = 1
  Basis Set: AUG-CC-PVTZ
    Blend: AUG-CC-PVTZ
  Basis Set: (AUG-CC-PVTZ AUX)
    Blend: AUG-CC-PVTZ-JKFIT

    Orbital Energies [Eh]
    ---------------------

    Doubly Occupied:

       1A    -20.634950     2A    -20.562981     3A    -20.531051
       4A    -15.586805     5A    -11.403854     6A    -11.357495
       7A    -11.294775     8A    -11.247293     9A    -11.225267
      10A    -11.219874    11A     -1.476980    12A     -1.393894
      13A     -1.372296    14A     -1.240511    15A     -1.073881
      16A     -1.033911    17A     -0.925729    18A     -0.884680
      19A     -0.814783    20A     -0.787671    21A     -0.729963
      22A     -0.713302    23A     -0.684562    24A     -0.665342
      25A     -0.640740    26A     -0.634397    27A     -0.609894
      28A     -0.606865    29A     -0.580106    30A     -0.545637
      31A     -0.544474    32A     -0.525629    33A     -0.521595
      34A     -0.520361    35A     -0.496972    36A     -0.490665
      37A     -0.467732    38A     -0.430902    39A     -0.398689

  @DF-RHF Final Energy:  -512.88465410882077

   => Energetics <=

    Nuclear Repulsion Energy =            547.8789729374956323
    One-Electron Energy =               -1787.7742355884256540
    Two-Electron Energy =                 727.0106085421091393
    Total Energy =                       -512.8846541088207687
  Basis Set: (AUG-CC-PVTZ AUX)
    Blend: AUG-CC-PVTZ-RI
    Molecular point group: c1

    Geometry (in Angstrom), charge = 0, multiplicity = 1:

       Center              X                  Y                   Z               Mass
    ------------   -----------------  -----------------  -----------------  -----------------
         O           -1.972024643666     1.660703935038    -0.189002685527    15.994914619570
         O            1.667387356334    -1.223083064962     0.639582314473    15.994914619570
         O           -3.292810643666    -0.048574064962     0.490660314473    15.994914619570
         N            0.212636356334     0.267660935038    -0.274080685527    14.003074004430
         C           -0.952513643666    -0.497690064962     0.113407314473    12.000000000000
         C           -1.198263643666    -1.682311064962    -0.822688685527    12.000000000000
         C            2.577555356334     0.806157935038    -0.342092685527    12.000000000000
         C            1.481681256334    -0.142995864962     0.117024014473    12.000000000000
         C           -2.192268643666     0.365223935038     0.180265314473    12.000000000000
         C            3.949227356334     0.331422935038     0.111173314473    12.000000000000
         H           -0.785293643666    -0.890364064962     1.124636314473     1.007825032230
         H            0.073590356334     1.195960935038    -0.649351685527     1.007825032230
         H           -1.352978643666    -1.328967064962    -1.845088685527     1.007825032230
         H           -0.325332643666    -2.335347064962    -0.795759685527     1.007825032230
         H           -2.080244643666    -2.236790064962    -0.496586685527     1.007825032230
         H            2.576327056334     0.940060635038    -1.430854985527     1.007825032230
         H            2.354045356334     1.798411935038     0.069152314473     1.007825032230
         H            4.176771356334    -0.648089064962    -0.311192685527     1.007825032230
         H            4.718018356334     1.039763935038    -0.209261685527     1.007825032230
         H            3.988899356334     0.240747935038     1.197479314473     1.007825032230
         H           -2.847641643666     2.097069935038    -0.128123685527     1.007825032230

  Basis Set: AUG-CC-PVTZ
    Blend: AUG-CC-PVTZ
  Basis Set: (AUG-CC-PVTZ AUX)
    Blend: AUG-CC-PVTZ-JKFIT
	 Reference Energy          =    -512.8846541088207687 [Eh]
	 Singles Energy            =      -0.0000000000000000 [Eh]
	 Same-Spin Energy          =      -0.5110454708481109 [Eh]
	 Opposite-Spin Energy      =      -1.6145654642089879 [Eh]
	 Correlation Energy        =      -2.1256109350570989 [Eh]
	 Total Energy              =    -515.0102650438778937 [Eh]

	 ================> DF-SCS-MP2 Energies <==================
	-----------------------------------------------------------
	 SCS Same-Spin Scale       =       0.3333333333333333 [-]
	 SCS Opposite-Spin Scale   =       1.2000000000000000 [-]
	 SCS Same-Spin Energy      =      -0.1703484902827036 [Eh]
	 SCS Opposite-Spin Energy  =      -1.9374785570507855 [Eh]
	 SCS Correlation Energy    =      -2.1078270473334890 [Eh]
	 SCS Total Energy          =    -514.9924811561542128 [Eh]
	-----------------------------------------------------------

  Dipole Moment: [D]
     X:     0.1062      Y:     3.2912      Z:    -1.7594     Total:     3.7334

*** Psi4 exiting successfully. Buy a developer a beer!
