                               Psi4 1.3.2 release

  ==> Input File <==

--------------------------------------------------------------------------
#psi4
#
memory 32 gb

molecule  {
0 1
  O       -1.9705880     1.6613530    -0.1848000
  O        1.6688240    -1.2224340     0.6437850
  O       -3.2913740    -0.0479250     0.4948630
  N        0.2140730     0.2683100    -0.2698780
  C       -0.9510770    -0.4970410     0.1176100
  C       -1.1968270    -1.6816620    -0.8184860
  C        2.5789920     0.8068070    -0.3378900
  C        1.4682490    -0.1481810     0.0706060
  C       -2.2597695     0.3822230     0.1937962
  C        3.9506640     0.3320720     0.1153760
  H       -0.7838570    -0.8897150     1.1288390
  H        0.0750270     1.1966100    -0.6451490
  H       -1.3515420    -1.3283180    -1.8408860
  H       -0.3238960    -2.3346980    -0.7915570
  H       -2.0788080    -2.2361410    -0.4923840
  H        2.5479870     0.9167430    -1.4288930
  H        2.3554820     1.7990610     0.0733550
  H        4.1782080    -0.6474400    -0.3069900
  H        4.7194550     1.0404130    -0.2050590
  H        3.9903360     0.2413970     1.2016820
  H       -2.8660004     2.0528648    -0.1087618
units angstrom
no_reorient  #important for SAPT in psi4, default
symmetry c1  #important for SAPT in psi4, default
}

set PROPERTIES_ORIGIN ["COM"]
properties('MP2/aug-cc-pvtz', properties = ['dipole'])
--------------------------------------------------------------------------

    Molecular point group: c1
  Charge       = 0
  Multiplicity = 1
  Basis Set: AUG-CC-PVTZ
    Blend: AUG-CC-PVTZ
  Basis Set: (AUG-CC-PVTZ AUX)
    Blend: AUG-CC-PVTZ-JKFIT

    Orbital Energies [Eh]
    ---------------------

    Doubly Occupied:

       1A    -20.636742     2A    -20.574586     3A    -20.521561
       4A    -15.587976     5A    -11.400307     6A    -11.352966
       7A    -11.292692     8A    -11.245181     9A    -11.222562
      10A    -11.217960    11A     -1.498169    12A     -1.406058
      13A     -1.377276    14A     -1.240164    15A     -1.068542
      16A     -1.028513    17A     -0.917458    18A     -0.879961
      19A     -0.808579    20A     -0.790566    21A     -0.734031
      22A     -0.722891    23A     -0.681159    24A     -0.669781
      25A     -0.647149    26A     -0.638730    27A     -0.614507
      28A     -0.600980    29A     -0.577901    30A     -0.548157
      31A     -0.543834    32A     -0.523389    33A     -0.521986
      34A     -0.518331    35A     -0.510135    36A     -0.488833
      37A     -0.461140    38A     -0.425114    39A     -0.395882

  @DF-RHF Final Energy:  -512.88166071842625

   => Energetics <=

    Nuclear Repulsion Energy =            547.8797330262214018
    One-Electron Energy =               -1787.7392900724385072
    Two-Electron Energy =                 726.9778963277908588
    Total Energy =                       -512.8816607184262466
  Basis Set: (AUG-CC-PVTZ AUX)
    Blend: AUG-CC-PVTZ-RI
    Molecular point group: c1

    Geometry (in Angstrom), charge = 0, multiplicity = 1:

       Center              X                  Y                   Z               Mass
    ------------   -----------------  -----------------  -----------------  -----------------
         O           -1.964748098039     1.660312202432    -0.185676860311    15.994914619570
         O            1.674663901961    -1.223474797568     0.642908139689    15.994914619570
         O           -3.285534098039    -0.048965797568     0.493986139689    15.994914619570
         N            0.219912901961     0.267269202432    -0.270754860311    14.003074004430
         C           -0.945237098039    -0.498081797568     0.116733139689    12.000000000000
         C           -1.190987098039    -1.682702797568    -0.819362860311    12.000000000000
         C            2.584831901961     0.805766202432    -0.338766860311    12.000000000000
         C            1.474088901961    -0.149221797568     0.069729139689    12.000000000000
         C           -2.253929598039     0.381182202432     0.192919339689    12.000000000000
         C            3.956503901961     0.331031202432     0.114499139689    12.000000000000
         H           -0.778017098039    -0.890755797568     1.127962139689     1.007825032230
         H            0.080866901961     1.195569202432    -0.646025860311     1.007825032230
         H           -1.345702098039    -1.329358797568    -1.841762860311     1.007825032230
         H           -0.318056098039    -2.335738797568    -0.792433860311     1.007825032230
         H           -2.072968098039    -2.237181797568    -0.493260860311     1.007825032230
         H            2.553826901961     0.915702202432    -1.429769860311     1.007825032230
         H            2.361321901961     1.798020202432     0.072478139689     1.007825032230
         H            4.184047901961    -0.648480797568    -0.307866860311     1.007825032230
         H            4.725294901961     1.039372202432    -0.205935860311     1.007825032230
         H            3.996175901961     0.240356202432     1.200805139689     1.007825032230
         H           -2.860160498039     2.051824002432    -0.109638660311     1.007825032230

  Basis Set: AUG-CC-PVTZ
    Blend: AUG-CC-PVTZ
  Basis Set: (AUG-CC-PVTZ AUX)
    Blend: AUG-CC-PVTZ-JKFIT
	 Reference Energy          =    -512.8816607184262466 [Eh]
	 Singles Energy            =      -0.0000000000000000 [Eh]
	 Same-Spin Energy          =      -0.5102516485003206 [Eh]
	 Opposite-Spin Energy      =      -1.6128027741920938 [Eh]
	 Correlation Energy        =      -2.1230544226924142 [Eh]
	 Total Energy              =    -515.0047151411187087 [Eh]

	 ================> DF-SCS-MP2 Energies <==================
	-----------------------------------------------------------
	 SCS Same-Spin Scale       =       0.3333333333333333 [-]
	 SCS Opposite-Spin Scale   =       1.2000000000000000 [-]
	 SCS Same-Spin Energy      =      -0.1700838828334402 [Eh]
	 SCS Opposite-Spin Energy  =      -1.9353633290305126 [Eh]
	 SCS Correlation Energy    =      -2.1054472118639529 [Eh]
	 SCS Total Energy          =    -514.9871079302902217 [Eh]
	-----------------------------------------------------------

  Dipole Moment: [D]
     X:    -0.5639      Y:     3.3696      Z:    -1.7445     Total:     3.8361

*** Psi4 exiting successfully. Buy a developer a beer!
