                               Psi4 1.4a3.dev225

  ==> Input File <==

--------------------------------------------------------------------------
#psi4
#
memory 32 gb

molecule  {
0 1
  O       -2.1439760    -1.5096120     0.4578230
  O        1.6019480     1.2946100    -0.5777250
  O       -3.1849820    -0.0999640    -0.9818910
  N        0.1649120    -0.2715720     0.2333030
  C       -1.0051050     0.5087660    -0.1211110
  C       -1.3212480     1.5963590     0.9125160
  C        2.5597860    -0.6480590     0.5035240
  C        1.4153845     0.1987801     0.0053827
  C       -2.2159370    -0.3767160    -0.3010400
  C        3.7806550    -0.5458820    -0.4040570
  H       -0.8075500     0.9861290    -1.0847450
  H        0.0342290    -1.1271740     0.7572540
  H       -1.5188550     1.1449870     1.8886910
  H       -0.4592110     2.2615650     0.9886780
  H       -2.1947650     2.1753270     0.6002850
  H        2.8115640    -0.2961200     1.5118980
  H        2.2315720    -1.6889350     0.6045970
  H        4.0689510     0.4992230    -0.5227640
  H        4.6219880    -1.1034150     0.0157220
  H        3.5611410    -0.9492480    -1.3958190
  H       -2.9864200    -1.9858630     0.3018850
units angstrom
no_reorient  #important for SAPT in psi4, default
symmetry c1  #important for SAPT in psi4, default
}

set PROPERTIES_ORIGIN ["COM"]
properties('MP2/aug-cc-pvtz', properties = ['dipole'])
--------------------------------------------------------------------------

    Molecular point group: c1
  Charge       = 0
  Multiplicity = 1
  Basis Set: AUG-CC-PVTZ
    Blend: AUG-CC-PVTZ
  Basis Set: (AUG-CC-PVTZ AUX)
    Blend: AUG-CC-PVTZ-JKFIT

    Orbital Energies [Eh]
    ---------------------

    Doubly Occupied:

       1A    -20.635150     2A    -20.565924     3A    -20.518668
       4A    -15.598893     5A    -11.404842     6A    -11.357319
       7A    -11.297865     8A    -11.248435     9A    -11.233951
      10A    -11.222183    11A     -1.477247    12A     -1.373542
      13A     -1.368355    14A     -1.246572    15A     -1.078420
      16A     -1.039160    17A     -0.929666    18A     -0.888017
      19A     -0.822898    20A     -0.796584    21A     -0.729363
      22A     -0.715019    23A     -0.679852    24A     -0.661970
      25A     -0.642914    26A     -0.629218    27A     -0.609967
      28A     -0.600059    29A     -0.589868    30A     -0.552928
      31A     -0.541429    32A     -0.535140    33A     -0.522317
      34A     -0.513743    35A     -0.498240    36A     -0.486114
      37A     -0.468791    38A     -0.426527    39A     -0.399844

  @DF-RHF Final Energy:  -512.88419625820154

   => Energetics <=

    Nuclear Repulsion Energy =            547.6804576315747681
    One-Electron Energy =               -1787.3153179510036352
    Two-Electron Energy =                 726.7506640612272122
    Total Energy =                       -512.8841962582015412
  Basis Set: (AUG-CC-PVTZ AUX)
    Blend: AUG-CC-PVTZ-RI
    Molecular point group: c1

    Geometry (in Angstrom), charge = 0, multiplicity = 1:

       Center              X                  Y                   Z               Mass
    ------------   -----------------  -----------------  -----------------  -----------------
         O           -2.079832144764    -1.508744183835     0.482080867705    15.994914619570
         O            1.666091855236     1.295477816165    -0.553467132295    15.994914619570
         O           -3.120838144764    -0.099096183835    -0.957633132295    15.994914619570
         N            0.229055855236    -0.270704183835     0.257560867705    14.003074004430
         C           -0.940961144764     0.509633816165    -0.096853132295    12.000000000000
         C           -1.257104144764     1.597226816165     0.936773867705    12.000000000000
         C            2.623929855236    -0.647191183835     0.527781867705    12.000000000000
         C            1.479528355236     0.199647916165     0.029640567705    12.000000000000
         C           -2.151793144764    -0.375848183835    -0.276782132295    12.000000000000
         C            3.844798855236    -0.545014183835    -0.379799132295    12.000000000000
         H           -0.743406144764     0.986996816165    -1.060487132295     1.007825032230
         H            0.098372855236    -1.126306183835     0.781511867705     1.007825032230
         H           -1.454711144764     1.145854816165     1.912948867705     1.007825032230
         H           -0.395067144764     2.262432816165     1.012935867705     1.007825032230
         H           -2.130621144764     2.176194816165     0.624542867705     1.007825032230
         H            2.875707855236    -0.295252183835     1.536155867705     1.007825032230
         H            2.295715855236    -1.688067183835     0.628854867705     1.007825032230
         H            4.133094855236     0.500090816165    -0.498506132295     1.007825032230
         H            4.686131855236    -1.102547183835     0.039979867705     1.007825032230
         H            3.625284855236    -0.948380183835    -1.371561132295     1.007825032230
         H           -2.922276144764    -1.984995183835     0.326142867705     1.007825032230

  Basis Set: AUG-CC-PVTZ
    Blend: AUG-CC-PVTZ
  Basis Set: (AUG-CC-PVTZ AUX)
    Blend: AUG-CC-PVTZ-JKFIT
	 Reference Energy          =    -512.8841962582015412 [Eh]
	 Singles Energy            =      -0.0000000000000000 [Eh]
	 Same-Spin Energy          =      -0.5116002221086133 [Eh]
	 Opposite-Spin Energy      =      -1.6159148459587780 [Eh]
	 Correlation Energy        =      -2.1275150680673915 [Eh]
	 Total Energy              =    -515.0117113262689372 [Eh]

	 ================> DF-SCS-MP2 Energies <==================
	-----------------------------------------------------------
	 SCS Same-Spin Scale       =       0.3333333333333333 [-]
	 SCS Opposite-Spin Scale   =       1.2000000000000000 [-]
	 SCS Same-Spin Energy      =      -0.1705334073695378 [Eh]
	 SCS Opposite-Spin Energy  =      -1.9390978151505336 [Eh]
	 SCS Correlation Energy    =      -2.1096312225200715 [Eh]
	 SCS Total Energy          =    -514.9938274807216203 [Eh]
	-----------------------------------------------------------

  Dipole Moment: [D]
     X:    -0.2907      Y:    -3.1330      Z:     2.7016     Total:     4.1471

*** Psi4 exiting successfully. Buy a developer a beer!
