                               Psi4 1.3.2 release

  ==> Input File <==

--------------------------------------------------------------------------
#psi4
#
memory 32 gb

molecule  {
0 1
  O       -1.9705880     1.6613530    -0.1848000
  O        1.6688240    -1.2224340     0.6437850
  O       -3.2913740    -0.0479250     0.4948630
  N        0.2240292     0.2202091    -0.3275431
  C       -0.9510770    -0.4970410     0.1176100
  C       -1.1321466    -1.6594434    -0.8601579
  C        2.5789920     0.8068070    -0.3378900
  C        1.4682490    -0.1481810     0.0706060
  C       -2.1908320     0.3658730     0.1844680
  C        3.9506640     0.3320720     0.1153760
  H       -0.7838570    -0.8897150     1.1288390
  H        0.0750270     1.1966100    -0.6451490
  H       -1.3515420    -1.3283180    -1.8408860
  H       -0.3238960    -2.3346980    -0.7915570
  H       -2.0788080    -2.2361410    -0.4923840
  H        2.5479870     0.9167430    -1.4288930
  H        2.3554820     1.7990610     0.0733550
  H        4.1782080    -0.6474400    -0.3069900
  H        4.7194550     1.0404130    -0.2050590
  H        3.9903360     0.2413970     1.2016820
  H       -2.8462050     2.0977190    -0.1239210
units angstrom
no_reorient  #important for SAPT in psi4, default
symmetry c1  #important for SAPT in psi4, default
}

set PROPERTIES_ORIGIN ["COM"]
properties('MP2/aug-cc-pvtz', properties = ['dipole'])
--------------------------------------------------------------------------

    Molecular point group: c1
  Charge       = 0
  Multiplicity = 1
  Basis Set: AUG-CC-PVTZ
    Blend: AUG-CC-PVTZ
  Basis Set: (AUG-CC-PVTZ AUX)
    Blend: AUG-CC-PVTZ-JKFIT

    Orbital Energies [Eh]
    ---------------------

    Doubly Occupied:

       1A    -20.638490     2A    -20.566752     3A    -20.523393
       4A    -15.592275     5A    -11.408368     6A    -11.354229
       7A    -11.297437     8A    -11.247296     9A    -11.226234
      10A    -11.219490    11A     -1.480340    12A     -1.380968
      13A     -1.375515    14A     -1.245680    15A     -1.075516
      16A     -1.034658    17A     -0.928378    18A     -0.886777
      19A     -0.816063    20A     -0.789690    21A     -0.731962
      22A     -0.715477    23A     -0.684209    24A     -0.667162
      25A     -0.642057    26A     -0.634962    27A     -0.615984
      28A     -0.599685    29A     -0.578566    30A     -0.555078
      31A     -0.536658    32A     -0.528447    33A     -0.519863
      34A     -0.510125    35A     -0.495958    36A     -0.489377
      37A     -0.471036    38A     -0.428016    39A     -0.399106

  @DF-RHF Final Energy:  -512.87556582049228

   => Energetics <=

    Nuclear Repulsion Energy =            548.2960279147240499
    One-Electron Energy =               -1788.5606334748802055
    Two-Electron Energy =                 727.3890397396639855
    Total Energy =                       -512.8755658204922838
  Basis Set: (AUG-CC-PVTZ AUX)
    Blend: AUG-CC-PVTZ-RI
    Molecular point group: c1

    Geometry (in Angstrom), charge = 0, multiplicity = 1:

       Center              X                  Y                   Z               Mass
    ------------   -----------------  -----------------  -----------------  -----------------
         O           -1.976899026548     1.664158049982    -0.175786950747    15.994914619570
         O            1.662512973452    -1.219628950018     0.652798049253    15.994914619570
         O           -3.297685026548    -0.045119950018     0.503876049253    15.994914619570
         N            0.217718173452     0.223014149982    -0.318530050747    14.003074004430
         C           -0.957388026548    -0.494235950018     0.126623049253    12.000000000000
         C           -1.138457626548    -1.656638350018    -0.851144850747    12.000000000000
         C            2.572680973452     0.809612049982    -0.328876950747    12.000000000000
         C            1.461937973452    -0.145375950018     0.079619049253    12.000000000000
         C           -2.197143026548     0.368678049982     0.193481049253    12.000000000000
         C            3.944352973452     0.334877049982     0.124389049253    12.000000000000
         H           -0.790168026548    -0.886909950018     1.137852049253     1.007825032230
         H            0.068715973452     1.199415049982    -0.636135950747     1.007825032230
         H           -1.357853026548    -1.325512950018    -1.831872950747     1.007825032230
         H           -0.330207026548    -2.331892950018    -0.782543950747     1.007825032230
         H           -2.085119026548    -2.233335950018    -0.483370950747     1.007825032230
         H            2.541675973452     0.919548049982    -1.419879950747     1.007825032230
         H            2.349170973452     1.801866049982     0.082368049253     1.007825032230
         H            4.171896973452    -0.644634950018    -0.297976950747     1.007825032230
         H            4.713143973452     1.043218049982    -0.196045950747     1.007825032230
         H            3.984024973452     0.244202049982     1.210695049253     1.007825032230
         H           -2.852516026548     2.100524049982    -0.114907950747     1.007825032230

  Basis Set: AUG-CC-PVTZ
    Blend: AUG-CC-PVTZ
  Basis Set: (AUG-CC-PVTZ AUX)
    Blend: AUG-CC-PVTZ-JKFIT
	 Reference Energy          =    -512.8755658204922838 [Eh]
	 Singles Energy            =      -0.0000000000000000 [Eh]
	 Same-Spin Energy          =      -0.5117725893929301 [Eh]
	 Opposite-Spin Energy      =      -1.6161096905977845 [Eh]
	 Correlation Energy        =      -2.1278822799907147 [Eh]
	 Total Energy              =    -515.0034481004829559 [Eh]

	 ================> DF-SCS-MP2 Energies <==================
	-----------------------------------------------------------
	 SCS Same-Spin Scale       =       0.3333333333333333 [-]
	 SCS Opposite-Spin Scale   =       1.2000000000000000 [-]
	 SCS Same-Spin Energy      =      -0.1705908631309767 [Eh]
	 SCS Opposite-Spin Energy  =      -1.9393316287173414 [Eh]
	 SCS Correlation Energy    =      -2.1099224918483181 [Eh]
	 SCS Total Energy          =    -514.9854883123406353 [Eh]
	-----------------------------------------------------------

  Dipole Moment: [D]
     X:    -0.1415      Y:     3.4977      Z:    -1.7707     Total:     3.9229

*** Psi4 exiting successfully. Buy a developer a beer!
