                               Psi4 1.3.2 release

  ==> Input File <==

--------------------------------------------------------------------------
#psi4
#
memory 32 gb

molecule  {
0 1
  O       -1.9705880     1.6613530    -0.1848000
  O        1.6688240    -1.2224340     0.6437850
  O       -3.2913740    -0.0479250     0.4948630
  N        0.2140730     0.2683100    -0.2698780
  C       -0.9801598    -0.4627230     0.0946524
  C       -1.1968270    -1.6816620    -0.8184860
  C        2.5789920     0.8068070    -0.3378900
  C        1.4860515    -0.1099428     0.0484724
  C       -2.1908320     0.3658730     0.1844680
  C        3.9506640     0.3320720     0.1153760
  H       -0.7838570    -0.8897150     1.1288390
  H        0.0750270     1.1966100    -0.6451490
  H       -1.3515420    -1.3283180    -1.8408860
  H       -0.3238960    -2.3346980    -0.7915570
  H       -2.0788080    -2.2361410    -0.4923840
  H        2.5479870     0.9167430    -1.4288930
  H        2.3554820     1.7990610     0.0733550
  H        4.1782080    -0.6474400    -0.3069900
  H        4.7194550     1.0404130    -0.2050590
  H        3.9903360     0.2413970     1.2016820
  H       -2.8462050     2.0977190    -0.1239210
units angstrom
no_reorient  #important for SAPT in psi4, default
symmetry c1  #important for SAPT in psi4, default
}

set PROPERTIES_ORIGIN ["COM"]
properties('MP2/aug-cc-pvtz', properties = ['dipole'])
--------------------------------------------------------------------------

    Molecular point group: c1
  Charge       = 0
  Multiplicity = 1
  Basis Set: AUG-CC-PVTZ
    Blend: AUG-CC-PVTZ
  Basis Set: (AUG-CC-PVTZ AUX)
    Blend: AUG-CC-PVTZ-JKFIT

    Orbital Energies [Eh]
    ---------------------

    Doubly Occupied:

       1A    -20.636714     2A    -20.565047     3A    -20.519090
       4A    -15.595174     5A    -11.406210     6A    -11.359958
       7A    -11.298837     8A    -11.249943     9A    -11.228179
      10A    -11.221967    11A     -1.480283    12A     -1.374952
      13A     -1.358244    14A     -1.241524    15A     -1.083823
      16A     -1.041139    17A     -0.933535    18A     -0.896083
      19A     -0.813477    20A     -0.792052    21A     -0.735782
      22A     -0.715175    23A     -0.684290    24A     -0.667540
      25A     -0.645134    26A     -0.629382    27A     -0.611712
      28A     -0.595047    29A     -0.573943    30A     -0.549984
      31A     -0.544438    32A     -0.526932    33A     -0.519303
      34A     -0.517534    35A     -0.498754    36A     -0.479517
      37A     -0.471188    38A     -0.429111    39A     -0.395331

  @DF-RHF Final Energy:  -512.87493798484411

   => Energetics <=

    Nuclear Repulsion Energy =            548.0042646504539334
    One-Electron Energy =               -1787.9857528720497157
    Two-Electron Energy =                 727.1065502367516729
    Total Energy =                       -512.8749379848441095
  Basis Set: (AUG-CC-PVTZ AUX)
    Blend: AUG-CC-PVTZ-RI
    Molecular point group: c1

    Geometry (in Angstrom), charge = 0, multiplicity = 1:

       Center              X                  Y                   Z               Mass
    ------------   -----------------  -----------------  -----------------  -----------------
         O           -1.969654816152     1.655351423000    -0.181070169152    15.994914619570
         O            1.669757183848    -1.228435577000     0.647514830848    15.994914619570
         O           -3.290440816152    -0.053926577000     0.498592830848    15.994914619570
         N            0.215006183848     0.262308423000    -0.266148169152    14.003074004430
         C           -0.979226616152    -0.468724577000     0.098382230848    12.000000000000
         C           -1.195893816152    -1.687663577000    -0.814756169152    12.000000000000
         C            2.579925183848     0.800805423000    -0.334160169152    12.000000000000
         C            1.486984683848    -0.115944377000     0.052202230848    12.000000000000
         C           -2.189898816152     0.359871423000     0.188197830848    12.000000000000
         C            3.951597183848     0.326070423000     0.119105830848    12.000000000000
         H           -0.782923816152    -0.895716577000     1.132568830848     1.007825032230
         H            0.075960183848     1.190608423000    -0.641419169152     1.007825032230
         H           -1.350608816152    -1.334319577000    -1.837156169152     1.007825032230
         H           -0.322962816152    -2.340699577000    -0.787827169152     1.007825032230
         H           -2.077874816152    -2.242142577000    -0.488654169152     1.007825032230
         H            2.548920183848     0.910741423000    -1.425163169152     1.007825032230
         H            2.356415183848     1.793059423000     0.077084830848     1.007825032230
         H            4.179141183848    -0.653441577000    -0.303260169152     1.007825032230
         H            4.720388183848     1.034411423000    -0.201329169152     1.007825032230
         H            3.991269183848     0.235395423000     1.205411830848     1.007825032230
         H           -2.845271816152     2.091717423000    -0.120191169152     1.007825032230

  Basis Set: AUG-CC-PVTZ
    Blend: AUG-CC-PVTZ
  Basis Set: (AUG-CC-PVTZ AUX)
    Blend: AUG-CC-PVTZ-JKFIT
	 Reference Energy          =    -512.8749379848441095 [Eh]
	 Singles Energy            =      -0.0000000000000000 [Eh]
	 Same-Spin Energy          =      -0.5129607829893803 [Eh]
	 Opposite-Spin Energy      =      -1.6178519280777655 [Eh]
	 Correlation Energy        =      -2.1308127110671458 [Eh]
	 Total Energy              =    -515.0057506959112743 [Eh]

	 ================> DF-SCS-MP2 Energies <==================
	-----------------------------------------------------------
	 SCS Same-Spin Scale       =       0.3333333333333333 [-]
	 SCS Opposite-Spin Scale   =       1.2000000000000000 [-]
	 SCS Same-Spin Energy      =      -0.1709869276631268 [Eh]
	 SCS Opposite-Spin Energy  =      -1.9414223136933184 [Eh]
	 SCS Correlation Energy    =      -2.1124092413564450 [Eh]
	 SCS Total Energy          =    -514.9873472262005407 [Eh]
	-----------------------------------------------------------

  Dipole Moment: [D]
     X:    -0.0139      Y:     3.5374      Z:    -1.9740     Total:     4.0510

*** Psi4 exiting successfully. Buy a developer a beer!
