                               Psi4 1.3.2 release

  ==> Input File <==

--------------------------------------------------------------------------
#psi4
#
memory 32 gb

molecule  {
0 1
  O       -1.9705880     1.6613530    -0.1848000
  O        1.6688240    -1.2224340     0.6437850
  O       -3.2913740    -0.0479250     0.4948630
  N        0.2140730     0.2683100    -0.2698780
  C       -0.9205746    -0.5304265     0.1400955
  C       -1.1968270    -1.6816620    -0.8184860
  C        2.5789920     0.8068070    -0.3378900
  C        1.4489184    -0.1859118     0.0923247
  C       -2.1908320     0.3658730     0.1844680
  C        3.9506640     0.3320720     0.1153760
  H       -0.7838570    -0.8897150     1.1288390
  H        0.0750270     1.1966100    -0.6451490
  H       -1.3515420    -1.3283180    -1.8408860
  H       -0.3238960    -2.3346980    -0.7915570
  H       -2.0788080    -2.2361410    -0.4923840
  H        2.5479870     0.9167430    -1.4288930
  H        2.3554820     1.7990610     0.0733550
  H        4.1782080    -0.6474400    -0.3069900
  H        4.7194550     1.0404130    -0.2050590
  H        3.9903360     0.2413970     1.2016820
  H       -2.8462050     2.0977190    -0.1239210
units angstrom
no_reorient  #important for SAPT in psi4, default
symmetry c1  #important for SAPT in psi4, default
}

set PROPERTIES_ORIGIN ["COM"]
properties('MP2/aug-cc-pvtz', properties = ['dipole'])
--------------------------------------------------------------------------

    Molecular point group: c1
  Charge       = 0
  Multiplicity = 1
  Basis Set: AUG-CC-PVTZ
    Blend: AUG-CC-PVTZ
  Basis Set: (AUG-CC-PVTZ AUX)
    Blend: AUG-CC-PVTZ-JKFIT

    Orbital Energies [Eh]
    ---------------------

    Doubly Occupied:

       1A    -20.636230     2A    -20.563766     3A    -20.530373
       4A    -15.588900     5A    -11.404697     6A    -11.352390
       7A    -11.296403     8A    -11.243730     9A    -11.226302
      10A    -11.217134    11A     -1.476933    12A     -1.405950
      13A     -1.372628    14A     -1.249841    15A     -1.068222
      16A     -1.030940    17A     -0.922930    18A     -0.876219
      19A     -0.821897    20A     -0.793128    21A     -0.726452
      22A     -0.714225    23A     -0.684338    24A     -0.665630
      25A     -0.639045    26A     -0.638247    27A     -0.612400
      28A     -0.607813    29A     -0.586334    30A     -0.547371
      31A     -0.543509    32A     -0.527708    33A     -0.524701
      34A     -0.518573    35A     -0.496567    36A     -0.493699
      37A     -0.464766    38A     -0.422696    39A     -0.404193

  @DF-RHF Final Energy:  -512.88378047443007

   => Energetics <=

    Nuclear Repulsion Energy =            548.1236911127241456
    One-Electron Energy =               -1788.2211893661567501
    Two-Electron Energy =                 727.2137177790025362
    Total Energy =                       -512.8837804744300684
  Basis Set: (AUG-CC-PVTZ AUX)
    Blend: AUG-CC-PVTZ-RI
    Molecular point group: c1

    Geometry (in Angstrom), charge = 0, multiplicity = 1:

       Center              X                  Y                   Z               Mass
    ------------   -----------------  -----------------  -----------------  -----------------
         O           -1.971511974556     1.667235504703    -0.188456369220    15.994914619570
         O            1.667900025444    -1.216551495297     0.640128630780    15.994914619570
         O           -3.292297974556    -0.042042495297     0.491206630780    15.994914619570
         N            0.213149025444     0.274192504703    -0.273534369220    14.003074004430
         C           -0.921498574556    -0.524543995297     0.136439130780    12.000000000000
         C           -1.197750974556    -1.675779495297    -0.822142369220    12.000000000000
         C            2.578068025444     0.812689504703    -0.341546369220    12.000000000000
         C            1.447994425444    -0.180029295297     0.088668330780    12.000000000000
         C           -2.191755974556     0.371755504703     0.180811630780    12.000000000000
         C            3.949740025444     0.337954504703     0.111719630780    12.000000000000
         H           -0.784780974556    -0.883832495297     1.125182630780     1.007825032230
         H            0.074103025444     1.202492504703    -0.648805369220     1.007825032230
         H           -1.352465974556    -1.322435495297    -1.844542369220     1.007825032230
         H           -0.324819974556    -2.328815495297    -0.795213369220     1.007825032230
         H           -2.079731974556    -2.230258495297    -0.496040369220     1.007825032230
         H            2.547063025444     0.922625504703    -1.432549369220     1.007825032230
         H            2.354558025444     1.804943504703     0.069698630780     1.007825032230
         H            4.177284025444    -0.641557495297    -0.310646369220     1.007825032230
         H            4.718531025444     1.046295504703    -0.208715369220     1.007825032230
         H            3.989412025444     0.247279504703     1.198025630780     1.007825032230
         H           -2.847128974556     2.103601504703    -0.127577369220     1.007825032230

  Basis Set: AUG-CC-PVTZ
    Blend: AUG-CC-PVTZ
  Basis Set: (AUG-CC-PVTZ AUX)
    Blend: AUG-CC-PVTZ-JKFIT
	 Reference Energy          =    -512.8837804744300684 [Eh]
	 Singles Energy            =      -0.0000000000000000 [Eh]
	 Same-Spin Energy          =      -0.5101520439313784 [Eh]
	 Opposite-Spin Energy      =      -1.6129052545274316 [Eh]
	 Correlation Energy        =      -2.1230572984588099 [Eh]
	 Total Energy              =    -515.0068377728888436 [Eh]

	 ================> DF-SCS-MP2 Energies <==================
	-----------------------------------------------------------
	 SCS Same-Spin Scale       =       0.3333333333333333 [-]
	 SCS Opposite-Spin Scale   =       1.2000000000000000 [-]
	 SCS Same-Spin Energy      =      -0.1700506813104594 [Eh]
	 SCS Opposite-Spin Energy  =      -1.9354863054329179 [Eh]
	 SCS Correlation Energy    =      -2.1055369867433775 [Eh]
	 SCS Total Energy          =    -514.9893174611734139 [Eh]
	-----------------------------------------------------------

  Dipole Moment: [D]
     X:    -0.1744      Y:     3.1714      Z:    -1.7415     Total:     3.6223

*** Psi4 exiting successfully. Buy a developer a beer!
