                               Psi4 1.3.2 release

  ==> Input File <==

--------------------------------------------------------------------------
#psi4
#
memory 32 gb

molecule  {
0 1
  O       -1.9705880     1.6613530    -0.1848000
  O        1.6688240    -1.2224340     0.6437850
  O       -3.2873141    -0.0576498     0.4961120
  N        0.2140730     0.2683100    -0.2698780
  C       -0.9582307    -0.5075024     0.1212813
  C       -1.1968270    -1.6816620    -0.8184860
  C        2.5789920     0.8068070    -0.3378900
  C        1.4682490    -0.1481810     0.0706060
  C       -2.1908320     0.3658730     0.1844680
  C        3.9506640     0.3320720     0.1153760
  H       -0.7838570    -0.8897150     1.1288390
  H        0.0750270     1.1966100    -0.6451490
  H       -1.3515420    -1.3283180    -1.8408860
  H       -0.3238960    -2.3346980    -0.7915570
  H       -2.0788080    -2.2361410    -0.4923840
  H        2.5479870     0.9167430    -1.4288930
  H        2.3554820     1.7990610     0.0733550
  H        4.1782080    -0.6474400    -0.3069900
  H        4.7194550     1.0404130    -0.2050590
  H        3.9903360     0.2413970     1.2016820
  H       -2.8462050     2.0977190    -0.1239210
units angstrom
no_reorient  #important for SAPT in psi4, default
symmetry c1  #important for SAPT in psi4, default
}

set PROPERTIES_ORIGIN ["COM"]
properties('MP2/aug-cc-pvtz', properties = ['dipole'])
--------------------------------------------------------------------------

    Molecular point group: c1
  Charge       = 0
  Multiplicity = 1
  Basis Set: AUG-CC-PVTZ
    Blend: AUG-CC-PVTZ
  Basis Set: (AUG-CC-PVTZ AUX)
    Blend: AUG-CC-PVTZ-JKFIT

    Orbital Energies [Eh]
    ---------------------

    Doubly Occupied:

       1A    -20.637896     2A    -20.564889     3A    -20.523803
       4A    -15.590785     5A    -11.405944     6A    -11.355080
       7A    -11.297052     8A    -11.246733     9A    -11.226607
      10A    -11.219199    11A     -1.478934    12A     -1.379565
      13A     -1.374911    14A     -1.243040    15A     -1.075573
      16A     -1.036115    17A     -0.928188    18A     -0.885175
      19A     -0.817377    20A     -0.791359    21A     -0.730025
      22A     -0.715287    23A     -0.681802    24A     -0.666463
      25A     -0.641077    26A     -0.634028    27A     -0.611338
      28A     -0.602378    29A     -0.580350    30A     -0.547955
      31A     -0.544517    32A     -0.523146    33A     -0.521861
      34A     -0.519521    35A     -0.497807    36A     -0.488818
      37A     -0.468574    38A     -0.427359    39A     -0.400243

  @DF-RHF Final Energy:  -512.88588388020946

   => Energetics <=

    Nuclear Repulsion Energy =            547.9488584992168398
    One-Electron Energy =               -1787.9079384666426904
    Two-Electron Energy =                 727.0731960872163882
    Total Energy =                       -512.8858838802094624
  Basis Set: (AUG-CC-PVTZ AUX)
    Blend: AUG-CC-PVTZ-RI
    Molecular point group: c1

    Geometry (in Angstrom), charge = 0, multiplicity = 1:

       Center              X                  Y                   Z               Mass
    ------------   -----------------  -----------------  -----------------  -----------------
         O           -1.970443772396     1.663290539544    -0.185241337616    15.994914619570
         O            1.668968227604    -1.220496460456     0.643343662384    15.994914619570
         O           -3.287169872396    -0.055712260456     0.495670662384    15.994914619570
         N            0.214217227604     0.270247539544    -0.270319337616    14.003074004430
         C           -0.958086472396    -0.505564860456     0.120839962384    12.000000000000
         C           -1.196682772396    -1.679724460456    -0.818927337616    12.000000000000
         C            2.579136227604     0.808744539544    -0.338331337616    12.000000000000
         C            1.468393227604    -0.146243460456     0.070164662384    12.000000000000
         C           -2.190687772396     0.367810539544     0.184026662384    12.000000000000
         C            3.950808227604     0.334009539544     0.114934662384    12.000000000000
         H           -0.783712772396    -0.887777460456     1.128397662384     1.007825032230
         H            0.075171227604     1.198547539544    -0.645590337616     1.007825032230
         H           -1.351397772396    -1.326380460456    -1.841327337616     1.007825032230
         H           -0.323751772396    -2.332760460456    -0.791998337616     1.007825032230
         H           -2.078663772396    -2.234203460456    -0.492825337616     1.007825032230
         H            2.548131227604     0.918680539544    -1.429334337616     1.007825032230
         H            2.355626227604     1.800998539544     0.072913662384     1.007825032230
         H            4.178352227604    -0.645502460456    -0.307431337616     1.007825032230
         H            4.719599227604     1.042350539544    -0.205500337616     1.007825032230
         H            3.990480227604     0.243334539544     1.201240662384     1.007825032230
         H           -2.846060772396     2.099656539544    -0.124362337616     1.007825032230

  Basis Set: AUG-CC-PVTZ
    Blend: AUG-CC-PVTZ
  Basis Set: (AUG-CC-PVTZ AUX)
    Blend: AUG-CC-PVTZ-JKFIT
	 Reference Energy          =    -512.8858838802094624 [Eh]
	 Singles Energy            =      -0.0000000000000000 [Eh]
	 Same-Spin Energy          =      -0.5112639831926991 [Eh]
	 Opposite-Spin Energy      =      -1.6149440628650928 [Eh]
	 Correlation Energy        =      -2.1262080460577919 [Eh]
	 Total Energy              =    -515.0120919262672032 [Eh]

	 ================> DF-SCS-MP2 Energies <==================
	-----------------------------------------------------------
	 SCS Same-Spin Scale       =       0.3333333333333333 [-]
	 SCS Opposite-Spin Scale   =       1.2000000000000000 [-]
	 SCS Same-Spin Energy      =      -0.1704213277308997 [Eh]
	 SCS Opposite-Spin Energy  =      -1.9379328754381113 [Eh]
	 SCS Correlation Energy    =      -2.1083542031690108 [Eh]
	 SCS Total Energy          =    -514.9942380833784910 [Eh]
	-----------------------------------------------------------

  Dipole Moment: [D]
     X:    -0.1548      Y:     3.3796      Z:    -1.8606     Total:     3.8610

*** Psi4 exiting successfully. Buy a developer a beer!
