                               Psi4 1.4a3.dev225

  ==> Input File <==

--------------------------------------------------------------------------
#psi4
#
memory 32 gb

molecule  {
0 1
  O       -2.1439760    -1.5096120     0.4578230
  O        1.6019480     1.2946100    -0.5777250
  O       -3.1849820    -0.0999640    -0.9818910
  N        0.1649120    -0.2715720     0.2333030
  C       -1.0051050     0.5087660    -0.1211110
  C       -1.3212480     1.5963590     0.9125160
  C        2.5597860    -0.6480590     0.5035240
  C        1.4033283     0.2276198    -0.0105891
  C       -2.2159370    -0.3767160    -0.3010400
  C        3.7806550    -0.5458820    -0.4040570
  H       -0.8075500     0.9861290    -1.0847450
  H        0.0342290    -1.1271740     0.7572540
  H       -1.5188550     1.1449870     1.8886910
  H       -0.4592110     2.2615650     0.9886780
  H       -2.1947650     2.1753270     0.6002850
  H        2.8115640    -0.2961200     1.5118980
  H        2.2315720    -1.6889350     0.6045970
  H        4.0689510     0.4992230    -0.5227640
  H        4.6219880    -1.1034150     0.0157220
  H        3.5611410    -0.9492480    -1.3958190
  H       -2.9864200    -1.9858630     0.3018850
units angstrom
no_reorient  #important for SAPT in psi4, default
symmetry c1  #important for SAPT in psi4, default
}

set PROPERTIES_ORIGIN ["COM"]
properties('MP2/aug-cc-pvtz', properties = ['dipole'])
--------------------------------------------------------------------------

    Molecular point group: c1
  Charge       = 0
  Multiplicity = 1
  Basis Set: AUG-CC-PVTZ
    Blend: AUG-CC-PVTZ
  Basis Set: (AUG-CC-PVTZ AUX)
    Blend: AUG-CC-PVTZ-JKFIT

    Orbital Energies [Eh]
    ---------------------

    Doubly Occupied:

       1A    -20.634856     2A    -20.565505     3A    -20.523543
       4A    -15.596301     5A    -11.404301     6A    -11.355383
       7A    -11.296832     8A    -11.246545     9A    -11.234009
      10A    -11.220556    11A     -1.476894    12A     -1.385867
      13A     -1.373066    14A     -1.249818    15A     -1.074176
      16A     -1.036109    17A     -0.928815    18A     -0.882784
      19A     -0.822580    20A     -0.797065    21A     -0.728284
      22A     -0.714912    23A     -0.679753    24A     -0.661439
      25A     -0.642404    26A     -0.629246    27A     -0.609276
      28A     -0.602791    29A     -0.595640    30A     -0.553083
      31A     -0.542862    32A     -0.533606    33A     -0.523376
      34A     -0.513798    35A     -0.497751    36A     -0.489037
      37A     -0.469568    38A     -0.425314    39A     -0.402415

  @DF-RHF Final Energy:  -512.88700602092661

   => Energetics <=

    Nuclear Repulsion Energy =            547.9245181459561991
    One-Electron Energy =               -1787.7839321762653526
    Two-Electron Energy =                 726.9724080093825478
    Total Energy =                       -512.8870060209266057
  Basis Set: (AUG-CC-PVTZ AUX)
    Blend: AUG-CC-PVTZ-RI
    Molecular point group: c1

    Geometry (in Angstrom), charge = 0, multiplicity = 1:

       Center              X                  Y                   Z               Mass
    ------------   -----------------  -----------------  -----------------  -----------------
         O           -2.078834898487    -1.511129701948     0.483401998584    15.994914619570
         O            1.667089101513     1.293092298052    -0.552146001416    15.994914619570
         O           -3.119840898487    -0.101481701948    -0.956312001416    15.994914619570
         N            0.230053101513    -0.273089701948     0.258881998584    14.003074004430
         C           -0.939963898487     0.507248298052    -0.095532001416    12.000000000000
         C           -1.256106898487     1.594841298052     0.938094998584    12.000000000000
         C            2.624927101513    -0.649576701948     0.529102998584    12.000000000000
         C            1.468469401513     0.226102098052     0.014989898584    12.000000000000
         C           -2.150795898487    -0.378233701948    -0.275461001416    12.000000000000
         C            3.845796101513    -0.547399701948    -0.378478001416    12.000000000000
         H           -0.742408898487     0.984611298052    -1.059166001416     1.007825032230
         H            0.099370101513    -1.128691701948     0.782832998584     1.007825032230
         H           -1.453713898487     1.143469298052     1.914269998584     1.007825032230
         H           -0.394069898487     2.260047298052     1.014256998584     1.007825032230
         H           -2.129623898487     2.173809298052     0.625863998584     1.007825032230
         H            2.876705101513    -0.297637701948     1.537476998584     1.007825032230
         H            2.296713101513    -1.690452701948     0.630175998584     1.007825032230
         H            4.134092101513     0.497705298052    -0.497185001416     1.007825032230
         H            4.687129101513    -1.104932701948     0.041300998584     1.007825032230
         H            3.626282101513    -0.950765701948    -1.370240001416     1.007825032230
         H           -2.921278898487    -1.987380701948     0.327463998584     1.007825032230

  Basis Set: AUG-CC-PVTZ
    Blend: AUG-CC-PVTZ
  Basis Set: (AUG-CC-PVTZ AUX)
    Blend: AUG-CC-PVTZ-JKFIT
	 Reference Energy          =    -512.8870060209266057 [Eh]
	 Singles Energy            =      -0.0000000000000000 [Eh]
	 Same-Spin Energy          =      -0.5108624303901503 [Eh]
	 Opposite-Spin Energy      =      -1.6145153276207096 [Eh]
	 Correlation Energy        =      -2.1253777580108597 [Eh]
	 Total Energy              =    -515.0123837789374193 [Eh]

	 ================> DF-SCS-MP2 Energies <==================
	-----------------------------------------------------------
	 SCS Same-Spin Scale       =       0.3333333333333333 [-]
	 SCS Opposite-Spin Scale   =       1.2000000000000000 [-]
	 SCS Same-Spin Energy      =      -0.1702874767967168 [Eh]
	 SCS Opposite-Spin Energy  =      -1.9374183931448514 [Eh]
	 SCS Correlation Energy    =      -2.1077058699415683 [Eh]
	 SCS Total Energy          =    -514.9947118908681887 [Eh]
	-----------------------------------------------------------

  Dipole Moment: [D]
     X:    -0.3096      Y:    -2.9883      Z:     2.6239     Total:     3.9889

*** Psi4 exiting successfully. Buy a developer a beer!
