                               Psi4 1.3.2 release

  ==> Input File <==

--------------------------------------------------------------------------
#psi4
#
memory 32 gb

molecule  {
0 1
  O       -1.9705880     1.6613530    -0.1848000
  O        1.6688240    -1.2224340     0.6437850
  O       -3.2913740    -0.0479250     0.4948630
  N        0.2140730     0.2683100    -0.2698780
  C       -0.9510770    -0.4970410     0.1176100
  C       -1.1968270    -1.6816620    -0.8184860
  C        2.5789920     0.8068070    -0.3378900
  C        1.4682490    -0.1481810     0.0706060
  C       -2.1919435     0.3631781     0.1973364
  C        3.9506640     0.3320720     0.1153760
  H       -0.7916261    -0.8850230     1.1319003
  H        0.0750270     1.1966100    -0.6451490
  H       -1.3515420    -1.3283180    -1.8408860
  H       -0.3238960    -2.3346980    -0.7915570
  H       -2.0788080    -2.2361410    -0.4923840
  H        2.5479870     0.9167430    -1.4288930
  H        2.3554820     1.7990610     0.0733550
  H        4.1782080    -0.6474400    -0.3069900
  H        4.7194550     1.0404130    -0.2050590
  H        3.9903360     0.2413970     1.2016820
  H       -2.8462050     2.0977190    -0.1239210
units angstrom
no_reorient  #important for SAPT in psi4, default
symmetry c1  #important for SAPT in psi4, default
}

set PROPERTIES_ORIGIN ["COM"]
properties('MP2/aug-cc-pvtz', properties = ['dipole'])
--------------------------------------------------------------------------

    Molecular point group: c1
  Charge       = 0
  Multiplicity = 1
  Basis Set: AUG-CC-PVTZ
    Blend: AUG-CC-PVTZ
  Basis Set: (AUG-CC-PVTZ AUX)
    Blend: AUG-CC-PVTZ-JKFIT

    Orbital Energies [Eh]
    ---------------------

    Doubly Occupied:

       1A    -20.634712     2A    -20.565788     3A    -20.524490
       4A    -15.591632     5A    -11.405386     6A    -11.355842
       7A    -11.297266     8A    -11.247197     9A    -11.227095
      10A    -11.219524    11A     -1.477250    12A     -1.380518
      13A     -1.375607    14A     -1.245911    15A     -1.075486
      16A     -1.035779    17A     -0.928016    18A     -0.885677
      19A     -0.815576    20A     -0.792217    21A     -0.730791
      22A     -0.714414    23A     -0.682727    24A     -0.665628
      25A     -0.641232    26A     -0.633901    27A     -0.610782
      28A     -0.602564    29A     -0.580882    30A     -0.547592
      31A     -0.544725    32A     -0.524404    33A     -0.521436
      34A     -0.519801    35A     -0.498797    36A     -0.489093
      37A     -0.468337    38A     -0.428177    39A     -0.400361

  @DF-RHF Final Energy:  -512.88610623824070

   => Energetics <=

    Nuclear Repulsion Energy =            547.9994362538503765
    One-Electron Energy =               -1787.9978608982037258
    Two-Electron Energy =                 727.1123184061125357
    Total Energy =                       -512.8861062382406999
  Basis Set: (AUG-CC-PVTZ AUX)
    Blend: AUG-CC-PVTZ-RI
    Molecular point group: c1

    Geometry (in Angstrom), charge = 0, multiplicity = 1:

       Center              X                  Y                   Z               Mass
    ------------   -----------------  -----------------  -----------------  -----------------
         O           -1.970441971608     1.661543332964    -0.185885649314    15.994914619570
         O            1.668970028392    -1.222243667036     0.642699350686    15.994914619570
         O           -3.291227971608    -0.047734667036     0.493777350686    15.994914619570
         N            0.214219028392     0.268500332964    -0.270963649314    14.003074004430
         C           -0.950930971608    -0.496850667036     0.116524350686    12.000000000000
         C           -1.196680971608    -1.681471667036    -0.819571649314    12.000000000000
         C            2.579138028392     0.806997332964    -0.338975649314    12.000000000000
         C            1.468395028392    -0.147990667036     0.069520350686    12.000000000000
         C           -2.191797471608     0.363368432964     0.196250750686    12.000000000000
         C            3.950810028392     0.332262332964     0.114290350686    12.000000000000
         H           -0.791480071608    -0.884832667036     1.130814650686     1.007825032230
         H            0.075173028392     1.196800332964    -0.646234649314     1.007825032230
         H           -1.351395971608    -1.328127667036    -1.841971649314     1.007825032230
         H           -0.323749971608    -2.334507667036    -0.792642649314     1.007825032230
         H           -2.078661971608    -2.235950667036    -0.493469649314     1.007825032230
         H            2.548133028392     0.916933332964    -1.429978649314     1.007825032230
         H            2.355628028392     1.799251332964     0.072269350686     1.007825032230
         H            4.178354028392    -0.647249667036    -0.308075649314     1.007825032230
         H            4.719601028392     1.040603332964    -0.206144649314     1.007825032230
         H            3.990482028392     0.241587332964     1.200596350686     1.007825032230
         H           -2.846058971608     2.097909332964    -0.125006649314     1.007825032230

  Basis Set: AUG-CC-PVTZ
    Blend: AUG-CC-PVTZ
  Basis Set: (AUG-CC-PVTZ AUX)
    Blend: AUG-CC-PVTZ-JKFIT
	 Reference Energy          =    -512.8861062382406999 [Eh]
	 Singles Energy            =      -0.0000000000000000 [Eh]
	 Same-Spin Energy          =      -0.5112562943727035 [Eh]
	 Opposite-Spin Energy      =      -1.6148458447520715 [Eh]
	 Correlation Energy        =      -2.1261021391247752 [Eh]
	 Total Energy              =    -515.0122083773654822 [Eh]

	 ================> DF-SCS-MP2 Energies <==================
	-----------------------------------------------------------
	 SCS Same-Spin Scale       =       0.3333333333333333 [-]
	 SCS Opposite-Spin Scale   =       1.2000000000000000 [-]
	 SCS Same-Spin Energy      =      -0.1704187647909012 [Eh]
	 SCS Opposite-Spin Energy  =      -1.9378150137024857 [Eh]
	 SCS Correlation Energy    =      -2.1082337784933869 [Eh]
	 SCS Total Energy          =    -514.9943400167340997 [Eh]
	-----------------------------------------------------------

  Dipole Moment: [D]
     X:    -0.1149      Y:     3.3265      Z:    -1.8330     Total:     3.7998

*** Psi4 exiting successfully. Buy a developer a beer!
