                               Psi4 1.4a3.dev225

  ==> Input File <==

--------------------------------------------------------------------------
#psi4
#
memory 32 gb

molecule  {
0 1
  O       -2.1439760    -1.5096120     0.4578230
  O        1.6019480     1.2946100    -0.5777250
  O       -3.1849820    -0.0999640    -0.9818910
  N        0.1649120    -0.2715720     0.2333030
  C       -1.0051050     0.5087660    -0.1211110
  C       -1.3212480     1.5963590     0.9125160
  C        2.5597860    -0.6480590     0.5035240
  C        1.4183570     0.2162400    -0.0039080
  C       -2.2159370    -0.3767160    -0.3010400
  C        3.7806550    -0.5458820    -0.4040570
  H       -0.8075500     0.9861290    -1.0847450
  H        0.0406872    -1.0848911     0.7313609
  H       -1.5188550     1.1449870     1.8886910
  H       -0.4592110     2.2615650     0.9886780
  H       -2.1947650     2.1753270     0.6002850
  H        2.8115640    -0.2961200     1.5118980
  H        2.2315720    -1.6889350     0.6045970
  H        4.0689510     0.4992230    -0.5227640
  H        4.6219880    -1.1034150     0.0157220
  H        3.5611410    -0.9492480    -1.3958190
  H       -2.9864200    -1.9858630     0.3018850
units angstrom
no_reorient  #important for SAPT in psi4, default
symmetry c1  #important for SAPT in psi4, default
}

set PROPERTIES_ORIGIN ["COM"]
properties('MP2/aug-cc-pvtz', properties = ['dipole'])
--------------------------------------------------------------------------

    Molecular point group: c1
  Charge       = 0
  Multiplicity = 1
  Basis Set: AUG-CC-PVTZ
    Blend: AUG-CC-PVTZ
  Basis Set: (AUG-CC-PVTZ AUX)
    Blend: AUG-CC-PVTZ-JKFIT

    Orbital Energies [Eh]
    ---------------------

    Doubly Occupied:

       1A    -20.634218     2A    -20.565122     3A    -20.523259
       4A    -15.591573     5A    -11.403956     6A    -11.357378
       7A    -11.296566     8A    -11.248135     9A    -11.233568
      10A    -11.222150    11A     -1.476347    12A     -1.380473
      13A     -1.372563    14A     -1.251908    15A     -1.076884
      16A     -1.038809    17A     -0.928758    18A     -0.886714
      19A     -0.826500    20A     -0.800481    21A     -0.729757
      22A     -0.715517    23A     -0.680953    24A     -0.661392
      25A     -0.642909    26A     -0.630245    27A     -0.609234
      28A     -0.602726    29A     -0.594921    30A     -0.552645
      31A     -0.542357    32A     -0.534794    33A     -0.524188
      34A     -0.514610    35A     -0.498038    36A     -0.488074
      37A     -0.468974    38A     -0.428087    39A     -0.401624

  @DF-RHF Final Energy:  -512.88605372548204

   => Energetics <=

    Nuclear Repulsion Energy =            548.0470703539605211
    One-Electron Energy =               -1787.9934345710537400
    Two-Electron Energy =                 727.0603104916110624
    Total Energy =                       -512.8860537254820429
  Basis Set: (AUG-CC-PVTZ AUX)
    Blend: AUG-CC-PVTZ-RI
    Molecular point group: c1

    Geometry (in Angstrom), charge = 0, multiplicity = 1:

       Center              X                  Y                   Z               Mass
    ------------   -----------------  -----------------  -----------------  -----------------
         O           -2.080122884433    -1.510482143433     0.483029240368    15.994914619570
         O            1.665801115567     1.293739856567    -0.552518759632    15.994914619570
         O           -3.121128884433    -0.100834143433    -0.956684759632    15.994914619570
         N            0.228765115567    -0.272442143433     0.258509240368    14.003074004430
         C           -0.941251884433     0.507895856567    -0.095904759632    12.000000000000
         C           -1.257394884433     1.595488856567     0.937722240368    12.000000000000
         C            2.623639115567    -0.648929143433     0.528730240368    12.000000000000
         C            1.482210115567     0.215369856567     0.021298240368    12.000000000000
         C           -2.152083884433    -0.377586143433    -0.275833759632    12.000000000000
         C            3.844508115567    -0.546752143433    -0.378850759632    12.000000000000
         H           -0.743696884433     0.985258856567    -1.059538759632     1.007825032230
         H            0.104540315567    -1.085761243433     0.756567140368     1.007825032230
         H           -1.455001884433     1.144116856567     1.913897240368     1.007825032230
         H           -0.395357884433     2.260694856567     1.013884240368     1.007825032230
         H           -2.130911884433     2.174456856567     0.625491240368     1.007825032230
         H            2.875417115567    -0.296990143433     1.537104240368     1.007825032230
         H            2.295425115567    -1.689805143433     0.629803240368     1.007825032230
         H            4.132804115567     0.498352856567    -0.497557759632     1.007825032230
         H            4.685841115567    -1.104285143433     0.040928240368     1.007825032230
         H            3.624994115567    -0.950118143433    -1.370612759632     1.007825032230
         H           -2.922566884433    -1.986733143433     0.327091240368     1.007825032230

  Basis Set: AUG-CC-PVTZ
    Blend: AUG-CC-PVTZ
  Basis Set: (AUG-CC-PVTZ AUX)
    Blend: AUG-CC-PVTZ-JKFIT
	 Reference Energy          =    -512.8860537254820429 [Eh]
	 Singles Energy            =      -0.0000000000000000 [Eh]
	 Same-Spin Energy          =      -0.5107384495882031 [Eh]
	 Opposite-Spin Energy      =      -1.6142137133017893 [Eh]
	 Correlation Energy        =      -2.1249521628899926 [Eh]
	 Total Energy              =    -515.0110058883719830 [Eh]

	 ================> DF-SCS-MP2 Energies <==================
	-----------------------------------------------------------
	 SCS Same-Spin Scale       =       0.3333333333333333 [-]
	 SCS Opposite-Spin Scale   =       1.2000000000000000 [-]
	 SCS Same-Spin Energy      =      -0.1702461498627344 [Eh]
	 SCS Opposite-Spin Energy  =      -1.9370564559621470 [Eh]
	 SCS Correlation Energy    =      -2.1073026058248816 [Eh]
	 SCS Total Energy          =    -514.9933563313069271 [Eh]
	-----------------------------------------------------------

  Dipole Moment: [D]
     X:    -0.1885      Y:    -2.9992      Z:     2.6267     Total:     3.9913

*** Psi4 exiting successfully. Buy a developer a beer!
