                               Psi4 1.3.2 release

  ==> Input File <==

--------------------------------------------------------------------------
#psi4
#
memory 32 gb

molecule  {
0 1
  O       -1.9591207     1.6587913    -0.1867554
  O        1.6688240    -1.2224340     0.6437850
  O       -3.2913740    -0.0479250     0.4948630
  N        0.2140730     0.2683100    -0.2698780
  C       -0.9441190    -0.4866227     0.1134700
  C       -1.1968270    -1.6816620    -0.8184860
  C        2.5789920     0.8068070    -0.3378900
  C        1.4682490    -0.1481810     0.0706060
  C       -2.1908320     0.3658730     0.1844680
  C        3.9506640     0.3320720     0.1153760
  H       -0.7838570    -0.8897150     1.1288390
  H        0.0750270     1.1966100    -0.6451490
  H       -1.3515420    -1.3283180    -1.8408860
  H       -0.3238960    -2.3346980    -0.7915570
  H       -2.0788080    -2.2361410    -0.4923840
  H        2.5479870     0.9167430    -1.4288930
  H        2.3554820     1.7990610     0.0733550
  H        4.1782080    -0.6474400    -0.3069900
  H        4.7194550     1.0404130    -0.2050590
  H        3.9903360     0.2413970     1.2016820
  H       -2.8462050     2.0977190    -0.1239210
units angstrom
no_reorient  #important for SAPT in psi4, default
symmetry c1  #important for SAPT in psi4, default
}

set PROPERTIES_ORIGIN ["COM"]
properties('MP2/aug-cc-pvtz', properties = ['dipole'])
--------------------------------------------------------------------------

    Molecular point group: c1
  Charge       = 0
  Multiplicity = 1
  Basis Set: AUG-CC-PVTZ
    Blend: AUG-CC-PVTZ
  Basis Set: (AUG-CC-PVTZ AUX)
    Blend: AUG-CC-PVTZ-JKFIT

    Orbital Energies [Eh]
    ---------------------

    Doubly Occupied:

       1A    -20.637786     2A    -20.565080     3A    -20.525010
       4A    -15.591810     5A    -11.405736     6A    -11.356310
       7A    -11.296284     8A    -11.247528     9A    -11.226537
      10A    -11.219750    11A     -1.477504    12A     -1.381174
      13A     -1.373638    14A     -1.248596    15A     -1.075019
      16A     -1.034909    17A     -0.927502    18A     -0.886092
      19A     -0.814717    20A     -0.793737    21A     -0.731781
      22A     -0.714206    23A     -0.683460    24A     -0.665639
      25A     -0.641633    26A     -0.633942    27A     -0.609842
      28A     -0.602705    29A     -0.581159    30A     -0.546493
      31A     -0.543965    32A     -0.525347    33A     -0.520750
      34A     -0.519441    35A     -0.498167    36A     -0.488204
      37A     -0.468159    38A     -0.428680    39A     -0.399447

  @DF-RHF Final Energy:  -512.88456421256478

   => Energetics <=

    Nuclear Repulsion Energy =            548.2507783878479586
    One-Electron Energy =               -1788.4952084168598958
    Two-Electron Energy =                 727.3598658164471544
    Total Energy =                       -512.8845642125647828
  Basis Set: (AUG-CC-PVTZ AUX)
    Blend: AUG-CC-PVTZ-RI
    Molecular point group: c1

    Geometry (in Angstrom), charge = 0, multiplicity = 1:

       Center              X                  Y                   Z               Mass
    ------------   -----------------  -----------------  -----------------  -----------------
         O           -1.960960434666     1.658211987167    -0.186197317933    15.994914619570
         O            1.666984265334    -1.223013312833     0.644343082067    15.994914619570
         O           -3.293213734666    -0.048504312833     0.495421082067    15.994914619570
         N            0.212233265334     0.267730687167    -0.269319917933    14.003074004430
         C           -0.945958734666    -0.487202012833     0.114028082067    12.000000000000
         C           -1.198666734666    -1.682241312833    -0.817927917933    12.000000000000
         C            2.577152265334     0.806227687167    -0.337331917933    12.000000000000
         C            1.466409265334    -0.148760312833     0.071164082067    12.000000000000
         C           -2.192671734666     0.365293687167     0.185026082067    12.000000000000
         C            3.948824265334     0.331492687167     0.115934082067    12.000000000000
         H           -0.785696734666    -0.890294312833     1.129397082067     1.007825032230
         H            0.073187265334     1.196030687167    -0.644590917933     1.007825032230
         H           -1.353381734666    -1.328897312833    -1.840327917933     1.007825032230
         H           -0.325735734666    -2.335277312833    -0.790998917933     1.007825032230
         H           -2.080647734666    -2.236720312833    -0.491825917933     1.007825032230
         H            2.546147265334     0.916163687167    -1.428334917933     1.007825032230
         H            2.353642265334     1.798481687167     0.073913082067     1.007825032230
         H            4.176368265334    -0.648019312833    -0.306431917933     1.007825032230
         H            4.717615265334     1.039833687167    -0.204500917933     1.007825032230
         H            3.988496265334     0.240817687167     1.202240082067     1.007825032230
         H           -2.848044734666     2.097139687167    -0.123362917933     1.007825032230

  Basis Set: AUG-CC-PVTZ
    Blend: AUG-CC-PVTZ
  Basis Set: (AUG-CC-PVTZ AUX)
    Blend: AUG-CC-PVTZ-JKFIT
	 Reference Energy          =    -512.8845642125647828 [Eh]
	 Singles Energy            =      -0.0000000000000000 [Eh]
	 Same-Spin Energy          =      -0.5116855635435309 [Eh]
	 Opposite-Spin Energy      =      -1.6155283412142452 [Eh]
	 Correlation Energy        =      -2.1272139047577761 [Eh]
	 Total Energy              =    -515.0117781173225922 [Eh]

	 ================> DF-SCS-MP2 Energies <==================
	-----------------------------------------------------------
	 SCS Same-Spin Scale       =       0.3333333333333333 [-]
	 SCS Opposite-Spin Scale   =       1.2000000000000000 [-]
	 SCS Same-Spin Energy      =      -0.1705618545145103 [Eh]
	 SCS Opposite-Spin Energy  =      -1.9386340094570942 [Eh]
	 SCS Correlation Energy    =      -2.1091958639716046 [Eh]
	 SCS Total Energy          =    -514.9937600765364323 [Eh]
	-----------------------------------------------------------

  Dipole Moment: [D]
     X:    -0.0779      Y:     3.3984      Z:    -1.8578     Total:     3.8738

*** Psi4 exiting successfully. Buy a developer a beer!
