                               Psi4 1.3.2 release

  ==> Input File <==

--------------------------------------------------------------------------
#psi4
#
memory 32 gb

molecule  {
0 1
  O       -1.9705880     1.6613530    -0.1848000
  O        1.6688240    -1.2224340     0.6437850
  O       -3.2913740    -0.0479250     0.4948630
  N        0.2140730     0.2683100    -0.2698780
  C       -0.9510770    -0.4970410     0.1176100
  C       -1.1968270    -1.6816620    -0.8184860
  C        2.5789920     0.8068070    -0.3378900
  C        1.4357412     0.0259265    -0.0222909
  C       -2.1908320     0.3658730     0.1844680
  C        3.9506640     0.3320720     0.1153760
  H       -0.7838570    -0.8897150     1.1288390
  H        0.0750270     1.1966100    -0.6451490
  H       -1.3515420    -1.3283180    -1.8408860
  H       -0.3238960    -2.3346980    -0.7915570
  H       -2.0788080    -2.2361410    -0.4923840
  H        2.5479870     0.9167430    -1.4288930
  H        2.3554820     1.7990610     0.0733550
  H        4.1782080    -0.6474400    -0.3069900
  H        4.7194550     1.0404130    -0.2050590
  H        3.9903360     0.2413970     1.2016820
  H       -2.8462050     2.0977190    -0.1239210
units angstrom
no_reorient  #important for SAPT in psi4, default
symmetry c1  #important for SAPT in psi4, default
}

set PROPERTIES_ORIGIN ["COM"]
properties('MP2/aug-cc-pvtz', properties = ['dipole'])
--------------------------------------------------------------------------

    Molecular point group: c1
  Charge       = 0
  Multiplicity = 1
  Basis Set: AUG-CC-PVTZ
    Blend: AUG-CC-PVTZ
  Basis Set: (AUG-CC-PVTZ AUX)
    Blend: AUG-CC-PVTZ-JKFIT

    Orbital Energies [Eh]
    ---------------------

    Doubly Occupied:

       1A    -20.643831     2A    -20.571962     3A    -20.484503
       4A    -15.620034     5A    -11.414226     6A    -11.355813
       7A    -11.310477     8A    -11.252862     9A    -11.231968
      10A    -11.222345    11A     -1.486224    12A     -1.381182
      13A     -1.340900    14A     -1.205211    15A     -1.096607
      16A     -1.054121    17A     -0.939162    18A     -0.906635
      19A     -0.829147    20A     -0.810764    21A     -0.745784
      22A     -0.721205    23A     -0.685688    24A     -0.675010
      25A     -0.651674    26A     -0.639132    27A     -0.618362
      28A     -0.596983    29A     -0.559262    30A     -0.547458
      31A     -0.544140    32A     -0.537847    33A     -0.523731
      34A     -0.503720    35A     -0.482444    36A     -0.475673
      37A     -0.469829    38A     -0.398223    39A     -0.377548

  @DF-RHF Final Energy:  -512.82088485094505

   => Energetics <=

    Nuclear Repulsion Energy =            547.7027809949458970
    One-Electron Energy =               -1787.2239555288567772
    Two-Electron Energy =                 726.7002896829658312
    Total Energy =                       -512.8208848509450490
  Basis Set: (AUG-CC-PVTZ AUX)
    Blend: AUG-CC-PVTZ-RI
    Molecular point group: c1

    Geometry (in Angstrom), charge = 0, multiplicity = 1:

       Center              X                  Y                   Z               Mass
    ------------   -----------------  -----------------  -----------------  -----------------
         O           -1.967898952335     1.646951458176    -0.177115850513    15.994914619570
         O            1.671513047665    -1.236835541824     0.651469149487    15.994914619570
         O           -3.288684952335    -0.062326541824     0.502547149487    15.994914619570
         N            0.216762047665     0.253908458176    -0.262193850513    14.003074004430
         C           -0.948387952335    -0.511442541824     0.125294149487    12.000000000000
         C           -1.194137952335    -1.696063541824    -0.810801850513    12.000000000000
         C            2.581681047665     0.792405458176    -0.330205850513    12.000000000000
         C            1.438430247665     0.011524958176    -0.014606750513    12.000000000000
         C           -2.188142952335     0.351471458176     0.192152149487    12.000000000000
         C            3.953353047665     0.317670458176     0.123060149487    12.000000000000
         H           -0.781167952335    -0.904116541824     1.136523149487     1.007825032230
         H            0.077716047665     1.182208458176    -0.637464850513     1.007825032230
         H           -1.348852952335    -1.342719541824    -1.833201850513     1.007825032230
         H           -0.321206952335    -2.349099541824    -0.783872850513     1.007825032230
         H           -2.076118952335    -2.250542541824    -0.484699850513     1.007825032230
         H            2.550676047665     0.902341458176    -1.421208850513     1.007825032230
         H            2.358171047665     1.784659458176     0.081039149487     1.007825032230
         H            4.180897047665    -0.661841541824    -0.299305850513     1.007825032230
         H            4.722144047665     1.026011458176    -0.197374850513     1.007825032230
         H            3.993025047665     0.226995458176     1.209366149487     1.007825032230
         H           -2.843515952335     2.083317458176    -0.116236850513     1.007825032230

  Basis Set: AUG-CC-PVTZ
    Blend: AUG-CC-PVTZ
  Basis Set: (AUG-CC-PVTZ AUX)
    Blend: AUG-CC-PVTZ-JKFIT
	 Reference Energy          =    -512.8208848509450490 [Eh]
	 Singles Energy            =      -0.0000000000000000 [Eh]
	 Same-Spin Energy          =      -0.5156670477832104 [Eh]
	 Opposite-Spin Energy      =      -1.6233306422445350 [Eh]
	 Correlation Energy        =      -2.1389976900277454 [Eh]
	 Total Energy              =    -514.9598825409727851 [Eh]

	 ================> DF-SCS-MP2 Energies <==================
	-----------------------------------------------------------
	 SCS Same-Spin Scale       =       0.3333333333333333 [-]
	 SCS Opposite-Spin Scale   =       1.2000000000000000 [-]
	 SCS Same-Spin Energy      =      -0.1718890159277368 [Eh]
	 SCS Opposite-Spin Energy  =      -1.9479967706934420 [Eh]
	 SCS Correlation Energy    =      -2.1198857866211789 [Eh]
	 SCS Total Energy          =    -514.9407706375661746 [Eh]
	-----------------------------------------------------------

  Dipole Moment: [D]
     X:    -0.7697      Y:     4.1889      Z:    -2.3990     Total:     4.8882

*** Psi4 exiting successfully. Buy a developer a beer!
