                               Psi4 1.3.2 release

  ==> Input File <==

--------------------------------------------------------------------------
#psi4
#
memory 32 gb

molecule  {
0 1
  O       -1.9705880     1.6613530    -0.1848000
  O        1.6688240    -1.2224340     0.6437850
  O       -3.2913740    -0.0479250     0.4948630
  N        0.2031362     0.2732998    -0.2920858
  C       -0.9510770    -0.4970410     0.1176100
  C       -1.1968270    -1.6816620    -0.8184860
  C        2.5789920     0.8068070    -0.3378900
  C        1.4682490    -0.1481810     0.0706060
  C       -2.1908320     0.3658730     0.1844680
  C        3.9506640     0.3320720     0.1153760
  H       -0.8010888    -0.8980643     1.1282649
  H        0.0750270     1.1966100    -0.6451490
  H       -1.3515420    -1.3283180    -1.8408860
  H       -0.3238960    -2.3346980    -0.7915570
  H       -2.0788080    -2.2361410    -0.4923840
  H        2.5479870     0.9167430    -1.4288930
  H        2.3554820     1.7990610     0.0733550
  H        4.1782080    -0.6474400    -0.3069900
  H        4.7194550     1.0404130    -0.2050590
  H        3.9903360     0.2413970     1.2016820
  H       -2.8462050     2.0977190    -0.1239210
units angstrom
no_reorient  #important for SAPT in psi4, default
symmetry c1  #important for SAPT in psi4, default
}

set PROPERTIES_ORIGIN ["COM"]
properties('MP2/aug-cc-pvtz', properties = ['dipole'])
--------------------------------------------------------------------------

    Molecular point group: c1
  Charge       = 0
  Multiplicity = 1
  Basis Set: AUG-CC-PVTZ
    Blend: AUG-CC-PVTZ
  Basis Set: (AUG-CC-PVTZ AUX)
    Blend: AUG-CC-PVTZ-JKFIT

    Orbital Energies [Eh]
    ---------------------

    Doubly Occupied:

       1A    -20.635797     2A    -20.563640     3A    -20.528242
       4A    -15.590205     5A    -11.404594     6A    -11.358759
       7A    -11.296562     8A    -11.247911     9A    -11.225942
      10A    -11.220157    11A     -1.477876    12A     -1.380964
      13A     -1.373031    14A     -1.245017    15A     -1.074867
      16A     -1.035387    17A     -0.927151    18A     -0.886302
      19A     -0.817124    20A     -0.790969    21A     -0.730574
      22A     -0.714488    23A     -0.683331    24A     -0.665280
      25A     -0.641341    26A     -0.634137    27A     -0.609616
      28A     -0.604814    29A     -0.580225    30A     -0.546729
      31A     -0.544069    32A     -0.525460    33A     -0.521201
      34A     -0.520271    35A     -0.497606    36A     -0.488665
      37A     -0.467593    38A     -0.429394    39A     -0.400696

  @DF-RHF Final Energy:  -512.88528200169537

   => Energetics <=

    Nuclear Repulsion Energy =            547.8031434646411526
    One-Electron Energy =               -1787.6048776675575027
    Two-Electron Energy =                 726.9164522012209773
    Total Energy =                       -512.8852820016953729
  Basis Set: (AUG-CC-PVTZ AUX)
    Blend: AUG-CC-PVTZ-RI
    Molecular point group: c1

    Geometry (in Angstrom), charge = 0, multiplicity = 1:

       Center              X                  Y                   Z               Mass
    ------------   -----------------  -----------------  -----------------  -----------------
         O           -1.969412513017     1.660929383837    -0.182652385881    15.994914619570
         O            1.669999486983    -1.222857616163     0.645932614119    15.994914619570
         O           -3.290198513017    -0.048348616163     0.497010614119    15.994914619570
         N            0.204311686983     0.272876183837    -0.289938185881    14.003074004430
         C           -0.949901513017    -0.497464616163     0.119757614119    12.000000000000
         C           -1.195651513017    -1.682085616163    -0.816338385881    12.000000000000
         C            2.580167486983     0.806383383837    -0.335742385881    12.000000000000
         C            1.469424486983    -0.148604616163     0.072753614119    12.000000000000
         C           -2.189656513017     0.365449383837     0.186615614119    12.000000000000
         C            3.951839486983     0.331648383837     0.117523614119    12.000000000000
         H           -0.799913313017    -0.898487916163     1.130412514119     1.007825032230
         H            0.076202486983     1.196186383837    -0.643001385881     1.007825032230
         H           -1.350366513017    -1.328741616163    -1.838738385881     1.007825032230
         H           -0.322720513017    -2.335121616163    -0.789409385881     1.007825032230
         H           -2.077632513017    -2.236564616163    -0.490236385881     1.007825032230
         H            2.549162486983     0.916319383837    -1.426745385881     1.007825032230
         H            2.356657486983     1.798637383837     0.075502614119     1.007825032230
         H            4.179383486983    -0.647863616163    -0.304842385881     1.007825032230
         H            4.720630486983     1.039989383837    -0.202911385881     1.007825032230
         H            3.991511486983     0.240973383837     1.203829614119     1.007825032230
         H           -2.845029513017     2.097295383837    -0.121773385881     1.007825032230

  Basis Set: AUG-CC-PVTZ
    Blend: AUG-CC-PVTZ
  Basis Set: (AUG-CC-PVTZ AUX)
    Blend: AUG-CC-PVTZ-JKFIT
	 Reference Energy          =    -512.8852820016953729 [Eh]
	 Singles Energy            =      -0.0000000000000000 [Eh]
	 Same-Spin Energy          =      -0.5112766817949757 [Eh]
	 Opposite-Spin Energy      =      -1.6150147580432797 [Eh]
	 Correlation Energy        =      -2.1262914398382553 [Eh]
	 Total Energy              =    -515.0115734415336419 [Eh]

	 ================> DF-SCS-MP2 Energies <==================
	-----------------------------------------------------------
	 SCS Same-Spin Scale       =       0.3333333333333333 [-]
	 SCS Opposite-Spin Scale   =       1.2000000000000000 [-]
	 SCS Same-Spin Energy      =      -0.1704255605983252 [Eh]
	 SCS Opposite-Spin Energy  =      -1.9380177096519355 [Eh]
	 SCS Correlation Energy    =      -2.1084432702502607 [Eh]
	 SCS Total Energy          =    -514.9937252719456637 [Eh]
	-----------------------------------------------------------

  Dipole Moment: [D]
     X:     0.0127      Y:     3.3393      Z:    -1.7995     Total:     3.7934

*** Psi4 exiting successfully. Buy a developer a beer!
