                               Psi4 1.3.2 release

  ==> Input File <==

--------------------------------------------------------------------------
#psi4
#
memory 32 gb

molecule  {
0 1
  O       -1.9937450     1.6659705    -0.1816437
  O        1.6688240    -1.2224340     0.6437850
  O       -3.2994038    -0.0285755     0.4914621
  N        0.2140730     0.2683100    -0.2698780
  C       -0.9510770    -0.4970410     0.1176100
  C       -1.1968270    -1.6816620    -0.8184860
  C        2.5789920     0.8068070    -0.3378900
  C        1.4682490    -0.1481810     0.0706060
  C       -2.1908320     0.3658730     0.1844680
  C        3.9506640     0.3320720     0.1153760
  H       -0.7838570    -0.8897150     1.1288390
  H        0.0750270     1.1966100    -0.6451490
  H       -1.3515420    -1.3283180    -1.8408860
  H       -0.3238960    -2.3346980    -0.7915570
  H       -2.0788080    -2.2361410    -0.4923840
  H        2.5479870     0.9167430    -1.4288930
  H        2.3554820     1.7990610     0.0733550
  H        4.1782080    -0.6474400    -0.3069900
  H        4.7194550     1.0404130    -0.2050590
  H        3.9903360     0.2413970     1.2016820
  H       -2.8462050     2.0977190    -0.1239210
units angstrom
no_reorient  #important for SAPT in psi4, default
symmetry c1  #important for SAPT in psi4, default
}

set PROPERTIES_ORIGIN ["COM"]
properties('MP2/aug-cc-pvtz', properties = ['dipole'])
--------------------------------------------------------------------------

    Molecular point group: c1
  Charge       = 0
  Multiplicity = 1
  Basis Set: AUG-CC-PVTZ
    Blend: AUG-CC-PVTZ
  Basis Set: (AUG-CC-PVTZ AUX)
    Blend: AUG-CC-PVTZ-JKFIT

    Orbital Energies [Eh]
    ---------------------

    Doubly Occupied:

       1A    -20.631638     2A    -20.563091     3A    -20.525431
       4A    -15.592833     5A    -11.405528     6A    -11.356756
       7A    -11.299381     8A    -11.247784     9A    -11.227934
      10A    -11.219978    11A     -1.480716    12A     -1.381383
      13A     -1.372212    14A     -1.247335    15A     -1.076593
      16A     -1.036726    17A     -0.930190    18A     -0.887117
      19A     -0.820749    20A     -0.793170    21A     -0.731940
      22A     -0.714616    23A     -0.683519    24A     -0.666311
      25A     -0.641797    26A     -0.633665    27A     -0.610674
      28A     -0.603545    29A     -0.581943    30A     -0.548242
      31A     -0.544890    32A     -0.525077    33A     -0.521746
      34A     -0.520269    35A     -0.497220    36A     -0.488424
      37A     -0.468447    38A     -0.429023    39A     -0.401218

  @DF-RHF Final Energy:  -512.88736624843762

   => Energetics <=

    Nuclear Repulsion Energy =            547.7949960112932786
    One-Electron Energy =               -1787.5465053341802104
    Two-Electron Energy =                 726.8641430744493164
    Total Energy =                       -512.8873662484376155
  Basis Set: (AUG-CC-PVTZ AUX)
    Blend: AUG-CC-PVTZ-RI
    Molecular point group: c1

    Geometry (in Angstrom), charge = 0, multiplicity = 1:

       Center              X                  Y                   Z               Mass
    ------------   -----------------  -----------------  -----------------  -----------------
         O           -1.990306426690     1.663328068264    -0.181616685916    15.994914619570
         O            1.672262573310    -1.225076431736     0.643812014084    15.994914619570
         O           -3.295965226690    -0.031217931736     0.491489114084    15.994914619570
         N            0.217511573310     0.265667568264    -0.269850985916    14.003074004430
         C           -0.947638426690    -0.499683431736     0.117637014084    12.000000000000
         C           -1.193388426690    -1.684304431736    -0.818458985916    12.000000000000
         C            2.582430573310     0.804164568264    -0.337862985916    12.000000000000
         C            1.471687573310    -0.150823431736     0.070633014084    12.000000000000
         C           -2.187393426690     0.363230568264     0.184495014084    12.000000000000
         C            3.954102573310     0.329429568264     0.115403014084    12.000000000000
         H           -0.780418426690    -0.892357431736     1.128866014084     1.007825032230
         H            0.078465573310     1.193967568264    -0.645121985916     1.007825032230
         H           -1.348103426690    -1.330960431736    -1.840858985916     1.007825032230
         H           -0.320457426690    -2.337340431736    -0.791529985916     1.007825032230
         H           -2.075369426690    -2.238783431736    -0.492356985916     1.007825032230
         H            2.551425573310     0.914100568264    -1.428865985916     1.007825032230
         H            2.358920573310     1.796418568264     0.073382014084     1.007825032230
         H            4.181646573310    -0.650082431736    -0.306962985916     1.007825032230
         H            4.722893573310     1.037770568264    -0.205031985916     1.007825032230
         H            3.993774573310     0.238754568264     1.201709014084     1.007825032230
         H           -2.842766426690     2.095076568264    -0.123893985916     1.007825032230

  Basis Set: AUG-CC-PVTZ
    Blend: AUG-CC-PVTZ
  Basis Set: (AUG-CC-PVTZ AUX)
    Blend: AUG-CC-PVTZ-JKFIT
	 Reference Energy          =    -512.8873662484376155 [Eh]
	 Singles Energy            =      -0.0000000000000000 [Eh]
	 Same-Spin Energy          =      -0.5107826946765429 [Eh]
	 Opposite-Spin Energy      =      -1.6138501489660801 [Eh]
	 Correlation Energy        =      -2.1246328436426229 [Eh]
	 Total Energy              =    -515.0119990920802593 [Eh]

	 ================> DF-SCS-MP2 Energies <==================
	-----------------------------------------------------------
	 SCS Same-Spin Scale       =       0.3333333333333333 [-]
	 SCS Opposite-Spin Scale   =       1.2000000000000000 [-]
	 SCS Same-Spin Energy      =      -0.1702608982255143 [Eh]
	 SCS Opposite-Spin Energy  =      -1.9366201787592960 [Eh]
	 SCS Correlation Energy    =      -2.1068810769848105 [Eh]
	 SCS Total Energy          =    -514.9942473254224069 [Eh]
	-----------------------------------------------------------

  Dipole Moment: [D]
     X:     0.0023      Y:     3.2842      Z:    -1.8611     Total:     3.7749

*** Psi4 exiting successfully. Buy a developer a beer!
