                               Psi4 1.3.2 release

  ==> Input File <==

--------------------------------------------------------------------------
#psi4
#
memory 32 gb

molecule  {
0 1
  O       -1.9015477     1.6451389    -0.1935903
  O        1.6688240    -1.2224340     0.6437850
  O       -3.2652834    -0.1051938     0.5044945
  N        0.2140730     0.2683100    -0.2698780
  C       -0.9510770    -0.4970410     0.1176100
  C       -1.1968270    -1.6816620    -0.8184860
  C        2.5789920     0.8068070    -0.3378900
  C        1.4682490    -0.1481810     0.0706060
  C       -2.1908320     0.3658730     0.1844680
  C        3.9506640     0.3320720     0.1153760
  H       -0.7838570    -0.8897150     1.1288390
  H        0.0750270     1.1966100    -0.6451490
  H       -1.3515420    -1.3283180    -1.8408860
  H       -0.3238960    -2.3346980    -0.7915570
  H       -2.0788080    -2.2361410    -0.4923840
  H        2.5479870     0.9167430    -1.4288930
  H        2.3554820     1.7990610     0.0733550
  H        4.1782080    -0.6474400    -0.3069900
  H        4.7194550     1.0404130    -0.2050590
  H        3.9903360     0.2413970     1.2016820
  H       -2.8462050     2.0977190    -0.1239210
units angstrom
no_reorient  #important for SAPT in psi4, default
symmetry c1  #important for SAPT in psi4, default
}

set PROPERTIES_ORIGIN ["COM"]
properties('MP2/aug-cc-pvtz', properties = ['dipole'])
--------------------------------------------------------------------------

    Molecular point group: c1
  Charge       = 0
  Multiplicity = 1
  Basis Set: AUG-CC-PVTZ
    Blend: AUG-CC-PVTZ
  Basis Set: (AUG-CC-PVTZ AUX)
    Blend: AUG-CC-PVTZ-JKFIT

    Orbital Energies [Eh]
    ---------------------

    Doubly Occupied:

       1A    -20.650386     2A    -20.568961     3A    -20.522148
       4A    -15.587938     5A    -11.406918     6A    -11.353351
       7A    -11.290556     8A    -11.245701     9A    -11.223602
      10A    -11.218374    11A     -1.473817    12A     -1.379736
      13A     -1.377334    14A     -1.242360    15A     -1.072403
      16A     -1.032839    17A     -0.923110    18A     -0.882706
      19A     -0.806756    20A     -0.791747    21A     -0.730165
      22A     -0.712665    23A     -0.680623    24A     -0.665626
      25A     -0.640566    26A     -0.634672    27A     -0.609255
      28A     -0.600276    29A     -0.577984    30A     -0.544702
      31A     -0.543290    32A     -0.522407    33A     -0.519961
      34A     -0.518461    35A     -0.499832    36A     -0.487823
      37A     -0.466790    38A     -0.425794    39A     -0.396946

  @DF-RHF Final Energy:  -512.87299877494911

   => Energetics <=

    Nuclear Repulsion Energy =            548.8874857712436324
    One-Electron Energy =               -1789.8638038664087162
    Two-Electron Energy =                 728.1033193202158600
    Total Energy =                       -512.8729987749491102
  Basis Set: (AUG-CC-PVTZ AUX)
    Blend: AUG-CC-PVTZ-RI
    Molecular point group: c1

    Geometry (in Angstrom), charge = 0, multiplicity = 1:

       Center              X                  Y                   Z               Mass
    ------------   -----------------  -----------------  -----------------  -----------------
         O           -1.912036104051     1.653240667621    -0.193682999242    15.994914619570
         O            1.658335595949    -1.214332232379     0.643692300758    15.994914619570
         O           -3.275771804051    -0.097092032379     0.504401800758    15.994914619570
         N            0.203584595949     0.276411767621    -0.269970699242    14.003074004430
         C           -0.961565404051    -0.488939232379     0.117517300758    12.000000000000
         C           -1.207315404051    -1.673560232379    -0.818578699242    12.000000000000
         C            2.568503595949     0.814908767621    -0.337982699242    12.000000000000
         C            1.457760595949    -0.140079232379     0.070513300758    12.000000000000
         C           -2.201320404051     0.373974767621     0.184375300758    12.000000000000
         C            3.940175595949     0.340173767621     0.115283300758    12.000000000000
         H           -0.794345404051    -0.881613232379     1.128746300758     1.007825032230
         H            0.064538595949     1.204711767621    -0.645241699242     1.007825032230
         H           -1.362030404051    -1.320216232379    -1.840978699242     1.007825032230
         H           -0.334384404051    -2.326596232379    -0.791649699242     1.007825032230
         H           -2.089296404051    -2.228039232379    -0.492476699242     1.007825032230
         H            2.537498595949     0.924844767621    -1.428985699242     1.007825032230
         H            2.344993595949     1.807162767621     0.073262300758     1.007825032230
         H            4.167719595949    -0.639338232379    -0.307082699242     1.007825032230
         H            4.708966595949     1.048514767621    -0.205151699242     1.007825032230
         H            3.979847595949     0.249498767621     1.201589300758     1.007825032230
         H           -2.856693404051     2.105820767621    -0.124013699242     1.007825032230

  Basis Set: AUG-CC-PVTZ
    Blend: AUG-CC-PVTZ
  Basis Set: (AUG-CC-PVTZ AUX)
    Blend: AUG-CC-PVTZ-JKFIT
	 Reference Energy          =    -512.8729987749491102 [Eh]
	 Singles Energy            =      -0.0000000000000000 [Eh]
	 Same-Spin Energy          =      -0.5131423371416698 [Eh]
	 Opposite-Spin Energy      =      -1.6186607336219780 [Eh]
	 Correlation Energy        =      -2.1318030707636479 [Eh]
	 Total Energy              =    -515.0048018457127910 [Eh]

	 ================> DF-SCS-MP2 Energies <==================
	-----------------------------------------------------------
	 SCS Same-Spin Scale       =       0.3333333333333333 [-]
	 SCS Opposite-Spin Scale   =       1.2000000000000000 [-]
	 SCS Same-Spin Energy      =      -0.1710474457138899 [Eh]
	 SCS Opposite-Spin Energy  =      -1.9423928803463735 [Eh]
	 SCS Correlation Energy    =      -2.1134403260602634 [Eh]
	 SCS Total Energy          =    -514.9864391010094096 [Eh]
	-----------------------------------------------------------

  Dipole Moment: [D]
     X:    -0.3724      Y:     3.6085      Z:    -1.8541     Total:     4.0740

*** Psi4 exiting successfully. Buy a developer a beer!
