                               Psi4 1.3.2 release

  ==> Input File <==

--------------------------------------------------------------------------
#psi4
#
memory 32 gb

molecule  {
0 1
  O       -1.9705880     1.6613530    -0.1848000
  O        1.6688240    -1.2224340     0.6437850
  O       -3.2913740    -0.0479250     0.4948630
  N        0.2140730     0.2683100    -0.2698780
  C       -0.9510770    -0.4970410     0.1176100
  C       -1.1968270    -1.6816620    -0.8184860
  C        2.5789920     0.8068070    -0.3378900
  C        1.4863011    -0.1639089     0.0820604
  C       -2.1908320     0.3658730     0.1844680
  C        3.9393910     0.3106727     0.1263004
  H       -0.7838570    -0.8897150     1.1288390
  H        0.0750270     1.1966100    -0.6451490
  H       -1.3515420    -1.3283180    -1.8408860
  H       -0.3238960    -2.3346980    -0.7915570
  H       -2.0788080    -2.2361410    -0.4923840
  H        2.5479870     0.9167430    -1.4288930
  H        2.3554820     1.7990610     0.0733550
  H        4.1782080    -0.6474400    -0.3069900
  H        4.7194550     1.0404130    -0.2050590
  H        3.9903360     0.2413970     1.2016820
  H       -2.8462050     2.0977190    -0.1239210
units angstrom
no_reorient  #important for SAPT in psi4, default
symmetry c1  #important for SAPT in psi4, default
}

set PROPERTIES_ORIGIN ["COM"]
properties('MP2/aug-cc-pvtz', properties = ['dipole'])
--------------------------------------------------------------------------

    Molecular point group: c1
  Charge       = 0
  Multiplicity = 1
  Basis Set: AUG-CC-PVTZ
    Blend: AUG-CC-PVTZ
  Basis Set: (AUG-CC-PVTZ AUX)
    Blend: AUG-CC-PVTZ-JKFIT

    Orbital Energies [Eh]
    ---------------------

    Doubly Occupied:

       1A    -20.634925     2A    -20.562970     3A    -20.530427
       4A    -15.586188     5A    -11.403919     6A    -11.356122
       7A    -11.294592     8A    -11.247425     9A    -11.225438
      10A    -11.220334    11A     -1.476950    12A     -1.394683
      13A     -1.372277    14A     -1.240414    15A     -1.074113
      16A     -1.033775    17A     -0.926008    18A     -0.885048
      19A     -0.814622    20A     -0.787557    21A     -0.729224
      22A     -0.713227    23A     -0.683849    24A     -0.664897
      25A     -0.643457    26A     -0.634803    27A     -0.609138
      28A     -0.606659    29A     -0.580771    30A     -0.545706
      31A     -0.544317    32A     -0.525114    33A     -0.522390
      34A     -0.518329    35A     -0.500311    36A     -0.491372
      37A     -0.467530    38A     -0.429757    39A     -0.398495

  @DF-RHF Final Energy:  -512.88551120668524

   => Energetics <=

    Nuclear Repulsion Energy =            548.1595171398713546
    One-Electron Energy =               -1788.3357926416599639
    Two-Electron Energy =                 727.2907642951032585
    Total Energy =                       -512.8855112066852371
  Basis Set: (AUG-CC-PVTZ AUX)
    Blend: AUG-CC-PVTZ-RI
    Molecular point group: c1

    Geometry (in Angstrom), charge = 0, multiplicity = 1:

       Center              X                  Y                   Z               Mass
    ------------   -----------------  -----------------  -----------------  -----------------
         O           -1.971148625929     1.664424046412    -0.186651049226    15.994914619570
         O            1.668263374071    -1.219362953588     0.641933950774    15.994914619570
         O           -3.291934625929    -0.044853953588     0.493011950774    15.994914619570
         N            0.213512374071     0.271381046412    -0.271729049226    14.003074004430
         C           -0.951637625929    -0.493969953588     0.115758950774    12.000000000000
         C           -1.197387625929    -1.678590953588    -0.820337049226    12.000000000000
         C            2.578431374071     0.809878046412    -0.339741049226    12.000000000000
         C            1.485740474071    -0.160837853588     0.080209350774    12.000000000000
         C           -2.191392625929     0.368944046412     0.182616950774    12.000000000000
         C            3.938830374071     0.313743746412     0.124449350774    12.000000000000
         H           -0.784417625929    -0.886643953588     1.126987950774     1.007825032230
         H            0.074466374071     1.199681046412    -0.647000049226     1.007825032230
         H           -1.352102625929    -1.325246953588    -1.842737049226     1.007825032230
         H           -0.324456625929    -2.331626953588    -0.793408049226     1.007825032230
         H           -2.079368625929    -2.233069953588    -0.494235049226     1.007825032230
         H            2.547426374071     0.919814046412    -1.430744049226     1.007825032230
         H            2.354921374071     1.802132046412     0.071503950774     1.007825032230
         H            4.177647374071    -0.644368953588    -0.308841049226     1.007825032230
         H            4.718894374071     1.043484046412    -0.206910049226     1.007825032230
         H            3.989775374071     0.244468046412     1.199830950774     1.007825032230
         H           -2.846765625929     2.100790046412    -0.125772049226     1.007825032230

  Basis Set: AUG-CC-PVTZ
    Blend: AUG-CC-PVTZ
  Basis Set: (AUG-CC-PVTZ AUX)
    Blend: AUG-CC-PVTZ-JKFIT
	 Reference Energy          =    -512.8855112066852371 [Eh]
	 Singles Energy            =      -0.0000000000000000 [Eh]
	 Same-Spin Energy          =      -0.5109665460667550 [Eh]
	 Opposite-Spin Energy      =      -1.6142964137600135 [Eh]
	 Correlation Energy        =      -2.1252629598267685 [Eh]
	 Total Energy              =    -515.0107741665119647 [Eh]

	 ================> DF-SCS-MP2 Energies <==================
	-----------------------------------------------------------
	 SCS Same-Spin Scale       =       0.3333333333333333 [-]
	 SCS Opposite-Spin Scale   =       1.2000000000000000 [-]
	 SCS Same-Spin Energy      =      -0.1703221820222516 [Eh]
	 SCS Opposite-Spin Energy  =      -1.9371556965120162 [Eh]
	 SCS Correlation Energy    =      -2.1074778785342678 [Eh]
	 SCS Total Energy          =    -514.9929890852195058 [Eh]
	-----------------------------------------------------------

  Dipole Moment: [D]
     X:     0.1068      Y:     3.2642      Z:    -1.7778     Total:     3.7185

*** Psi4 exiting successfully. Buy a developer a beer!
