                               Psi4 1.3.2 release

  ==> Input File <==

--------------------------------------------------------------------------
#psi4
#
memory 32 gb

molecule  {
0 1
  O       -1.9705880     1.6613530    -0.1848000
  O        1.6688240    -1.2224340     0.6437850
  O       -3.2913740    -0.0479250     0.4948630
  N        0.2140730     0.2683100    -0.2698780
  C       -0.9510770    -0.4970410     0.1176100
  C       -1.1968270    -1.6816620    -0.8184860
  C        2.5789920     0.8068070    -0.3378900
  C        1.4718400    -0.1468313     0.0833102
  C       -2.1908320     0.3658730     0.1844680
  C        3.9506640     0.3320720     0.1153760
  H       -0.7838570    -0.8897150     1.1288390
  H        0.0750270     1.1966100    -0.6451490
  H       -1.3515420    -1.3283180    -1.8408860
  H       -0.3238960    -2.3346980    -0.7915570
  H       -2.0788080    -2.2361410    -0.4923840
  H        2.5554291     0.9227484    -1.4284574
  H        2.3554820     1.7990610     0.0733550
  H        4.1782080    -0.6474400    -0.3069900
  H        4.7194550     1.0404130    -0.2050590
  H        3.9903360     0.2413970     1.2016820
  H       -2.8462050     2.0977190    -0.1239210
units angstrom
no_reorient  #important for SAPT in psi4, default
symmetry c1  #important for SAPT in psi4, default
}

set PROPERTIES_ORIGIN ["COM"]
properties('MP2/aug-cc-pvtz', properties = ['dipole'])
--------------------------------------------------------------------------

    Molecular point group: c1
  Charge       = 0
  Multiplicity = 1
  Basis Set: AUG-CC-PVTZ
    Blend: AUG-CC-PVTZ
  Basis Set: (AUG-CC-PVTZ AUX)
    Blend: AUG-CC-PVTZ-JKFIT

    Orbital Energies [Eh]
    ---------------------

    Doubly Occupied:

       1A    -20.636216     2A    -20.564204     3A    -20.526202
       4A    -15.590417     5A    -11.405288     6A    -11.356245
       7A    -11.296585     8A    -11.247228     9A    -11.226454
      10A    -11.219639    11A     -1.478260    12A     -1.383852
      13A     -1.373484    14A     -1.244859    15A     -1.075065
      16A     -1.035338    17A     -0.927641    18A     -0.885590
      19A     -0.816407    20A     -0.791400    21A     -0.730723
      22A     -0.714423    23A     -0.683263    24A     -0.665932
      25A     -0.641240    26A     -0.633921    27A     -0.610285
      28A     -0.604082    29A     -0.580826    30A     -0.546893
      31A     -0.544437    32A     -0.524424    33A     -0.521437
      34A     -0.520130    35A     -0.497577    36A     -0.489177
      37A     -0.468251    38A     -0.429035    39A     -0.399905

  @DF-RHF Final Energy:  -512.88618010089453

   => Energetics <=

    Nuclear Repulsion Energy =            548.0016314929565624
    One-Electron Energy =               -1788.0029548186519150
    Two-Electron Energy =                 727.1151432248009314
    Total Energy =                       -512.8861801008945349
  Basis Set: (AUG-CC-PVTZ AUX)
    Blend: AUG-CC-PVTZ-RI
    Molecular point group: c1

    Geometry (in Angstrom), charge = 0, multiplicity = 1:

       Center              X                  Y                   Z               Mass
    ------------   -----------------  -----------------  -----------------  -----------------
         O           -1.970936617657     1.661199653779    -0.185853826592    15.994914619570
         O            1.668475382343    -1.222587346221     0.642731173408    15.994914619570
         O           -3.291722617657    -0.048078346221     0.493809173408    15.994914619570
         N            0.213724382343     0.268156653779    -0.270931826592    14.003074004430
         C           -0.951425617657    -0.497194346221     0.116556173408    12.000000000000
         C           -1.197175617657    -1.681815346221    -0.819539826592    12.000000000000
         C            2.578643382343     0.806653653779    -0.338943826592    12.000000000000
         C            1.471491382343    -0.146984646221     0.082256373408    12.000000000000
         C           -2.191180617657     0.365719653779     0.183414173408    12.000000000000
         C            3.950315382343     0.331918653779     0.114322173408    12.000000000000
         H           -0.784205617657    -0.889868346221     1.127785173408     1.007825032230
         H            0.074678382343     1.196456653779    -0.646202826592     1.007825032230
         H           -1.351890617657    -1.328471346221    -1.841939826592     1.007825032230
         H           -0.324244617657    -2.334851346221    -0.792610826592     1.007825032230
         H           -2.079156617657    -2.236294346221    -0.493437826592     1.007825032230
         H            2.555080482343     0.922595053779    -1.429511226592     1.007825032230
         H            2.355133382343     1.798907653779     0.072301173408     1.007825032230
         H            4.177859382343    -0.647593346221    -0.308043826592     1.007825032230
         H            4.719106382343     1.040259653779    -0.206112826592     1.007825032230
         H            3.989987382343     0.241243653779     1.200628173408     1.007825032230
         H           -2.846553617657     2.097565653779    -0.124974826592     1.007825032230

  Basis Set: AUG-CC-PVTZ
    Blend: AUG-CC-PVTZ
  Basis Set: (AUG-CC-PVTZ AUX)
    Blend: AUG-CC-PVTZ-JKFIT
	 Reference Energy          =    -512.8861801008945349 [Eh]
	 Singles Energy            =      -0.0000000000000000 [Eh]
	 Same-Spin Energy          =      -0.5112331778411503 [Eh]
	 Opposite-Spin Energy      =      -1.6147929911167362 [Eh]
	 Correlation Energy        =      -2.1260261689578863 [Eh]
	 Total Energy              =    -515.0122062698524132 [Eh]

	 ================> DF-SCS-MP2 Energies <==================
	-----------------------------------------------------------
	 SCS Same-Spin Scale       =       0.3333333333333333 [-]
	 SCS Opposite-Spin Scale   =       1.2000000000000000 [-]
	 SCS Same-Spin Energy      =      -0.1704110592803834 [Eh]
	 SCS Opposite-Spin Energy  =      -1.9377515893400834 [Eh]
	 SCS Correlation Energy    =      -2.1081626486204668 [Eh]
	 SCS Total Energy          =    -514.9943427495149990 [Eh]
	-----------------------------------------------------------

  Dipole Moment: [D]
     X:    -0.0439      Y:     3.3489      Z:    -1.8354     Total:     3.8192

*** Psi4 exiting successfully. Buy a developer a beer!
