                               Psi4 1.3.2 release

  ==> Input File <==

--------------------------------------------------------------------------
#psi4
#
memory 32 gb

molecule  {
0 1
  O       -1.9705880     1.6613530    -0.1848000
  O        1.6688240    -1.2224340     0.6437850
  O       -3.2913740    -0.0479250     0.4948630
  N        0.2140730     0.2683100    -0.2698780
  C       -0.9510770    -0.4970410     0.1176100
  C       -1.1968270    -1.6816620    -0.8184860
  C        2.5789920     0.8068070    -0.3378900
  C        1.4682490    -0.1481810     0.0706060
  C       -2.1908320     0.3658730     0.1844680
  C        3.9547305     0.3319473     0.1027451
  H       -0.7838570    -0.8897150     1.1288390
  H        0.0750270     1.1966100    -0.6451490
  H       -1.3515420    -1.3283180    -1.8408860
  H       -0.3238960    -2.3346980    -0.7915570
  H       -2.0788080    -2.2361410    -0.4923840
  H        2.5571161     0.9139065    -1.4293963
  H        2.3554820     1.7990610     0.0733550
  H        4.1782080    -0.6474400    -0.3069900
  H        4.7194550     1.0404130    -0.2050590
  H        3.9903360     0.2413970     1.2016820
  H       -2.8462050     2.0977190    -0.1239210
units angstrom
no_reorient  #important for SAPT in psi4, default
symmetry c1  #important for SAPT in psi4, default
}

set PROPERTIES_ORIGIN ["COM"]
properties('MP2/aug-cc-pvtz', properties = ['dipole'])
--------------------------------------------------------------------------

    Molecular point group: c1
  Charge       = 0
  Multiplicity = 1
  Basis Set: AUG-CC-PVTZ
    Blend: AUG-CC-PVTZ
  Basis Set: (AUG-CC-PVTZ AUX)
    Blend: AUG-CC-PVTZ-JKFIT

    Orbital Energies [Eh]
    ---------------------

    Doubly Occupied:

       1A    -20.636647     2A    -20.564627     3A    -20.524692
       4A    -15.591719     5A    -11.405783     6A    -11.356116
       7A    -11.297229     8A    -11.247219     9A    -11.226876
      10A    -11.219489    11A     -1.478698    12A     -1.380616
      13A     -1.373872    14A     -1.246157    15A     -1.075511
      16A     -1.035841    17A     -0.928301    18A     -0.885834
      19A     -0.816965    20A     -0.792667    21A     -0.731101
      22A     -0.714806    23A     -0.682945    24A     -0.666131
      25A     -0.641377    26A     -0.634009    27A     -0.610721
      28A     -0.602591    29A     -0.581425    30A     -0.547543
      31A     -0.544520    32A     -0.525820    33A     -0.521223
      34A     -0.518543    35A     -0.497279    36A     -0.488157
      37A     -0.468476    38A     -0.428393    39A     -0.400186

  @DF-RHF Final Energy:  -512.88584593112239

   => Energetics <=

    Nuclear Repulsion Energy =            547.9815435352227269
    One-Electron Energy =               -1787.9545701378376634
    Two-Electron Energy =                 727.0871806714925469
    Total Energy =                       -512.8858459311223896
  Basis Set: (AUG-CC-PVTZ AUX)
    Blend: AUG-CC-PVTZ-RI
    Molecular point group: c1

    Geometry (in Angstrom), charge = 0, multiplicity = 1:

       Center              X                  Y                   Z               Mass
    ------------   -----------------  -----------------  -----------------  -----------------
         O           -1.970987668888     1.661383035417    -0.183751674094    15.994914619570
         O            1.668424331112    -1.222403964583     0.644833325906    15.994914619570
         O           -3.291773668888    -0.047894964583     0.495911325906    15.994914619570
         N            0.213673331112     0.268340035417    -0.268829674094    14.003074004430
         C           -0.951476668888    -0.497010964583     0.118658325906    12.000000000000
         C           -1.197226668888    -1.681631964583    -0.817437674094    12.000000000000
         C            2.578592331112     0.806837035417    -0.336841674094    12.000000000000
         C            1.467849331112    -0.148150964583     0.071654325906    12.000000000000
         C           -2.191231668888     0.365903035417     0.185516325906    12.000000000000
         C            3.954330831112     0.331977335417     0.103793425906    12.000000000000
         H           -0.784256668888    -0.889684964583     1.129887325906     1.007825032230
         H            0.074627331112     1.196640035417    -0.644100674094     1.007825032230
         H           -1.351941668888    -1.328287964583    -1.839837674094     1.007825032230
         H           -0.324295668888    -2.334667964583    -0.790508674094     1.007825032230
         H           -2.079207668888    -2.236110964583    -0.491335674094     1.007825032230
         H            2.556716431112     0.913936535417    -1.428347974094     1.007825032230
         H            2.355082331112     1.799091035417     0.074403325906     1.007825032230
         H            4.177808331112    -0.647409964583    -0.305941674094     1.007825032230
         H            4.719055331112     1.040443035417    -0.204010674094     1.007825032230
         H            3.989936331112     0.241427035417     1.202730325906     1.007825032230
         H           -2.846604668888     2.097749035417    -0.122872674094     1.007825032230

  Basis Set: AUG-CC-PVTZ
    Blend: AUG-CC-PVTZ
  Basis Set: (AUG-CC-PVTZ AUX)
    Blend: AUG-CC-PVTZ-JKFIT
	 Reference Energy          =    -512.8858459311223896 [Eh]
	 Singles Energy            =      -0.0000000000000000 [Eh]
	 Same-Spin Energy          =      -0.5113225102736751 [Eh]
	 Opposite-Spin Energy      =      -1.6149499712723179 [Eh]
	 Correlation Energy        =      -2.1262724815459930 [Eh]
	 Total Energy              =    -515.0121184126684284 [Eh]

	 ================> DF-SCS-MP2 Energies <==================
	-----------------------------------------------------------
	 SCS Same-Spin Scale       =       0.3333333333333333 [-]
	 SCS Opposite-Spin Scale   =       1.2000000000000000 [-]
	 SCS Same-Spin Energy      =      -0.1704408367578917 [Eh]
	 SCS Opposite-Spin Energy  =      -1.9379399655267813 [Eh]
	 SCS Correlation Energy    =      -2.1083808022846728 [Eh]
	 SCS Total Energy          =    -514.9942267334071175 [Eh]
	-----------------------------------------------------------

  Dipole Moment: [D]
     X:    -0.0930      Y:     3.3676      Z:    -1.8653     Total:     3.8508

*** Psi4 exiting successfully. Buy a developer a beer!
