                               Psi4 1.3.2 release

  ==> Input File <==

--------------------------------------------------------------------------
#psi4
#
memory 32 gb

molecule  {
0 1
  O       -1.9705880     1.6613530    -0.1848000
  O        1.6688240    -1.2224340     0.6437850
  O       -3.2913740    -0.0479250     0.4948630
  N        0.2140730     0.2683100    -0.2698780
  C       -0.9584822    -0.4885473     0.1119138
  C       -1.1968270    -1.6816620    -0.8184860
  C        2.5789920     0.8068070    -0.3378900
  C        1.4728438    -0.1386672     0.0651105
  C       -2.1908320     0.3658730     0.1844680
  C        3.9506640     0.3320720     0.1153760
  H       -0.7838570    -0.8897150     1.1288390
  H        0.0750270     1.1966100    -0.6451490
  H       -1.3515420    -1.3283180    -1.8408860
  H       -0.3238960    -2.3346980    -0.7915570
  H       -2.0788080    -2.2361410    -0.4923840
  H        2.5479870     0.9167430    -1.4288930
  H        2.3554820     1.7990610     0.0733550
  H        4.1782080    -0.6474400    -0.3069900
  H        4.7194550     1.0404130    -0.2050590
  H        3.9903360     0.2413970     1.2016820
  H       -2.8462050     2.0977190    -0.1239210
units angstrom
no_reorient  #important for SAPT in psi4, default
symmetry c1  #important for SAPT in psi4, default
}

set PROPERTIES_ORIGIN ["COM"]
properties('MP2/aug-cc-pvtz', properties = ['dipole'])
--------------------------------------------------------------------------

    Molecular point group: c1
  Charge       = 0
  Multiplicity = 1
  Basis Set: AUG-CC-PVTZ
    Blend: AUG-CC-PVTZ
  Basis Set: (AUG-CC-PVTZ AUX)
    Blend: AUG-CC-PVTZ-JKFIT

    Orbital Energies [Eh]
    ---------------------

    Doubly Occupied:

       1A    -20.636683     2A    -20.564757     3A    -20.523218
       4A    -15.592438     5A    -11.405931     6A    -11.356885
       7A    -11.297520     8A    -11.248003     9A    -11.227109
      10A    -11.220176    11A     -1.479096    12A     -1.375178
      13A     -1.373628    14A     -1.245061    15A     -1.077513
      16A     -1.037043    17A     -0.929607    18A     -0.888426
      19A     -0.815933    20A     -0.792510    21A     -0.732251
      22A     -0.714900    23A     -0.682925    24A     -0.666371
      25A     -0.642278    26A     -0.632727    27A     -0.611065
      28A     -0.600635    29A     -0.579386    30A     -0.547859
      31A     -0.544456    32A     -0.524925    33A     -0.520445
      34A     -0.519389    35A     -0.498079    36A     -0.486544
      37A     -0.469261    38A     -0.428861    39A     -0.399021

  @DF-RHF Final Energy:  -512.88450928690315

   => Energetics <=

    Nuclear Repulsion Energy =            548.0210393136350149
    One-Electron Energy =               -1788.0349066133583165
    Two-Electron Energy =                 727.1293580128200347
    Total Energy =                       -512.8845092869031532
  Basis Set: (AUG-CC-PVTZ AUX)
    Blend: AUG-CC-PVTZ-RI
    Molecular point group: c1

    Geometry (in Angstrom), charge = 0, multiplicity = 1:

       Center              X                  Y                   Z               Mass
    ------------   -----------------  -----------------  -----------------  -----------------
         O           -1.970355416362     1.659863498781    -0.183874216048    15.994914619570
         O            1.669056583638    -1.223923501219     0.644710783952    15.994914619570
         O           -3.291141416362    -0.049414501219     0.495788783952    15.994914619570
         N            0.214305583638     0.266820498781    -0.268952216048    14.003074004430
         C           -0.958249616362    -0.490036801219     0.112839583952    12.000000000000
         C           -1.196594416362    -1.683151501219    -0.817560216048    12.000000000000
         C            2.579224583638     0.805317498781    -0.336964216048    12.000000000000
         C            1.473076383638    -0.140156701219     0.066036283952    12.000000000000
         C           -2.190599416362     0.364383498781     0.185393783952    12.000000000000
         C            3.950896583638     0.330582498781     0.116301783952    12.000000000000
         H           -0.783624416362    -0.891204501219     1.129764783952     1.007825032230
         H            0.075259583638     1.195120498781    -0.644223216048     1.007825032230
         H           -1.351309416362    -1.329807501219    -1.839960216048     1.007825032230
         H           -0.323663416362    -2.336187501219    -0.790631216048     1.007825032230
         H           -2.078575416362    -2.237630501219    -0.491458216048     1.007825032230
         H            2.548219583638     0.915253498781    -1.427967216048     1.007825032230
         H            2.355714583638     1.797571498781     0.074280783952     1.007825032230
         H            4.178440583638    -0.648929501219    -0.306064216048     1.007825032230
         H            4.719687583638     1.038923498781    -0.204133216048     1.007825032230
         H            3.990568583638     0.239907498781     1.202607783952     1.007825032230
         H           -2.845972416362     2.096229498781    -0.122995216048     1.007825032230

  Basis Set: AUG-CC-PVTZ
    Blend: AUG-CC-PVTZ
  Basis Set: (AUG-CC-PVTZ AUX)
    Blend: AUG-CC-PVTZ-JKFIT
	 Reference Energy          =    -512.8845092869031532 [Eh]
	 Singles Energy            =      -0.0000000000000000 [Eh]
	 Same-Spin Energy          =      -0.5116892919055913 [Eh]
	 Opposite-Spin Energy      =      -1.6155818593046141 [Eh]
	 Correlation Energy        =      -2.1272711512102056 [Eh]
	 Total Energy              =    -515.0117804381133055 [Eh]

	 ================> DF-SCS-MP2 Energies <==================
	-----------------------------------------------------------
	 SCS Same-Spin Scale       =       0.3333333333333333 [-]
	 SCS Opposite-Spin Scale   =       1.2000000000000000 [-]
	 SCS Same-Spin Energy      =      -0.1705630973018638 [Eh]
	 SCS Opposite-Spin Energy  =      -1.9386982311655367 [Eh]
	 SCS Correlation Energy    =      -2.1092613284674004 [Eh]
	 SCS Total Energy          =    -514.9937706153705221 [Eh]
	-----------------------------------------------------------

  Dipole Moment: [D]
     X:    -0.0731      Y:     3.4132      Z:    -1.8888     Total:     3.9017

*** Psi4 exiting successfully. Buy a developer a beer!
