                               Psi4 1.3.2 release

  ==> Input File <==

--------------------------------------------------------------------------
#psi4
#
memory 32 gb

molecule  {
0 1
  O       -1.9705880     1.6613530    -0.1848000
  O        1.6899909    -1.2184765     0.6433906
  O       -3.2913740    -0.0479250     0.4948630
  N        0.2140730     0.2683100    -0.2698780
  C       -0.9510770    -0.4970410     0.1176100
  C       -1.1968270    -1.6816620    -0.8184860
  C        2.5968566     0.7899915    -0.3277636
  C        1.4682490    -0.1481810     0.0706060
  C       -2.1908320     0.3658730     0.1844680
  C        3.9506640     0.3320720     0.1153760
  H       -0.7838570    -0.8897150     1.1288390
  H        0.0750270     1.1966100    -0.6451490
  H       -1.3515420    -1.3283180    -1.8408860
  H       -0.3238960    -2.3346980    -0.7915570
  H       -2.0788080    -2.2361410    -0.4923840
  H        2.5479870     0.9167430    -1.4288930
  H        2.3554820     1.7990610     0.0733550
  H        4.1782080    -0.6474400    -0.3069900
  H        4.7194550     1.0404130    -0.2050590
  H        3.9903360     0.2413970     1.2016820
  H       -2.8462050     2.0977190    -0.1239210
units angstrom
no_reorient  #important for SAPT in psi4, default
symmetry c1  #important for SAPT in psi4, default
}

set PROPERTIES_ORIGIN ["COM"]
properties('MP2/aug-cc-pvtz', properties = ['dipole'])
--------------------------------------------------------------------------

    Molecular point group: c1
  Charge       = 0
  Multiplicity = 1
  Basis Set: AUG-CC-PVTZ
    Blend: AUG-CC-PVTZ
  Basis Set: (AUG-CC-PVTZ AUX)
    Blend: AUG-CC-PVTZ-JKFIT

    Orbital Energies [Eh]
    ---------------------

    Doubly Occupied:

       1A    -20.637118     2A    -20.565153     3A    -20.524195
       4A    -15.593002     5A    -11.406375     6A    -11.355782
       7A    -11.298178     8A    -11.247647     9A    -11.227488
      10A    -11.217794    11A     -1.479187    12A     -1.380189
      13A     -1.374359    14A     -1.247365    15A     -1.076126
      16A     -1.038359    17A     -0.928970    18A     -0.885352
      19A     -0.817519    20A     -0.792384    21A     -0.730704
      22A     -0.715276    23A     -0.683173    24A     -0.666622
      25A     -0.639587    26A     -0.633964    27A     -0.611338
      28A     -0.602920    29A     -0.581684    30A     -0.549136
      31A     -0.545636    32A     -0.529403    33A     -0.520989
      34A     -0.518516    35A     -0.496165    36A     -0.485239
      37A     -0.469077    38A     -0.426928    39A     -0.400967

  @DF-RHF Final Energy:  -512.88498358103232

   => Energetics <=

    Nuclear Repulsion Energy =            547.9950784862323871
    One-Electron Energy =               -1787.9603926754095937
    Two-Electron Energy =                 727.0803306081448909
    Total Energy =                       -512.8849835810323157
  Basis Set: (AUG-CC-PVTZ AUX)
    Blend: AUG-CC-PVTZ-RI
    Molecular point group: c1

    Geometry (in Angstrom), charge = 0, multiplicity = 1:

       Center              X                  Y                   Z               Mass
    ------------   -----------------  -----------------  -----------------  -----------------
         O           -1.974399305619     1.662307605832    -0.185594089970    15.994914619570
         O            1.686179594381    -1.217521894168     0.642596510030    15.994914619570
         O           -3.295185305619    -0.046970394168     0.494068910030    15.994914619570
         N            0.210261694381     0.269264605832    -0.270672089970    14.003074004430
         C           -0.954888305619    -0.496086394168     0.116815910030    12.000000000000
         C           -1.200638305619    -1.680707394168    -0.819280089970    12.000000000000
         C            2.593045294381     0.790946105832    -0.328557689970    12.000000000000
         C            1.464437694381    -0.147226394168     0.069811910030    12.000000000000
         C           -2.194643305619     0.366827605832     0.183673910030    12.000000000000
         C            3.946852694381     0.333026605832     0.114581910030    12.000000000000
         H           -0.787668305619    -0.888760394168     1.128044910030     1.007825032230
         H            0.071215694381     1.197564605832    -0.645943089970     1.007825032230
         H           -1.355353305619    -1.327363394168    -1.841680089970     1.007825032230
         H           -0.327707305619    -2.333743394168    -0.792351089970     1.007825032230
         H           -2.082619305619    -2.235186394168    -0.493178089970     1.007825032230
         H            2.544175694381     0.917697605832    -1.429687089970     1.007825032230
         H            2.351670694381     1.800015605832     0.072560910030     1.007825032230
         H            4.174396694381    -0.646485394168    -0.307784089970     1.007825032230
         H            4.715643694381     1.041367605832    -0.205853089970     1.007825032230
         H            3.986524694381     0.242351605832     1.200887910030     1.007825032230
         H           -2.850016305619     2.098673605832    -0.124715089970     1.007825032230

  Basis Set: AUG-CC-PVTZ
    Blend: AUG-CC-PVTZ
  Basis Set: (AUG-CC-PVTZ AUX)
    Blend: AUG-CC-PVTZ-JKFIT
	 Reference Energy          =    -512.8849835810323157 [Eh]
	 Singles Energy            =      -0.0000000000000000 [Eh]
	 Same-Spin Energy          =      -0.5114378101644470 [Eh]
	 Opposite-Spin Energy      =      -1.6150148536221389 [Eh]
	 Correlation Energy        =      -2.1264526637865862 [Eh]
	 Total Energy              =    -515.0114362448189240 [Eh]

	 ================> DF-SCS-MP2 Energies <==================
	-----------------------------------------------------------
	 SCS Same-Spin Scale       =       0.3333333333333333 [-]
	 SCS Opposite-Spin Scale   =       1.2000000000000000 [-]
	 SCS Same-Spin Energy      =      -0.1704792700548157 [Eh]
	 SCS Opposite-Spin Energy  =      -1.9380178243465667 [Eh]
	 SCS Correlation Energy    =      -2.1084970944013826 [Eh]
	 SCS Total Energy          =    -514.9934806754337160 [Eh]
	-----------------------------------------------------------

  Dipole Moment: [D]
     X:    -0.1545      Y:     3.3481      Z:    -1.8557     Total:     3.8311

*** Psi4 exiting successfully. Buy a developer a beer!
