                               Psi4 1.3.2 release

  ==> Input File <==

--------------------------------------------------------------------------
#psi4
#
memory 32 gb

molecule  {
0 1
  O       -1.9935720     1.6661802    -0.1808049
  O        1.6688240    -1.2224340     0.6437850
  O       -3.2913740    -0.0479250     0.4948630
  N        0.2140730     0.2683100    -0.2698780
  C       -0.9652758    -0.5176796     0.1259049
  C       -1.1968270    -1.6816620    -0.8184860
  C        2.5789920     0.8068070    -0.3378900
  C        1.4682490    -0.1481810     0.0706060
  C       -2.1908320     0.3658730     0.1844680
  C        3.9506640     0.3320720     0.1153760
  H       -0.7838570    -0.8897150     1.1288390
  H        0.0750270     1.1966100    -0.6451490
  H       -1.3515420    -1.3283180    -1.8408860
  H       -0.3238960    -2.3346980    -0.7915570
  H       -2.0788080    -2.2361410    -0.4923840
  H        2.5479870     0.9167430    -1.4288930
  H        2.3554820     1.7990610     0.0733550
  H        4.1782080    -0.6474400    -0.3069900
  H        4.7194550     1.0404130    -0.2050590
  H        3.9903360     0.2413970     1.2016820
  H       -2.8462050     2.0977190    -0.1239210
units angstrom
no_reorient  #important for SAPT in psi4, default
symmetry c1  #important for SAPT in psi4, default
}

set PROPERTIES_ORIGIN ["COM"]
properties('MP2/aug-cc-pvtz', properties = ['dipole'])
--------------------------------------------------------------------------

    Molecular point group: c1
  Charge       = 0
  Multiplicity = 1
  Basis Set: AUG-CC-PVTZ
    Blend: AUG-CC-PVTZ
  Basis Set: (AUG-CC-PVTZ AUX)
    Blend: AUG-CC-PVTZ-JKFIT

    Orbital Energies [Eh]
    ---------------------

    Doubly Occupied:

       1A    -20.634209     2A    -20.563695     3A    -20.523822
       4A    -15.591138     5A    -11.405913     6A    -11.355100
       7A    -11.299157     8A    -11.246726     9A    -11.227502
      10A    -11.219224    11A     -1.481234    12A     -1.379386
      13A     -1.374409    14A     -1.241282    15A     -1.076732
      16A     -1.037304    17A     -0.930054    18A     -0.885582
      19A     -0.821876    20A     -0.790570    21A     -0.729845
      22A     -0.715667    23A     -0.681488    24A     -0.667135
      25A     -0.641045    26A     -0.634099    27A     -0.611895
      28A     -0.602745    29A     -0.580755    30A     -0.549588
      31A     -0.544790    32A     -0.523374    33A     -0.522268
      34A     -0.519603    35A     -0.497140    36A     -0.489100
      37A     -0.468810    38A     -0.427294    39A     -0.401253

  @DF-RHF Final Energy:  -512.88689011215524

   => Energetics <=

    Nuclear Repulsion Energy =            547.6145350394381239
    One-Electron Energy =               -1787.2172299308651873
    Two-Electron Energy =                 726.7158047792718207
    Total Energy =                       -512.8868901121552426
  Basis Set: (AUG-CC-PVTZ AUX)
    Blend: AUG-CC-PVTZ-RI
    Molecular point group: c1

    Geometry (in Angstrom), charge = 0, multiplicity = 1:

       Center              X                  Y                   Z               Mass
    ------------   -----------------  -----------------  -----------------  -----------------
         O           -1.989863340092     1.667355151630    -0.181931452804    15.994914619570
         O            1.672532659908    -1.221259048370     0.642658447196    15.994914619570
         O           -3.287665340092    -0.046750048370     0.493736447196    15.994914619570
         N            0.217781659908     0.269484951630    -0.271004552804    14.003074004430
         C           -0.961567140092    -0.516504648370     0.124778347196    12.000000000000
         C           -1.193118340092    -1.680487048370    -0.819612552804    12.000000000000
         C            2.582700659908     0.807981951630    -0.339016552804    12.000000000000
         C            1.471957659908    -0.147006048370     0.069479447196    12.000000000000
         C           -2.187123340092     0.367047951630     0.183341447196    12.000000000000
         C            3.954372659908     0.333246951630     0.114249447196    12.000000000000
         H           -0.780148340092    -0.888540048370     1.127712447196     1.007825032230
         H            0.078735659908     1.197784951630    -0.646275552804     1.007825032230
         H           -1.347833340092    -1.327143048370    -1.842012552804     1.007825032230
         H           -0.320187340092    -2.333523048370    -0.792683552804     1.007825032230
         H           -2.075099340092    -2.234966048370    -0.493510552804     1.007825032230
         H            2.551695659908     0.917917951630    -1.430019552804     1.007825032230
         H            2.359190659908     1.800235951630     0.072228447196     1.007825032230
         H            4.181916659908    -0.646265048370    -0.308116552804     1.007825032230
         H            4.723163659908     1.041587951630    -0.206185552804     1.007825032230
         H            3.994044659908     0.242571951630     1.200555447196     1.007825032230
         H           -2.842496340092     2.098893951630    -0.125047552804     1.007825032230

  Basis Set: AUG-CC-PVTZ
    Blend: AUG-CC-PVTZ
  Basis Set: (AUG-CC-PVTZ AUX)
    Blend: AUG-CC-PVTZ-JKFIT
	 Reference Energy          =    -512.8868901121552426 [Eh]
	 Singles Energy            =      -0.0000000000000000 [Eh]
	 Same-Spin Energy          =      -0.5106703741226105 [Eh]
	 Opposite-Spin Energy      =      -1.6138827809569640 [Eh]
	 Correlation Energy        =      -2.1245531550795747 [Eh]
	 Total Energy              =    -515.0114432672347675 [Eh]

	 ================> DF-SCS-MP2 Energies <==================
	-----------------------------------------------------------
	 SCS Same-Spin Scale       =       0.3333333333333333 [-]
	 SCS Opposite-Spin Scale   =       1.2000000000000000 [-]
	 SCS Same-Spin Energy      =      -0.1702234580408702 [Eh]
	 SCS Opposite-Spin Energy  =      -1.9366593371483567 [Eh]
	 SCS Correlation Energy    =      -2.1068827951892271 [Eh]
	 SCS Total Energy          =    -514.9937729073444643 [Eh]
	-----------------------------------------------------------

  Dipole Moment: [D]
     X:    -0.1215      Y:     3.3068      Z:    -1.8645     Total:     3.7981

*** Psi4 exiting successfully. Buy a developer a beer!
