                               Psi4 1.3.2 release

  ==> Input File <==

--------------------------------------------------------------------------
#psi4
#
memory 32 gb

molecule  {
0 1
  O       -1.9705880     1.6613530    -0.1848000
  O        1.6688240    -1.2224340     0.6437850
  O       -3.2913740    -0.0479250     0.4948630
  N        0.2140730     0.2683100    -0.2698780
  C       -0.9510770    -0.4970410     0.1176100
  C       -1.1968270    -1.6816620    -0.8184860
  C        2.5789920     0.8068070    -0.3378900
  C        1.4682490    -0.1481810     0.0706060
  C       -2.1908320     0.3658730     0.1844680
  C        3.9464930     0.3322328     0.1279724
  H       -0.7838570    -0.8897150     1.1288390
  H        0.0750270     1.1966100    -0.6451490
  H       -1.3515420    -1.3283180    -1.8408860
  H       -0.3238960    -2.3346980    -0.7915570
  H       -2.0788080    -2.2361410    -0.4923840
  H        2.5388603     0.9195711    -1.4283067
  H        2.3554820     1.7990610     0.0733550
  H        4.1782080    -0.6474400    -0.3069900
  H        4.7194550     1.0404130    -0.2050590
  H        3.9903360     0.2413970     1.2016820
  H       -2.8462050     2.0977190    -0.1239210
units angstrom
no_reorient  #important for SAPT in psi4, default
symmetry c1  #important for SAPT in psi4, default
}

set PROPERTIES_ORIGIN ["COM"]
properties('MP2/aug-cc-pvtz', properties = ['dipole'])
--------------------------------------------------------------------------

    Molecular point group: c1
  Charge       = 0
  Multiplicity = 1
  Basis Set: AUG-CC-PVTZ
    Blend: AUG-CC-PVTZ
  Basis Set: (AUG-CC-PVTZ AUX)
    Blend: AUG-CC-PVTZ-JKFIT

    Orbital Energies [Eh]
    ---------------------

    Doubly Occupied:

       1A    -20.636614     2A    -20.564584     3A    -20.524538
       4A    -15.591530     5A    -11.405732     6A    -11.355708
       7A    -11.297137     8A    -11.247335     9A    -11.226820
      10A    -11.219731    11A     -1.478661    12A     -1.380519
      13A     -1.373832    14A     -1.246045    15A     -1.075554
      16A     -1.035706    17A     -0.928258    18A     -0.886061
      19A     -0.816925    20A     -0.792649    21A     -0.731025
      22A     -0.714767    23A     -0.682696    24A     -0.666054
      25A     -0.641533    26A     -0.633823    27A     -0.610572
      28A     -0.602981    29A     -0.580569    30A     -0.547123
      31A     -0.544428    32A     -0.525324    33A     -0.522063
      34A     -0.518400    35A     -0.497940    36A     -0.488662
      37A     -0.468420    38A     -0.428058    39A     -0.400137

  @DF-RHF Final Energy:  -512.88581808644358

   => Energetics <=

    Nuclear Repulsion Energy =            548.0876953334035306
    One-Electron Energy =               -1788.1699994476705342
    Two-Electron Energy =                 727.1964860278235392
    Total Energy =                       -512.8858180864435781
  Basis Set: (AUG-CC-PVTZ AUX)
    Blend: AUG-CC-PVTZ-RI
    Molecular point group: c1

    Geometry (in Angstrom), charge = 0, multiplicity = 1:

       Center              X                  Y                   Z               Mass
    ------------   -----------------  -----------------  -----------------  -----------------
         O           -1.970179469359     1.661320068018    -0.185845956666    15.994914619570
         O            1.669232530641    -1.222466931982     0.642739043334    15.994914619570
         O           -3.290965469359    -0.047957931982     0.493817043334    15.994914619570
         N            0.214481530641     0.268277068018    -0.270923956666    14.003074004430
         C           -0.950668469359    -0.497073931982     0.116564043334    12.000000000000
         C           -1.196418469359    -1.681694931982    -0.819531956666    12.000000000000
         C            2.579400530641     0.806774068018    -0.338935956666    12.000000000000
         C            1.468657530641    -0.148213931982     0.069560043334    12.000000000000
         C           -2.190423469359     0.365840068018     0.183422043334    12.000000000000
         C            3.946901530641     0.332199868018     0.126926443334    12.000000000000
         H           -0.783448469359    -0.889747931982     1.127793043334     1.007825032230
         H            0.075435530641     1.196577068018    -0.646194956666     1.007825032230
         H           -1.351133469359    -1.328350931982    -1.841931956666     1.007825032230
         H           -0.323487469359    -2.334730931982    -0.792602956666     1.007825032230
         H           -2.078399469359    -2.236173931982    -0.493429956666     1.007825032230
         H            2.539268830641     0.919538168018    -1.429352656666     1.007825032230
         H            2.355890530641     1.799028068018     0.072309043334     1.007825032230
         H            4.178616530641    -0.647472931982    -0.308035956666     1.007825032230
         H            4.719863530641     1.040380068018    -0.206104956666     1.007825032230
         H            3.990744530641     0.241364068018     1.200636043334     1.007825032230
         H           -2.845796469359     2.097686068018    -0.124966956666     1.007825032230

  Basis Set: AUG-CC-PVTZ
    Blend: AUG-CC-PVTZ
  Basis Set: (AUG-CC-PVTZ AUX)
    Blend: AUG-CC-PVTZ-JKFIT
	 Reference Energy          =    -512.8858180864435781 [Eh]
	 Singles Energy            =      -0.0000000000000000 [Eh]
	 Same-Spin Energy          =      -0.5113311346154150 [Eh]
	 Opposite-Spin Energy      =      -1.6149366972031982 [Eh]
	 Correlation Energy        =      -2.1262678318186135 [Eh]
	 Total Energy              =    -515.0120859182621871 [Eh]

	 ================> DF-SCS-MP2 Energies <==================
	-----------------------------------------------------------
	 SCS Same-Spin Scale       =       0.3333333333333333 [-]
	 SCS Opposite-Spin Scale   =       1.2000000000000000 [-]
	 SCS Same-Spin Energy      =      -0.1704437115384717 [Eh]
	 SCS Opposite-Spin Energy  =      -1.9379240366438377 [Eh]
	 SCS Correlation Energy    =      -2.1083677481823093 [Eh]
	 SCS Total Energy          =    -514.9941858346259096 [Eh]
	-----------------------------------------------------------

  Dipole Moment: [D]
     X:    -0.0930      Y:     3.3692      Z:    -1.8550     Total:     3.8472

*** Psi4 exiting successfully. Buy a developer a beer!
