                               Psi4 1.3.2 release

  ==> Input File <==

--------------------------------------------------------------------------
#psi4
#
memory 32 gb

molecule  {
0 1
  O       -1.9705880     1.6613530    -0.1848000
  O        1.6688240    -1.2224340     0.6437850
  O       -3.2913740    -0.0479250     0.4948630
  N        0.2140730     0.2683100    -0.2698780
  C       -0.9510770    -0.4970410     0.1176100
  C       -1.1968270    -1.6816620    -0.8184860
  C        2.5789920     0.8068070    -0.3378900
  C        1.4682490    -0.1481810     0.0706060
  C       -2.0098286     0.4339293     0.1334181
  C        3.9506640     0.3320720     0.1153760
  H       -0.7838570    -0.8897150     1.1288390
  H        0.0750270     1.1966100    -0.6451490
  H       -1.3515420    -1.3283180    -1.8408860
  H       -0.3238960    -2.3346980    -0.7915570
  H       -2.0788080    -2.2361410    -0.4923840
  H        2.5479870     0.9167430    -1.4288930
  H        2.3554820     1.7990610     0.0733550
  H        4.1782080    -0.6474400    -0.3069900
  H        4.7194550     1.0404130    -0.2050590
  H        3.9903360     0.2413970     1.2016820
  H       -2.8462050     2.0977190    -0.1239210
units angstrom
no_reorient  #important for SAPT in psi4, default
symmetry c1  #important for SAPT in psi4, default
}

set PROPERTIES_ORIGIN ["COM"]
properties('MP2/aug-cc-pvtz', properties = ['dipole'])
--------------------------------------------------------------------------

    Molecular point group: c1
  Charge       = 0
  Multiplicity = 1
  Basis Set: AUG-CC-PVTZ
    Blend: AUG-CC-PVTZ
  Basis Set: (AUG-CC-PVTZ AUX)
    Blend: AUG-CC-PVTZ-JKFIT

    Orbital Energies [Eh]
    ---------------------

    Doubly Occupied:

       1A    -20.668041     2A    -20.531145     3A    -20.525121
       4A    -15.598251     5A    -11.417966     6A    -11.361434
       7A    -11.302619     8A    -11.251797     9A    -11.233576
      10A    -11.223131    11A     -1.520581    12A     -1.387282
      13A     -1.270513    14A     -1.250885    15A     -1.089827
      16A     -1.044840    17A     -0.957771    18A     -0.896934
      19A     -0.855797    20A     -0.805292    21A     -0.743823
      22A     -0.721412    23A     -0.694439    24A     -0.676667
      25A     -0.649128    26A     -0.644044    27A     -0.610795
      28A     -0.591636    29A     -0.565116    30A     -0.548533
      31A     -0.541912    32A     -0.526575    33A     -0.524119
      34A     -0.517075    35A     -0.497477    36A     -0.443260
      37A     -0.430555    38A     -0.430241    39A     -0.403823

  @DF-RHF Final Energy:  -512.81817145828154

   => Energetics <=

    Nuclear Repulsion Energy =            549.1774403540296134
    One-Electron Energy =               -1790.0843615409380618
    Two-Electron Energy =                 728.0887497286269081
    Total Energy =                       -512.8181714582815403
  Basis Set: (AUG-CC-PVTZ AUX)
    Blend: AUG-CC-PVTZ-RI
    Molecular point group: c1

    Geometry (in Angstrom), charge = 0, multiplicity = 1:

       Center              X                  Y                   Z               Mass
    ------------   -----------------  -----------------  -----------------  -----------------
         O           -1.985559844609     1.655723638833    -0.180577286536    15.994914619570
         O            1.653852155391    -1.228063361167     0.648007713464    15.994914619570
         O           -3.306345844609    -0.053554361167     0.499085713464    15.994914619570
         N            0.199101155391     0.262680638833    -0.265655286536    14.003074004430
         C           -0.966048844609    -0.502670361167     0.121832713464    12.000000000000
         C           -1.211798844609    -1.687291361167    -0.814263286536    12.000000000000
         C            2.564020155391     0.801177638833    -0.333667286536    12.000000000000
         C            1.453277155391    -0.153810361167     0.074828713464    12.000000000000
         C           -2.024800444609     0.428299938833     0.137640813464    12.000000000000
         C            3.935692155391     0.326442638833     0.119598713464    12.000000000000
         H           -0.798828844609    -0.895344361167     1.133061713464     1.007825032230
         H            0.060055155391     1.190980638833    -0.640926286536     1.007825032230
         H           -1.366513844609    -1.333947361167    -1.836663286536     1.007825032230
         H           -0.338867844609    -2.340327361167    -0.787334286536     1.007825032230
         H           -2.093779844609    -2.241770361167    -0.488161286536     1.007825032230
         H            2.533015155391     0.911113638833    -1.424670286536     1.007825032230
         H            2.340510155391     1.793431638833     0.077577713464     1.007825032230
         H            4.163236155391    -0.653069361167    -0.302767286536     1.007825032230
         H            4.704483155391     1.034783638833    -0.200836286536     1.007825032230
         H            3.975364155391     0.235767638833     1.205904713464     1.007825032230
         H           -2.861176844609     2.092089638833    -0.119698286536     1.007825032230

  Basis Set: AUG-CC-PVTZ
    Blend: AUG-CC-PVTZ
  Basis Set: (AUG-CC-PVTZ AUX)
    Blend: AUG-CC-PVTZ-JKFIT
	 Reference Energy          =    -512.8181714582815403 [Eh]
	 Singles Energy            =      -0.0000000000000000 [Eh]
	 Same-Spin Energy          =      -0.5158146782283468 [Eh]
	 Opposite-Spin Energy      =      -1.6227196782388196 [Eh]
	 Correlation Energy        =      -2.1385343564671664 [Eh]
	 Total Energy              =    -514.9567058147487160 [Eh]

	 ================> DF-SCS-MP2 Energies <==================
	-----------------------------------------------------------
	 SCS Same-Spin Scale       =       0.3333333333333333 [-]
	 SCS Opposite-Spin Scale   =       1.2000000000000000 [-]
	 SCS Same-Spin Energy      =      -0.1719382260761156 [Eh]
	 SCS Opposite-Spin Energy  =      -1.9472636138865833 [Eh]
	 SCS Correlation Energy    =      -2.1192018399626988 [Eh]
	 SCS Total Energy          =    -514.9373732982442107 [Eh]
	-----------------------------------------------------------

  Dipole Moment: [D]
     X:     1.0114      Y:     3.9208      Z:    -2.2478     Total:     4.6313

*** Psi4 exiting successfully. Buy a developer a beer!
