                               Psi4 1.3.2 release

  ==> Input File <==

--------------------------------------------------------------------------
#psi4
#
memory 32 gb

molecule  {
0 1
  O       -1.9705880     1.6613530    -0.1848000
  O        1.6688240    -1.2224340     0.6437850
  O       -3.2913740    -0.0479250     0.4948630
  N        0.2140730     0.2683100    -0.2698780
  C       -0.9510770    -0.4970410     0.1176100
  C       -1.1968270    -1.6816620    -0.8184860
  C        2.5789920     0.8068070    -0.3378900
  C        1.4845029    -0.2352347     0.1170544
  C       -2.1908320     0.3658730     0.1844680
  C        3.9506640     0.3320720     0.1153760
  H       -0.7838570    -0.8897150     1.1288390
  H        0.0750270     1.1966100    -0.6451490
  H       -1.3515420    -1.3283180    -1.8408860
  H       -0.3238960    -2.3346980    -0.7915570
  H       -2.0788080    -2.2361410    -0.4923840
  H        2.5479870     0.9167430    -1.4288930
  H        2.3554820     1.7990610     0.0733550
  H        4.1782080    -0.6474400    -0.3069900
  H        4.7194550     1.0404130    -0.2050590
  H        3.9903360     0.2413970     1.2016820
  H       -2.8462050     2.0977190    -0.1239210
units angstrom
no_reorient  #important for SAPT in psi4, default
symmetry c1  #important for SAPT in psi4, default
}

set PROPERTIES_ORIGIN ["COM"]
properties('MP2/aug-cc-pvtz', properties = ['dipole'])
--------------------------------------------------------------------------

    Molecular point group: c1
  Charge       = 0
  Multiplicity = 1
  Basis Set: AUG-CC-PVTZ
    Blend: AUG-CC-PVTZ
  Basis Set: (AUG-CC-PVTZ AUX)
    Blend: AUG-CC-PVTZ-JKFIT

    Orbital Energies [Eh]
    ---------------------

    Doubly Occupied:

       1A    -20.632628     2A    -20.560664     3A    -20.544905
       4A    -15.576293     5A    -11.401174     6A    -11.352926
       7A    -11.290392     8A    -11.243081     9A    -11.224470
      10A    -11.218031    11A     -1.474620    12A     -1.453158
      13A     -1.370026    14A     -1.234341    15A     -1.063531
      16A     -1.027362    17A     -0.922414    18A     -0.874809
      19A     -0.811903    20A     -0.783850    21A     -0.727242
      22A     -0.711937    23A     -0.689163    24A     -0.665044
      25A     -0.648275    26A     -0.641163    27A     -0.614252
      28A     -0.606648    29A     -0.584823    30A     -0.552368
      31A     -0.544081    32A     -0.533178    33A     -0.525739
      34A     -0.517908    35A     -0.500164    36A     -0.492476
      37A     -0.467317    38A     -0.420604    39A     -0.397089

  @DF-RHF Final Energy:  -512.87480528512231

   => Energetics <=

    Nuclear Repulsion Energy =            548.4863768582283683
    One-Electron Energy =               -1788.9222660090563295
    Two-Electron Energy =                 727.5610838657056547
    Total Energy =                       -512.8748052851223065
  Basis Set: (AUG-CC-PVTZ AUX)
    Blend: AUG-CC-PVTZ-RI
    Molecular point group: c1

    Geometry (in Angstrom), charge = 0, multiplicity = 1:

       Center              X                  Y                   Z               Mass
    ------------   -----------------  -----------------  -----------------  -----------------
         O           -1.971932347917     1.668553790135    -0.188642001517    15.994914619570
         O            1.667479652083    -1.215233209865     0.639942998483    15.994914619570
         O           -3.292718347917    -0.040724209865     0.491020998483    15.994914619570
         N            0.212728652083     0.275510790135    -0.273720001517    14.003074004430
         C           -0.952421347917    -0.489840209865     0.113767998483    12.000000000000
         C           -1.198171347917    -1.674461209865    -0.822328001517    12.000000000000
         C            2.577647652083     0.814007790135    -0.341732001517    12.000000000000
         C            1.483158552083    -0.228033909865     0.113212398483    12.000000000000
         C           -2.192176347917     0.373073790135     0.180625998483    12.000000000000
         C            3.949319652083     0.339272790135     0.111533998483    12.000000000000
         H           -0.785201347917    -0.882514209865     1.124996998483     1.007825032230
         H            0.073682652083     1.203810790135    -0.648991001517     1.007825032230
         H           -1.352886347917    -1.321117209865    -1.844728001517     1.007825032230
         H           -0.325240347917    -2.327497209865    -0.795399001517     1.007825032230
         H           -2.080152347917    -2.228940209865    -0.496226001517     1.007825032230
         H            2.546642652083     0.923943790135    -1.432735001517     1.007825032230
         H            2.354137652083     1.806261790135     0.069512998483     1.007825032230
         H            4.176863652083    -0.640239209865    -0.310832001517     1.007825032230
         H            4.718110652083     1.047613790135    -0.208901001517     1.007825032230
         H            3.988991652083     0.248597790135     1.197839998483     1.007825032230
         H           -2.847549347917     2.104919790135    -0.127763001517     1.007825032230

  Basis Set: AUG-CC-PVTZ
    Blend: AUG-CC-PVTZ
  Basis Set: (AUG-CC-PVTZ AUX)
    Blend: AUG-CC-PVTZ-JKFIT
	 Reference Energy          =    -512.8748052851223065 [Eh]
	 Singles Energy            =      -0.0000000000000000 [Eh]
	 Same-Spin Energy          =      -0.5093305444963259 [Eh]
	 Opposite-Spin Energy      =      -1.6112127813653196 [Eh]
	 Correlation Energy        =      -2.1205433258616457 [Eh]
	 Total Energy              =    -514.9953486109839105 [Eh]

	 ================> DF-SCS-MP2 Energies <==================
	-----------------------------------------------------------
	 SCS Same-Spin Scale       =       0.3333333333333333 [-]
	 SCS Opposite-Spin Scale   =       1.2000000000000000 [-]
	 SCS Same-Spin Energy      =      -0.1697768481654419 [Eh]
	 SCS Opposite-Spin Energy  =      -1.9334553376383834 [Eh]
	 SCS Correlation Energy    =      -2.1032321858038254 [Eh]
	 SCS Total Energy          =    -514.9780374709260968 [Eh]
	-----------------------------------------------------------

  Dipole Moment: [D]
     X:     0.2962      Y:     2.8679      Z:    -1.5433     Total:     3.2703

*** Psi4 exiting successfully. Buy a developer a beer!
