                               Psi4 1.3.2 release

  ==> Input File <==

--------------------------------------------------------------------------
#psi4
#
memory 32 gb

molecule  {
0 1
  O       -1.9705880     1.6613530    -0.1848000
  O        1.6688240    -1.2224340     0.6437850
  O       -3.2913740    -0.0479250     0.4948630
  N        0.2095290     0.2584381    -0.2650075
  C       -0.9510770    -0.4970410     0.1176100
  C       -1.1968270    -1.6816620    -0.8184860
  C        2.5879483     0.7985498    -0.3326251
  C        1.4682490    -0.1481810     0.0706060
  C       -2.1908320     0.3658730     0.1844680
  C        3.9506640     0.3320720     0.1153760
  H       -0.7838570    -0.8897150     1.1288390
  H        0.0750270     1.1966100    -0.6451490
  H       -1.3515420    -1.3283180    -1.8408860
  H       -0.3238960    -2.3346980    -0.7915570
  H       -2.0788080    -2.2361410    -0.4923840
  H        2.5479870     0.9167430    -1.4288930
  H        2.3554820     1.7990610     0.0733550
  H        4.1782080    -0.6474400    -0.3069900
  H        4.7194550     1.0404130    -0.2050590
  H        3.9903360     0.2413970     1.2016820
  H       -2.8462050     2.0977190    -0.1239210
units angstrom
no_reorient  #important for SAPT in psi4, default
symmetry c1  #important for SAPT in psi4, default
}

set PROPERTIES_ORIGIN ["COM"]
properties('MP2/aug-cc-pvtz', properties = ['dipole'])
--------------------------------------------------------------------------

    Molecular point group: c1
  Charge       = 0
  Multiplicity = 1
  Basis Set: AUG-CC-PVTZ
    Blend: AUG-CC-PVTZ
  Basis Set: (AUG-CC-PVTZ AUX)
    Blend: AUG-CC-PVTZ-JKFIT

    Orbital Energies [Eh]
    ---------------------

    Doubly Occupied:

       1A    -20.636622     2A    -20.564560     3A    -20.523792
       4A    -15.592107     5A    -11.405766     6A    -11.355745
       7A    -11.296498     8A    -11.248629     9A    -11.226443
      10A    -11.219441    11A     -1.478672    12A     -1.380705
      13A     -1.373809    14A     -1.246816    15A     -1.076035
      16A     -1.036942    17A     -0.928506    18A     -0.886251
      19A     -0.816716    20A     -0.790883    21A     -0.731868
      22A     -0.714369    23A     -0.683788    24A     -0.665954
      25A     -0.640809    26A     -0.633714    27A     -0.610683
      28A     -0.602089    29A     -0.581371    30A     -0.547852
      31A     -0.544873    32A     -0.527742    33A     -0.520878
      34A     -0.519836    35A     -0.496892    36A     -0.487143
      37A     -0.468420    38A     -0.427914    39A     -0.399101

  @DF-RHF Final Energy:  -512.88532494189462

   => Energetics <=

    Nuclear Repulsion Energy =            548.2213137886244567
    One-Electron Energy =               -1788.4328125676361196
    Two-Electron Energy =                 727.3261738371170395
    Total Energy =                       -512.8853249418946234
  Basis Set: (AUG-CC-PVTZ AUX)
    Blend: AUG-CC-PVTZ-RI
    Molecular point group: c1

    Geometry (in Angstrom), charge = 0, multiplicity = 1:

       Center              X                  Y                   Z               Mass
    ------------   -----------------  -----------------  -----------------  -----------------
         O           -1.970890112371     1.662988894648    -0.185705566721    15.994914619570
         O            1.668521887629    -1.220798105352     0.642879433279    15.994914619570
         O           -3.291676112371    -0.046289105352     0.493957433279    15.994914619570
         N            0.209226887629     0.260073994648    -0.265913066721    14.003074004430
         C           -0.951379112371    -0.495405105352     0.116704433279    12.000000000000
         C           -1.197129112371    -1.680026105352    -0.819391566721    12.000000000000
         C            2.587646187629     0.800185694648    -0.333530666721    12.000000000000
         C            1.467946887629    -0.146545105352     0.069700433279    12.000000000000
         C           -2.191134112371     0.367508894648     0.183562433279    12.000000000000
         C            3.950361887629     0.333707894648     0.114470433279    12.000000000000
         H           -0.784159112371    -0.888079105352     1.127933433279     1.007825032230
         H            0.074724887629     1.198245894648    -0.646054566721     1.007825032230
         H           -1.351844112371    -1.326682105352    -1.841791566721     1.007825032230
         H           -0.324198112371    -2.333062105352    -0.792462566721     1.007825032230
         H           -2.079110112371    -2.234505105352    -0.493289566721     1.007825032230
         H            2.547684887629     0.918378894648    -1.429798566721     1.007825032230
         H            2.355179887629     1.800696894648     0.072449433279     1.007825032230
         H            4.177905887629    -0.645804105352    -0.307895566721     1.007825032230
         H            4.719152887629     1.042048894648    -0.205964566721     1.007825032230
         H            3.990033887629     0.243032894648     1.200776433279     1.007825032230
         H           -2.846507112371     2.099354894648    -0.124826566721     1.007825032230

  Basis Set: AUG-CC-PVTZ
    Blend: AUG-CC-PVTZ
  Basis Set: (AUG-CC-PVTZ AUX)
    Blend: AUG-CC-PVTZ-JKFIT
	 Reference Energy          =    -512.8853249418946234 [Eh]
	 Singles Energy            =      -0.0000000000000000 [Eh]
	 Same-Spin Energy          =      -0.5115070786228106 [Eh]
	 Opposite-Spin Energy      =      -1.6150912962028923 [Eh]
	 Correlation Energy        =      -2.1265983748257029 [Eh]
	 Total Energy              =    -515.0119233167202992 [Eh]

	 ================> DF-SCS-MP2 Energies <==================
	-----------------------------------------------------------
	 SCS Same-Spin Scale       =       0.3333333333333333 [-]
	 SCS Opposite-Spin Scale   =       1.2000000000000000 [-]
	 SCS Same-Spin Energy      =      -0.1705023595409369 [Eh]
	 SCS Opposite-Spin Energy  =      -1.9381095554434706 [Eh]
	 SCS Correlation Energy    =      -2.1086119149844076 [Eh]
	 SCS Total Energy          =    -514.9939368568790314 [Eh]
	-----------------------------------------------------------

  Dipole Moment: [D]
     X:    -0.0647      Y:     3.3907      Z:    -1.8657     Total:     3.8707

*** Psi4 exiting successfully. Buy a developer a beer!
