                               Psi4 1.4a3.dev225

  ==> Input File <==

--------------------------------------------------------------------------
#psi4
#
memory 32 gb

molecule  {
0 1
  O       -2.1439760    -1.5096120     0.4578230
  O        1.6019480     1.2946100    -0.5777250
  O       -3.1849820    -0.0999640    -0.9818910
  N        0.1649120    -0.2715720     0.2333030
  C       -1.0051050     0.5087660    -0.1211110
  C       -1.3212480     1.5963590     0.9125160
  C        2.5597860    -0.6480590     0.5035240
  C        1.4183570     0.2162400    -0.0039080
  C       -2.2159370    -0.3767160    -0.3010400
  C        3.7806550    -0.5458820    -0.4040570
  H       -0.7985159     1.0079586    -1.1288115
  H        0.0342290    -1.1271740     0.7572540
  H       -1.5188550     1.1449870     1.8886910
  H       -0.4592110     2.2615650     0.9886780
  H       -2.1947650     2.1753270     0.6002850
  H        2.8115640    -0.2961200     1.5118980
  H        2.2315720    -1.6889350     0.6045970
  H        4.0689510     0.4992230    -0.5227640
  H        4.6219880    -1.1034150     0.0157220
  H        3.5611410    -0.9492480    -1.3958190
  H       -2.9864200    -1.9858630     0.3018850
units angstrom
no_reorient  #important for SAPT in psi4, default
symmetry c1  #important for SAPT in psi4, default
}

set PROPERTIES_ORIGIN ["COM"]
properties('MP2/aug-cc-pvtz', properties = ['dipole'])
--------------------------------------------------------------------------

    Molecular point group: c1
  Charge       = 0
  Multiplicity = 1
  Basis Set: AUG-CC-PVTZ
    Blend: AUG-CC-PVTZ
  Basis Set: (AUG-CC-PVTZ AUX)
    Blend: AUG-CC-PVTZ-JKFIT

    Orbital Energies [Eh]
    ---------------------

    Doubly Occupied:

       1A    -20.634425     2A    -20.564799     3A    -20.522833
       4A    -15.596185     5A    -11.403953     6A    -11.356947
       7A    -11.301493     8A    -11.247822     9A    -11.233586
      10A    -11.221896    11A     -1.476368    12A     -1.379553
      13A     -1.372413    14A     -1.245706    15A     -1.075120
      16A     -1.036732    17A     -0.928274    18A     -0.885999
      19A     -0.817396    20A     -0.794472    21A     -0.728001
      22A     -0.714288    23A     -0.680362    24A     -0.659619
      25A     -0.641778    26A     -0.627792    27A     -0.608721
      28A     -0.600177    29A     -0.593685    30A     -0.552493
      31A     -0.541122    32A     -0.533222    33A     -0.522531
      34A     -0.512997    35A     -0.497796    36A     -0.486636
      37A     -0.468571    38A     -0.427492    39A     -0.400252

  @DF-RHF Final Energy:  -512.88390453279590

   => Energetics <=

    Nuclear Repulsion Energy =            547.4809770100496280
    One-Electron Energy =               -1786.9427473056948656
    Two-Electron Energy =                 726.5778657628493420
    Total Energy =                       -512.8839045327958956
  Basis Set: (AUG-CC-PVTZ AUX)
    Blend: AUG-CC-PVTZ-RI
    Molecular point group: c1

    Geometry (in Angstrom), charge = 0, multiplicity = 1:

       Center              X                  Y                   Z               Mass
    ------------   -----------------  -----------------  -----------------  -----------------
         O           -2.080140779152    -1.510340054824     0.483155490564    15.994914619570
         O            1.665783220848     1.293881945176    -0.552392509436    15.994914619570
         O           -3.121146779152    -0.100692054824    -0.956558509436    15.994914619570
         N            0.228747220848    -0.272300054824     0.258635490564    14.003074004430
         C           -0.941269779152     0.508037945176    -0.095778509436    12.000000000000
         C           -1.257412779152     1.595630945176     0.937848490564    12.000000000000
         C            2.623621220848    -0.648787054824     0.528856490564    12.000000000000
         C            1.482192220848     0.215511945176     0.021424490564    12.000000000000
         C           -2.152101779152    -0.377444054824    -0.275707509436    12.000000000000
         C            3.844490220848    -0.546610054824    -0.378724509436    12.000000000000
         H           -0.734680679152     1.007230545176    -1.103479009436     1.007825032230
         H            0.098064220848    -1.127902054824     0.782586490564     1.007825032230
         H           -1.455019779152     1.144258945176     1.914023490564     1.007825032230
         H           -0.395375779152     2.260836945176     1.014010490564     1.007825032230
         H           -2.130929779152     2.174598945176     0.625617490564     1.007825032230
         H            2.875399220848    -0.296848054824     1.537230490564     1.007825032230
         H            2.295407220848    -1.689663054824     0.629929490564     1.007825032230
         H            4.132786220848     0.498494945176    -0.497431509436     1.007825032230
         H            4.685823220848    -1.104143054824     0.041054490564     1.007825032230
         H            3.624976220848    -0.949976054824    -1.370486509436     1.007825032230
         H           -2.922584779152    -1.986591054824     0.327217490564     1.007825032230

  Basis Set: AUG-CC-PVTZ
    Blend: AUG-CC-PVTZ
  Basis Set: (AUG-CC-PVTZ AUX)
    Blend: AUG-CC-PVTZ-JKFIT
	 Reference Energy          =    -512.8839045327958956 [Eh]
	 Singles Energy            =      -0.0000000000000000 [Eh]
	 Same-Spin Energy          =      -0.5113445692219685 [Eh]
	 Opposite-Spin Energy      =      -1.6156085383366561 [Eh]
	 Correlation Energy        =      -2.1269531075586245 [Eh]
	 Total Energy              =    -515.0108576403545158 [Eh]

	 ================> DF-SCS-MP2 Energies <==================
	-----------------------------------------------------------
	 SCS Same-Spin Scale       =       0.3333333333333333 [-]
	 SCS Opposite-Spin Scale   =       1.2000000000000000 [-]
	 SCS Same-Spin Energy      =      -0.1704481897406561 [Eh]
	 SCS Opposite-Spin Energy  =      -1.9387302460039872 [Eh]
	 SCS Correlation Energy    =      -2.1091784357446435 [Eh]
	 SCS Total Energy          =    -514.9930829685405342 [Eh]
	-----------------------------------------------------------

  Dipole Moment: [D]
     X:    -0.2026      Y:    -3.0339      Z:     2.6488     Total:     4.0326

*** Psi4 exiting successfully. Buy a developer a beer!
