                               Psi4 1.3.2 release

  ==> Input File <==

--------------------------------------------------------------------------
#psi4
#
memory 32 gb

molecule  {
0 1
  O       -1.9705880     1.6613530    -0.1848000
  O        1.6688240    -1.2224340     0.6437850
  O       -3.2913740    -0.0479250     0.4948630
  N        0.2140730     0.2683100    -0.2698780
  C       -0.9510770    -0.4970410     0.1176100
  C       -1.1968270    -1.6816620    -0.8184860
  C        2.5789920     0.8068070    -0.3378900
  C        1.4682490    -0.1481810     0.0706060
  C       -2.1908320     0.3658730     0.1844680
  C        3.9506640     0.3320720     0.1153760
  H       -0.7838570    -0.8897150     1.1288390
  H        0.0750270     1.1966100    -0.6451490
  H       -1.3515420    -1.3283180    -1.8408860
  H       -0.3238960    -2.3346980    -0.7915570
  H       -2.0788080    -2.2361410    -0.4923840
  H        2.5479870     0.9167430    -1.4288930
  H        2.3554820     1.7990610     0.0733550
  H        4.1782080    -0.6474400    -0.3069900
  H        4.7194550     1.0404130    -0.2050590
  H        3.9903360     0.2413970     1.2016820
  H       -2.9355338     2.1422363    -0.1177102
units angstrom
no_reorient  #important for SAPT in psi4, default
symmetry c1  #important for SAPT in psi4, default
}

set PROPERTIES_ORIGIN ["COM"]
properties('MP2/aug-cc-pvtz', properties = ['dipole'])
--------------------------------------------------------------------------

    Molecular point group: c1
  Charge       = 0
  Multiplicity = 1
  Basis Set: AUG-CC-PVTZ
    Blend: AUG-CC-PVTZ
  Basis Set: (AUG-CC-PVTZ AUX)
    Blend: AUG-CC-PVTZ-JKFIT

    Orbital Energies [Eh]
    ---------------------

    Doubly Occupied:

       1A    -20.641369     2A    -20.562622     3A    -20.524121
       4A    -15.590988     5A    -11.403763     6A    -11.355393
       7A    -11.296726     8A    -11.246861     9A    -11.226278
      10A    -11.219263    11A     -1.466196    12A     -1.380051
      13A     -1.364962    14A     -1.244992    15A     -1.074501
      16A     -1.034870    17A     -0.923413    18A     -0.882918
      19A     -0.806101    20A     -0.790774    21A     -0.728841
      22A     -0.703988    23A     -0.680865    24A     -0.664278
      25A     -0.640425    26A     -0.631821    27A     -0.604554
      28A     -0.601454    29A     -0.580179    30A     -0.546023
      31A     -0.542395    32A     -0.523955    33A     -0.520455
      34A     -0.519137    35A     -0.496240    36A     -0.487445
      37A     -0.466833    38A     -0.427677    39A     -0.399507

  @DF-RHF Final Energy:  -512.87290430504038

   => Energetics <=

    Nuclear Repulsion Energy =            547.4219359465620300
    One-Electron Energy =               -1786.9852104970366327
    Two-Electron Energy =                 726.6903702454341101
    Total Energy =                       -512.8729043050403789
  Basis Set: (AUG-CC-PVTZ AUX)
    Blend: AUG-CC-PVTZ-RI
    Molecular point group: c1

    Geometry (in Angstrom), charge = 0, multiplicity = 1:

       Center              X                  Y                   Z               Mass
    ------------   -----------------  -----------------  -----------------  -----------------
         O           -1.969967317584     1.661043754903    -0.184843100226    15.994914619570
         O            1.669444682416    -1.222743245097     0.643741899774    15.994914619570
         O           -3.290753317584    -0.048234245097     0.494819899774    15.994914619570
         N            0.214693682416     0.268000754903    -0.269921100226    14.003074004430
         C           -0.950456317584    -0.497350245097     0.117566899774    12.000000000000
         C           -1.196206317584    -1.681971245097    -0.818529100226    12.000000000000
         C            2.579612682416     0.806497754903    -0.337933100226    12.000000000000
         C            1.468869682416    -0.148490245097     0.070562899774    12.000000000000
         C           -2.190211317584     0.365563754903     0.184424899774    12.000000000000
         C            3.951284682416     0.331762754903     0.115332899774    12.000000000000
         H           -0.783236317584    -0.890024245097     1.128795899774     1.007825032230
         H            0.075647682416     1.196300754903    -0.645192100226     1.007825032230
         H           -1.350921317584    -1.328627245097    -1.840929100226     1.007825032230
         H           -0.323275317584    -2.335007245097    -0.791600100226     1.007825032230
         H           -2.078187317584    -2.236450245097    -0.492427100226     1.007825032230
         H            2.548607682416     0.916433754903    -1.428936100226     1.007825032230
         H            2.356102682416     1.798751754903     0.073311899774     1.007825032230
         H            4.178828682416    -0.647749245097    -0.307033100226     1.007825032230
         H            4.720075682416     1.040103754903    -0.205102100226     1.007825032230
         H            3.990956682416     0.241087754903     1.201638899774     1.007825032230
         H           -2.934913117584     2.141927054903    -0.117753300226     1.007825032230

  Basis Set: AUG-CC-PVTZ
    Blend: AUG-CC-PVTZ
  Basis Set: (AUG-CC-PVTZ AUX)
    Blend: AUG-CC-PVTZ-JKFIT
	 Reference Energy          =    -512.8729043050403789 [Eh]
	 Singles Energy            =      -0.0000000000000000 [Eh]
	 Same-Spin Energy          =      -0.5126306418323415 [Eh]
	 Opposite-Spin Energy      =      -1.6180560940370692 [Eh]
	 Correlation Energy        =      -2.1306867358694106 [Eh]
	 Total Energy              =    -515.0035910409097824 [Eh]

	 ================> DF-SCS-MP2 Energies <==================
	-----------------------------------------------------------
	 SCS Same-Spin Scale       =       0.3333333333333333 [-]
	 SCS Opposite-Spin Scale   =       1.2000000000000000 [-]
	 SCS Same-Spin Energy      =      -0.1708768806107805 [Eh]
	 SCS Opposite-Spin Energy  =      -1.9416673128444830 [Eh]
	 SCS Correlation Energy    =      -2.1125441934552636 [Eh]
	 SCS Total Energy          =    -514.9854484984956571 [Eh]
	-----------------------------------------------------------

  Dipole Moment: [D]
     X:    -0.1963      Y:     3.4517      Z:    -1.8614     Total:     3.9265

*** Psi4 exiting successfully. Buy a developer a beer!
