                               Psi4 1.3.2 release

  ==> Input File <==

--------------------------------------------------------------------------
#psi4
#
memory 32 gb

molecule  {
0 1
  O       -1.9705880     1.6613530    -0.1848000
  O        1.6688240    -1.2224340     0.6437850
  O       -3.2913740    -0.0479250     0.4948630
  N        0.2140730     0.2683100    -0.2698780
  C       -0.9047866    -0.5533982     0.1380833
  C       -1.1968270    -1.6816620    -0.8184860
  C        2.5789920     0.8068070    -0.3378900
  C        1.4682490    -0.1481810     0.0706060
  C       -2.1908320     0.3658730     0.1844680
  C        3.9506640     0.3320720     0.1153760
  H       -0.7838570    -0.8897150     1.1288390
  H        0.1275360     1.2009465    -0.6501457
  H       -1.3515420    -1.3283180    -1.8408860
  H       -0.3238960    -2.3346980    -0.7915570
  H       -2.0788080    -2.2361410    -0.4923840
  H        2.5479870     0.9167430    -1.4288930
  H        2.3554820     1.7990610     0.0733550
  H        4.1782080    -0.6474400    -0.3069900
  H        4.7194550     1.0404130    -0.2050590
  H        3.9903360     0.2413970     1.2016820
  H       -2.8462050     2.0977190    -0.1239210
units angstrom
no_reorient  #important for SAPT in psi4, default
symmetry c1  #important for SAPT in psi4, default
}

set PROPERTIES_ORIGIN ["COM"]
properties('MP2/aug-cc-pvtz', properties = ['dipole'])
--------------------------------------------------------------------------

    Molecular point group: c1
  Charge       = 0
  Multiplicity = 1
  Basis Set: AUG-CC-PVTZ
    Blend: AUG-CC-PVTZ
  Basis Set: (AUG-CC-PVTZ AUX)
    Blend: AUG-CC-PVTZ-JKFIT

    Orbital Energies [Eh]
    ---------------------

    Doubly Occupied:

       1A    -20.634964     2A    -20.563097     3A    -20.524158
       4A    -15.591602     5A    -11.403971     6A    -11.353905
       7A    -11.299362     8A    -11.247277     9A    -11.225223
      10A    -11.219704    11A     -1.475137    12A     -1.381066
      13A     -1.371340    14A     -1.245978    15A     -1.075220
      16A     -1.035612    17A     -0.922038    18A     -0.881659
      19A     -0.822386    20A     -0.788215    21A     -0.726638
      22A     -0.713046    23A     -0.684449    24A     -0.664587
      25A     -0.641572    26A     -0.636810    27A     -0.606824
      28A     -0.604499    29A     -0.586938    30A     -0.547942
      31A     -0.539866    32A     -0.526362    33A     -0.525113
      34A     -0.520256    35A     -0.496761    36A     -0.490668
      37A     -0.459890    38A     -0.427113    39A     -0.401894

  @DF-RHF Final Energy:  -512.88074419620295

   => Energetics <=

    Nuclear Repulsion Energy =            547.6060703472536488
    One-Electron Energy =               -1787.2473406014594275
    Two-Electron Energy =                 726.7605260580027107
    Total Energy =                       -512.8807441962029543
  Basis Set: (AUG-CC-PVTZ AUX)
    Blend: AUG-CC-PVTZ-RI
    Molecular point group: c1

    Geometry (in Angstrom), charge = 0, multiplicity = 1:

       Center              X                  Y                   Z               Mass
    ------------   -----------------  -----------------  -----------------  -----------------
         O           -1.974781639926     1.665984558518    -0.186458721036    15.994914619570
         O            1.664630360074    -1.217802441482     0.642126278964    15.994914619570
         O           -3.295567639926    -0.043293441482     0.493204278964    15.994914619570
         N            0.209879360074     0.272941558518    -0.271536721036    14.003074004430
         C           -0.908980239926    -0.548766641482     0.136424578964    12.000000000000
         C           -1.201020639926    -1.677030441482    -0.820144721036    12.000000000000
         C            2.574798360074     0.811438558518    -0.339548721036    12.000000000000
         C            1.464055360074    -0.143549441482     0.068947278964    12.000000000000
         C           -2.195025639926     0.370504558518     0.182809278964    12.000000000000
         C            3.946470360074     0.336703558518     0.113717278964    12.000000000000
         H           -0.788050639926    -0.885083441482     1.127180278964     1.007825032230
         H            0.123342360074     1.205578058518    -0.651804421036     1.007825032230
         H           -1.355735639926    -1.323686441482    -1.842544721036     1.007825032230
         H           -0.328089639926    -2.330066441482    -0.793215721036     1.007825032230
         H           -2.083001639926    -2.231509441482    -0.494042721036     1.007825032230
         H            2.543793360074     0.921374558518    -1.430551721036     1.007825032230
         H            2.351288360074     1.803692558518     0.071696278964     1.007825032230
         H            4.174014360074    -0.642808441482    -0.308648721036     1.007825032230
         H            4.715261360074     1.045044558518    -0.206717721036     1.007825032230
         H            3.986142360074     0.246028558518     1.200023278964     1.007825032230
         H           -2.850398639926     2.102350558518    -0.125579721036     1.007825032230

  Basis Set: AUG-CC-PVTZ
    Blend: AUG-CC-PVTZ
  Basis Set: (AUG-CC-PVTZ AUX)
    Blend: AUG-CC-PVTZ-JKFIT
	 Reference Energy          =    -512.8807441962029543 [Eh]
	 Singles Energy            =      -0.0000000000000000 [Eh]
	 Same-Spin Energy          =      -0.5110264541877383 [Eh]
	 Opposite-Spin Energy      =      -1.6146326547972782 [Eh]
	 Correlation Energy        =      -2.1256591089850163 [Eh]
	 Total Energy              =    -515.0064033051879733 [Eh]

	 ================> DF-SCS-MP2 Energies <==================
	-----------------------------------------------------------
	 SCS Same-Spin Scale       =       0.3333333333333333 [-]
	 SCS Opposite-Spin Scale   =       1.2000000000000000 [-]
	 SCS Same-Spin Energy      =      -0.1703421513959127 [Eh]
	 SCS Opposite-Spin Energy  =      -1.9375591857567338 [Eh]
	 SCS Correlation Energy    =      -2.1079013371526467 [Eh]
	 SCS Total Energy          =    -514.9886455333555659 [Eh]
	-----------------------------------------------------------

  Dipole Moment: [D]
     X:    -0.0653      Y:     3.3496      Z:    -1.8643     Total:     3.8340

*** Psi4 exiting successfully. Buy a developer a beer!
