                               Psi4 1.3.2 release

  ==> Input File <==

--------------------------------------------------------------------------
#psi4
#
memory 32 gb

molecule  {
0 1
  O       -1.9705880     1.6613530    -0.1848000
  O        1.6688240    -1.2224340     0.6437850
  O       -3.2913740    -0.0479250     0.4948630
  N        0.2332006     0.3074731    -0.2890971
  C       -0.9510770    -0.4970410     0.1176100
  C       -1.1968270    -1.6816620    -0.8184860
  C        2.5423279     0.8391021    -0.3586347
  C        1.4682490    -0.1481810     0.0706060
  C       -2.1908320     0.3658730     0.1844680
  C        3.9506640     0.3320720     0.1153760
  H       -0.7838570    -0.8897150     1.1288390
  H        0.0750270     1.1966100    -0.6451490
  H       -1.3515420    -1.3283180    -1.8408860
  H       -0.3238960    -2.3346980    -0.7915570
  H       -2.0788080    -2.2361410    -0.4923840
  H        2.5479870     0.9167430    -1.4288930
  H        2.3554820     1.7990610     0.0733550
  H        4.1782080    -0.6474400    -0.3069900
  H        4.7194550     1.0404130    -0.2050590
  H        3.9903360     0.2413970     1.2016820
  H       -2.8462050     2.0977190    -0.1239210
units angstrom
no_reorient  #important for SAPT in psi4, default
symmetry c1  #important for SAPT in psi4, default
}

set PROPERTIES_ORIGIN ["COM"]
properties('MP2/aug-cc-pvtz', properties = ['dipole'])
--------------------------------------------------------------------------

    Molecular point group: c1
  Charge       = 0
  Multiplicity = 1
  Basis Set: AUG-CC-PVTZ
    Blend: AUG-CC-PVTZ
  Basis Set: (AUG-CC-PVTZ AUX)
    Blend: AUG-CC-PVTZ-JKFIT

    Orbital Energies [Eh]
    ---------------------

    Doubly Occupied:

       1A    -20.636641     2A    -20.564776     3A    -20.528017
       4A    -15.589722     5A    -11.405734     6A    -11.357069
       7A    -11.299856     8A    -11.242400     9A    -11.228437
      10A    -11.220073    11A     -1.478683    12A     -1.380355
      13A     -1.374008    14A     -1.244316    15A     -1.074350
      16A     -1.030932    17A     -0.927421    18A     -0.885074
      19A     -0.819781    20A     -0.799037    21A     -0.727870
      22A     -0.716285    23A     -0.678801    24A     -0.666595
      25A     -0.644925    26A     -0.634625    27A     -0.611204
      28A     -0.605149    29A     -0.578593    30A     -0.547123
      31A     -0.543345    32A     -0.522833    33A     -0.522218
      34A     -0.505590    35A     -0.503104    36A     -0.491532
      37A     -0.468297    38A     -0.428763    39A     -0.404299

  @DF-RHF Final Energy:  -512.88061809264082

   => Energetics <=

    Nuclear Repulsion Energy =            547.3208691394852394
    One-Electron Energy =               -1786.6273078984481799
    Two-Electron Energy =                 726.4258206663221245
    Total Energy =                       -512.8806180926408160
  Basis Set: (AUG-CC-PVTZ AUX)
    Blend: AUG-CC-PVTZ-RI
    Molecular point group: c1

    Geometry (in Angstrom), charge = 0, multiplicity = 1:

       Center              X                  Y                   Z               Mass
    ------------   -----------------  -----------------  -----------------  -----------------
         O           -1.969401425271     1.654901510296    -0.181228926320    15.994914619570
         O            1.670010574729    -1.228885489704     0.647356073680    15.994914619570
         O           -3.290187425271    -0.054376489704     0.498434073680    15.994914619570
         N            0.234387174729     0.301021610296    -0.285526026320    14.003074004430
         C           -0.949890425271    -0.503492489704     0.121181073680    12.000000000000
         C           -1.195640425271    -1.688113489704    -0.814914926320    12.000000000000
         C            2.543514474729     0.832650610296    -0.355063626320    12.000000000000
         C            1.469435574729    -0.154632489704     0.074177073680    12.000000000000
         C           -2.189645425271     0.359421510296     0.188039073680    12.000000000000
         C            3.951850574729     0.325620510296     0.118947073680    12.000000000000
         H           -0.782670425271    -0.896166489704     1.132410073680     1.007825032230
         H            0.076213574729     1.190158510296    -0.641577926320     1.007825032230
         H           -1.350355425271    -1.334769489704    -1.837314926320     1.007825032230
         H           -0.322709425271    -2.341149489704    -0.787985926320     1.007825032230
         H           -2.077621425271    -2.242592489704    -0.488812926320     1.007825032230
         H            2.549173574729     0.910291510296    -1.425321926320     1.007825032230
         H            2.356668574729     1.792609510296     0.076926073680     1.007825032230
         H            4.179394574729    -0.653891489704    -0.303418926320     1.007825032230
         H            4.720641574729     1.033961510296    -0.201487926320     1.007825032230
         H            3.991522574729     0.234945510296     1.205253073680     1.007825032230
         H           -2.845018425271     2.091267510296    -0.120349926320     1.007825032230

  Basis Set: AUG-CC-PVTZ
    Blend: AUG-CC-PVTZ
  Basis Set: (AUG-CC-PVTZ AUX)
    Blend: AUG-CC-PVTZ-JKFIT
	 Reference Energy          =    -512.8806180926408160 [Eh]
	 Singles Energy            =      -0.0000000000000000 [Eh]
	 Same-Spin Energy          =      -0.5108604643023208 [Eh]
	 Opposite-Spin Energy      =      -1.6148930521647507 [Eh]
	 Correlation Energy        =      -2.1257535164670713 [Eh]
	 Total Energy              =    -515.0063716091078732 [Eh]

	 ================> DF-SCS-MP2 Energies <==================
	-----------------------------------------------------------
	 SCS Same-Spin Scale       =       0.3333333333333333 [-]
	 SCS Opposite-Spin Scale   =       1.2000000000000000 [-]
	 SCS Same-Spin Energy      =      -0.1702868214341069 [Eh]
	 SCS Opposite-Spin Energy  =      -1.9378716625977006 [Eh]
	 SCS Correlation Energy    =      -2.1081584840318075 [Eh]
	 SCS Total Energy          =    -514.9887765766726488 [Eh]
	-----------------------------------------------------------

  Dipole Moment: [D]
     X:    -0.1984      Y:     3.2751      Z:    -1.8336     Total:     3.7587

*** Psi4 exiting successfully. Buy a developer a beer!
