                               Psi4 1.3.2 release

  ==> Input File <==

--------------------------------------------------------------------------
#psi4
#
memory 32 gb

molecule  {
0 1
  O       -1.9705880     1.6613530    -0.1848000
  O        1.6688240    -1.2224340     0.6437850
  O       -3.2913740    -0.0479250     0.4948630
  N        0.2140730     0.2683100    -0.2698780
  C       -0.9510770    -0.4970410     0.1176100
  C       -1.1968270    -1.6816620    -0.8184860
  C        2.5789920     0.8068070    -0.3378900
  C        1.4682490    -0.1481810     0.0706060
  C       -2.1908320     0.3658730     0.1844680
  C        3.9506640     0.3320720     0.1153760
  H       -0.7838570    -0.8897150     1.1288390
  H        0.0887818     1.1047802    -0.6080262
  H       -1.3515420    -1.3283180    -1.8408860
  H       -0.3238960    -2.3346980    -0.7915570
  H       -2.0788080    -2.2361410    -0.4923840
  H        2.5479870     0.9167430    -1.4288930
  H        2.3554820     1.7990610     0.0733550
  H        4.1782080    -0.6474400    -0.3069900
  H        4.7194550     1.0404130    -0.2050590
  H        3.9903360     0.2413970     1.2016820
  H       -2.8462050     2.0977190    -0.1239210
units angstrom
no_reorient  #important for SAPT in psi4, default
symmetry c1  #important for SAPT in psi4, default
}

set PROPERTIES_ORIGIN ["COM"]
properties('MP2/aug-cc-pvtz', properties = ['dipole'])
--------------------------------------------------------------------------

    Molecular point group: c1
  Charge       = 0
  Multiplicity = 1
  Basis Set: AUG-CC-PVTZ
    Blend: AUG-CC-PVTZ
  Basis Set: (AUG-CC-PVTZ AUX)
    Blend: AUG-CC-PVTZ-JKFIT

    Orbital Energies [Eh]
    ---------------------

    Doubly Occupied:

       1A    -20.636139     2A    -20.564529     3A    -20.525594
       4A    -15.582848     5A    -11.405737     6A    -11.356848
       7A    -11.297381     8A    -11.248006     9A    -11.227191
      10A    -11.220166    11A     -1.478340    12A     -1.382527
      13A     -1.373607    14A     -1.259013    15A     -1.077119
      16A     -1.038812    17A     -0.929064    18A     -0.887720
      19A     -0.828680    20A     -0.802181    21A     -0.733794
      22A     -0.716790    23A     -0.683617    24A     -0.668504
      25A     -0.642105    26A     -0.634786    27A     -0.610284
      28A     -0.606317    29A     -0.583257    30A     -0.547685
      31A     -0.544812    32A     -0.526428    33A     -0.521704
      34A     -0.520336    35A     -0.498098    36A     -0.488868
      37A     -0.468599    38A     -0.429414    39A     -0.402619

  @DF-RHF Final Energy:  -512.87956869107427

   => Energetics <=

    Nuclear Repulsion Energy =            548.6583831603078352
    One-Electron Energy =               -1789.1768639128815721
    Two-Electron Energy =                 727.6389120614995818
    Total Energy =                       -512.8795686910742688
  Basis Set: (AUG-CC-PVTZ AUX)
    Blend: AUG-CC-PVTZ-RI
    Molecular point group: c1

    Geometry (in Angstrom), charge = 0, multiplicity = 1:

       Center              X                  Y                   Z               Mass
    ------------   -----------------  -----------------  -----------------  -----------------
         O           -1.970683437005     1.661990955102    -0.185057845186    15.994914619570
         O            1.668728562995    -1.221796044898     0.643527154814    15.994914619570
         O           -3.291469437005    -0.047287044898     0.494605154814    15.994914619570
         N            0.213977562995     0.268947955102    -0.270135845186    14.003074004430
         C           -0.951172437005    -0.496403044898     0.117352154814    12.000000000000
         C           -1.196922437005    -1.681024044898    -0.818743845186    12.000000000000
         C            2.578896562995     0.807444955102    -0.338147845186    12.000000000000
         C            1.468153562995    -0.147543044898     0.070348154814    12.000000000000
         C           -2.190927437005     0.366510955102     0.184210154814    12.000000000000
         C            3.950568562995     0.332709955102     0.115118154814    12.000000000000
         H           -0.783952437005    -0.889077044898     1.128581154814     1.007825032230
         H            0.088686362995     1.105418155102    -0.608284045186     1.007825032230
         H           -1.351637437005    -1.327680044898    -1.841143845186     1.007825032230
         H           -0.323991437005    -2.334060044898    -0.791814845186     1.007825032230
         H           -2.078903437005    -2.235503044898    -0.492641845186     1.007825032230
         H            2.547891562995     0.917380955102    -1.429150845186     1.007825032230
         H            2.355386562995     1.799698955102     0.073097154814     1.007825032230
         H            4.178112562995    -0.646802044898    -0.307247845186     1.007825032230
         H            4.719359562995     1.041050955102    -0.205316845186     1.007825032230
         H            3.990240562995     0.242034955102     1.201424154814     1.007825032230
         H           -2.846300437005     2.098356955102    -0.124178845186     1.007825032230

  Basis Set: AUG-CC-PVTZ
    Blend: AUG-CC-PVTZ
  Basis Set: (AUG-CC-PVTZ AUX)
    Blend: AUG-CC-PVTZ-JKFIT
	 Reference Energy          =    -512.8795686910742688 [Eh]
	 Singles Energy            =      -0.0000000000000000 [Eh]
	 Same-Spin Energy          =      -0.5104604014872838 [Eh]
	 Opposite-Spin Energy      =      -1.6132754557446738 [Eh]
	 Correlation Energy        =      -2.1237358572319573 [Eh]
	 Total Energy              =    -515.0033045483062324 [Eh]

	 ================> DF-SCS-MP2 Energies <==================
	-----------------------------------------------------------
	 SCS Same-Spin Scale       =       0.3333333333333333 [-]
	 SCS Opposite-Spin Scale   =       1.2000000000000000 [-]
	 SCS Same-Spin Energy      =      -0.1701534671624279 [Eh]
	 SCS Opposite-Spin Energy  =      -1.9359305468936086 [Eh]
	 SCS Correlation Energy    =      -2.1060840140560364 [Eh]
	 SCS Total Energy          =    -514.9856527051302919 [Eh]
	-----------------------------------------------------------

  Dipole Moment: [D]
     X:    -0.0318      Y:     3.2815      Z:    -1.8266     Total:     3.7558

*** Psi4 exiting successfully. Buy a developer a beer!
