                               Psi4 1.3.2 release

  ==> Input File <==

--------------------------------------------------------------------------
#psi4
#
memory 32 gb

molecule  {
0 1
  O       -1.9705880     1.6613530    -0.1848000
  O        1.6688240    -1.2224340     0.6437850
  O       -3.2913740    -0.0479250     0.4948630
  N        0.2140730     0.2683100    -0.2698780
  C       -0.9510770    -0.4970410     0.1176100
  C       -1.1968270    -1.6816620    -0.8184860
  C        2.5789920     0.8068070    -0.3378900
  C        1.4682490    -0.1481810     0.0706060
  C       -2.1960823     0.3487254     0.2615679
  C        3.9506640     0.3320720     0.1153760
  H       -0.8306418    -0.8611269     1.1460439
  H        0.0750270     1.1966100    -0.6451490
  H       -1.3515420    -1.3283180    -1.8408860
  H       -0.3238960    -2.3346980    -0.7915570
  H       -2.0788080    -2.2361410    -0.4923840
  H        2.5479870     0.9167430    -1.4288930
  H        2.3554820     1.7990610     0.0733550
  H        4.1782080    -0.6474400    -0.3069900
  H        4.7194550     1.0404130    -0.2050590
  H        3.9903360     0.2413970     1.2016820
  H       -2.8462050     2.0977190    -0.1239210
units angstrom
no_reorient  #important for SAPT in psi4, default
symmetry c1  #important for SAPT in psi4, default
}

set PROPERTIES_ORIGIN ["COM"]
properties('MP2/aug-cc-pvtz', properties = ['dipole'])
--------------------------------------------------------------------------

    Molecular point group: c1
  Charge       = 0
  Multiplicity = 1
  Basis Set: AUG-CC-PVTZ
    Blend: AUG-CC-PVTZ
  Basis Set: (AUG-CC-PVTZ AUX)
    Blend: AUG-CC-PVTZ-JKFIT

    Orbital Energies [Eh]
    ---------------------

    Doubly Occupied:

       1A    -20.624691     2A    -20.572024     3A    -20.523996
       4A    -15.591808     5A    -11.404294     6A    -11.355596
       7A    -11.298146     8A    -11.246923     9A    -11.228477
      10A    -11.219304    11A     -1.473855    12A     -1.381324
      13A     -1.377900    14A     -1.245108    15A     -1.075492
      16A     -1.036039    17A     -0.927273    18A     -0.884927
      19A     -0.808769    20A     -0.789995    21A     -0.729605
      22A     -0.713139    23A     -0.682235    24A     -0.663586
      25A     -0.640450    26A     -0.634753    27A     -0.609979
      28A     -0.601093    29A     -0.580575    30A     -0.548927
      31A     -0.545669    32A     -0.524383    33A     -0.522433
      34A     -0.519660    35A     -0.503582    36A     -0.490536
      37A     -0.466365    38A     -0.427997    39A     -0.401378

  @DF-RHF Final Energy:  -512.88162955017685

   => Energetics <=

    Nuclear Repulsion Energy =            547.7843086231822554
    One-Electron Energy =               -1787.5873021300906203
    Two-Electron Energy =                 726.9213639567316250
    Total Energy =                       -512.8816295501768536
  Basis Set: (AUG-CC-PVTZ AUX)
    Blend: AUG-CC-PVTZ-RI
    Molecular point group: c1

    Geometry (in Angstrom), charge = 0, multiplicity = 1:

       Center              X                  Y                   Z               Mass
    ------------   -----------------  -----------------  -----------------  -----------------
         O           -1.969828583512     1.662572803594    -0.191296907375    15.994914619570
         O            1.669583416488    -1.221214196406     0.637288092625    15.994914619570
         O           -3.290614583512    -0.046705196406     0.488366092625    15.994914619570
         N            0.214832416488     0.269529803594    -0.276374907375    14.003074004430
         C           -0.950317583512    -0.495821196406     0.111113092625    12.000000000000
         C           -1.196067583512    -1.680442196406    -0.824982907375    12.000000000000
         C            2.579751416488     0.808026803594    -0.344386907375    12.000000000000
         C            1.469008416488    -0.146961196406     0.064109092625    12.000000000000
         C           -2.195322883512     0.349945203594     0.255070992625    12.000000000000
         C            3.951423416488     0.333291803594     0.108879092625    12.000000000000
         H           -0.829882383512    -0.859907096406     1.139546992625     1.007825032230
         H            0.075786416488     1.197829803594    -0.651645907375     1.007825032230
         H           -1.350782583512    -1.327098196406    -1.847382907375     1.007825032230
         H           -0.323136583512    -2.333478196406    -0.798053907375     1.007825032230
         H           -2.078048583512    -2.234921196406    -0.498880907375     1.007825032230
         H            2.548746416488     0.917962803594    -1.435389907375     1.007825032230
         H            2.356241416488     1.800280803594     0.066858092625     1.007825032230
         H            4.178967416488    -0.646220196406    -0.313486907375     1.007825032230
         H            4.720214416488     1.041632803594    -0.211555907375     1.007825032230
         H            3.991095416488     0.242616803594     1.195185092625     1.007825032230
         H           -2.845445583512     2.098938803594    -0.130417907375     1.007825032230

  Basis Set: AUG-CC-PVTZ
    Blend: AUG-CC-PVTZ
  Basis Set: (AUG-CC-PVTZ AUX)
    Blend: AUG-CC-PVTZ-JKFIT
	 Reference Energy          =    -512.8816295501768536 [Eh]
	 Singles Energy            =      -0.0000000000000000 [Eh]
	 Same-Spin Energy          =      -0.5111669566869895 [Eh]
	 Opposite-Spin Energy      =      -1.6149679295213568 [Eh]
	 Correlation Energy        =      -2.1261348862083462 [Eh]
	 Total Energy              =    -515.0077644363851732 [Eh]

	 ================> DF-SCS-MP2 Energies <==================
	-----------------------------------------------------------
	 SCS Same-Spin Scale       =       0.3333333333333333 [-]
	 SCS Opposite-Spin Scale   =       1.2000000000000000 [-]
	 SCS Same-Spin Energy      =      -0.1703889855623298 [Eh]
	 SCS Opposite-Spin Energy  =      -1.9379615154256280 [Eh]
	 SCS Correlation Energy    =      -2.1083505009879580 [Eh]
	 SCS Total Energy          =    -514.9899800511648209 [Eh]
	-----------------------------------------------------------

  Dipole Moment: [D]
     X:    -0.2194      Y:     3.1034      Z:    -1.6936     Total:     3.5422

*** Psi4 exiting successfully. Buy a developer a beer!
