                               Psi4 1.3.2 release

  ==> Input File <==

--------------------------------------------------------------------------
#psi4
#
memory 32 gb

molecule  {
0 1
  O       -1.9705880     1.6613530    -0.1848000
  O        1.6688240    -1.2224340     0.6437850
  O       -3.2913740    -0.0479250     0.4948630
  N        0.2194085     0.2657276    -0.2587294
  C       -0.9510770    -0.4970410     0.1176100
  C       -1.1968270    -1.6816620    -0.8184860
  C        2.5789920     0.8068070    -0.3378900
  C        1.4682490    -0.1481810     0.0706060
  C       -2.1908320     0.3658730     0.1844680
  C        3.9506640     0.3320720     0.1153760
  H       -0.7752599    -0.8854953     1.1290105
  H        0.0750270     1.1966100    -0.6451490
  H       -1.3515420    -1.3283180    -1.8408860
  H       -0.3238960    -2.3346980    -0.7915570
  H       -2.0788080    -2.2361410    -0.4923840
  H        2.5479870     0.9167430    -1.4288930
  H        2.3554820     1.7990610     0.0733550
  H        4.1782080    -0.6474400    -0.3069900
  H        4.7194550     1.0404130    -0.2050590
  H        3.9903360     0.2413970     1.2016820
  H       -2.8462050     2.0977190    -0.1239210
units angstrom
no_reorient  #important for SAPT in psi4, default
symmetry c1  #important for SAPT in psi4, default
}

set PROPERTIES_ORIGIN ["COM"]
properties('MP2/aug-cc-pvtz', properties = ['dipole'])
--------------------------------------------------------------------------

    Molecular point group: c1
  Charge       = 0
  Multiplicity = 1
  Basis Set: AUG-CC-PVTZ
    Blend: AUG-CC-PVTZ
  Basis Set: (AUG-CC-PVTZ AUX)
    Blend: AUG-CC-PVTZ-JKFIT

    Orbital Energies [Eh]
    ---------------------

    Doubly Occupied:

       1A    -20.637039     2A    -20.565082     3A    -20.522809
       4A    -15.592341     5A    -11.406334     6A    -11.354477
       7A    -11.297501     8A    -11.246957     9A    -11.227302
      10A    -11.219295    11A     -1.479076    12A     -1.380458
      13A     -1.374256    14A     -1.246616    15A     -1.075891
      16A     -1.035960    17A     -0.928842    18A     -0.885764
      19A     -0.816918    20A     -0.793334    21A     -0.731347
      22A     -0.714929    23A     -0.682551    24A     -0.666458
      25A     -0.641530    26A     -0.633757    27A     -0.611145
      28A     -0.601862    29A     -0.581182    30A     -0.547598
      31A     -0.544689    32A     -0.524053    33A     -0.521152
      34A     -0.519509    35A     -0.497933    36A     -0.488462
      37A     -0.468878    38A     -0.427593    39A     -0.399882

  @DF-RHF Final Energy:  -512.88595642983591

   => Energetics <=

    Nuclear Repulsion Energy =            548.1496291129265046
    One-Electron Energy =               -1788.2896455957177295
    Two-Electron Energy =                 727.2540600529553103
    Total Energy =                       -512.8859564298359146
  Basis Set: (AUG-CC-PVTZ AUX)
    Blend: AUG-CC-PVTZ-RI
    Molecular point group: c1

    Geometry (in Angstrom), charge = 0, multiplicity = 1:

       Center              X                  Y                   Z               Mass
    ------------   -----------------  -----------------  -----------------  -----------------
         O           -1.971162608968     1.661572964306    -0.185877249857    15.994914619570
         O            1.668249391032    -1.222214035694     0.642707750143    15.994914619570
         O           -3.291948608968    -0.047705035694     0.493785750143    15.994914619570
         N            0.218833891032     0.265947564306    -0.259806649857    14.003074004430
         C           -0.951651608968    -0.496821035694     0.116532750143    12.000000000000
         C           -1.197401608968    -1.681442035694    -0.819563249857    12.000000000000
         C            2.578417391032     0.807026964306    -0.338967249857    12.000000000000
         C            1.467674391032    -0.147961035694     0.069528750143    12.000000000000
         C           -2.191406608968     0.366092964306     0.183390750143    12.000000000000
         C            3.950089391032     0.332291964306     0.114298750143    12.000000000000
         H           -0.775834508968    -0.885275335694     1.127933250143     1.007825032230
         H            0.074452391032     1.196829964306    -0.646226249857     1.007825032230
         H           -1.352116608968    -1.328098035694    -1.841963249857     1.007825032230
         H           -0.324470608968    -2.334478035694    -0.792634249857     1.007825032230
         H           -2.079382608968    -2.235921035694    -0.493461249857     1.007825032230
         H            2.547412391032     0.916962964306    -1.429970249857     1.007825032230
         H            2.354907391032     1.799280964306     0.072277750143     1.007825032230
         H            4.177633391032    -0.647220035694    -0.308067249857     1.007825032230
         H            4.718880391032     1.040632964306    -0.206136249857     1.007825032230
         H            3.989761391032     0.241616964306     1.200604750143     1.007825032230
         H           -2.846779608968     2.097938964306    -0.124998249857     1.007825032230

  Basis Set: AUG-CC-PVTZ
    Blend: AUG-CC-PVTZ
  Basis Set: (AUG-CC-PVTZ AUX)
    Blend: AUG-CC-PVTZ-JKFIT
	 Reference Energy          =    -512.8859564298359146 [Eh]
	 Singles Energy            =      -0.0000000000000000 [Eh]
	 Same-Spin Energy          =      -0.5113582839897014 [Eh]
	 Opposite-Spin Energy      =      -1.6149237651571144 [Eh]
	 Correlation Energy        =      -2.1262820491468157 [Eh]
	 Total Energy              =    -515.0122384789826810 [Eh]

	 ================> DF-SCS-MP2 Energies <==================
	-----------------------------------------------------------
	 SCS Same-Spin Scale       =       0.3333333333333333 [-]
	 SCS Opposite-Spin Scale   =       1.2000000000000000 [-]
	 SCS Same-Spin Energy      =      -0.1704527613299004 [Eh]
	 SCS Opposite-Spin Energy  =      -1.9379085181885372 [Eh]
	 SCS Correlation Energy    =      -2.1083612795184377 [Eh]
	 SCS Total Energy          =    -514.9943177093543909 [Eh]
	-----------------------------------------------------------

  Dipole Moment: [D]
     X:    -0.1438      Y:     3.3827      Z:    -1.8894     Total:     3.8772

*** Psi4 exiting successfully. Buy a developer a beer!
