                               Psi4 1.3.2 release

  ==> Input File <==

--------------------------------------------------------------------------
#psi4
#
memory 32 gb

molecule  {
0 1
  O       -1.9705880     1.6613530    -0.1848000
  O        1.6688240    -1.2224340     0.6437850
  O       -3.2913740    -0.0479250     0.4948630
  N        0.2140730     0.2683100    -0.2698780
  C       -0.9510770    -0.4970410     0.1176100
  C       -1.1968270    -1.6816620    -0.8184860
  C        2.5789920     0.8068070    -0.3378900
  C        1.4682490    -0.1481810     0.0706060
  C       -2.2069675     0.2709637     0.2115213
  C        3.9506640     0.3320720     0.1153760
  H       -0.7838570    -0.8897150     1.1288390
  H        0.0750270     1.1966100    -0.6451490
  H       -1.3515420    -1.3283180    -1.8408860
  H       -0.3238960    -2.3346980    -0.7915570
  H       -2.0788080    -2.2361410    -0.4923840
  H        2.5479870     0.9167430    -1.4288930
  H        2.3554820     1.7990610     0.0733550
  H        4.1782080    -0.6474400    -0.3069900
  H        4.7194550     1.0404130    -0.2050590
  H        3.9903360     0.2413970     1.2016820
  H       -2.8462050     2.0977190    -0.1239210
units angstrom
no_reorient  #important for SAPT in psi4, default
symmetry c1  #important for SAPT in psi4, default
}

set PROPERTIES_ORIGIN ["COM"]
properties('MP2/aug-cc-pvtz', properties = ['dipole'])
--------------------------------------------------------------------------

    Molecular point group: c1
  Charge       = 0
  Multiplicity = 1
  Basis Set: AUG-CC-PVTZ
    Blend: AUG-CC-PVTZ
  Basis Set: (AUG-CC-PVTZ AUX)
    Blend: AUG-CC-PVTZ-JKFIT

    Orbital Energies [Eh]
    ---------------------

    Doubly Occupied:

       1A    -20.606745     2A    -20.580029     3A    -20.525431
       4A    -15.593430     5A    -11.405111     6A    -11.357091
       7A    -11.300074     8A    -11.247493     9A    -11.231326
      10A    -11.219751    11A     -1.476578    12A     -1.382021
      13A     -1.365221    14A     -1.247136    15A     -1.081849
      16A     -1.041056    17A     -0.928116    18A     -0.886197
      19A     -0.804614    20A     -0.786687    21A     -0.729543
      22A     -0.710506    23A     -0.681935    24A     -0.665484
      25A     -0.640742    26A     -0.634739    27A     -0.612775
      28A     -0.601561    29A     -0.581964    30A     -0.548689
      31A     -0.547912    32A     -0.525882    33A     -0.522581
      34A     -0.520041    35A     -0.506340    36A     -0.491785
      37A     -0.469089    38A     -0.429669    39A     -0.402108

  @DF-RHF Final Energy:  -512.87624978301324

   => Energetics <=

    Nuclear Repulsion Energy =            548.0940667727012396
    One-Electron Energy =               -1788.1620293404748736
    Two-Electron Energy =                 727.1917127847602842
    Total Energy =                       -512.8762497830132361
  Basis Set: (AUG-CC-PVTZ AUX)
    Blend: AUG-CC-PVTZ-RI
    Molecular point group: c1

    Geometry (in Angstrom), charge = 0, multiplicity = 1:

       Center              X                  Y                   Z               Mass
    ------------   -----------------  -----------------  -----------------  -----------------
         O           -1.969253211158     1.669203577619    -0.187037707355    15.994914619570
         O            1.670158788842    -1.214583422381     0.641547292645    15.994914619570
         O           -3.290039211158    -0.040074422381     0.492625292645    15.994914619570
         N            0.215407788842     0.276160577619    -0.272115707355    14.003074004430
         C           -0.949742211158    -0.489190422381     0.115372292645    12.000000000000
         C           -1.195492211158    -1.673811422381    -0.820723707355    12.000000000000
         C            2.580326788842     0.814657577619    -0.340127707355    12.000000000000
         C            1.469583788842    -0.140330422381     0.068368292645    12.000000000000
         C           -2.205632711158     0.278814277619     0.209283592645    12.000000000000
         C            3.951998788842     0.339922577619     0.113138292645    12.000000000000
         H           -0.782522211158    -0.881864422381     1.126601292645     1.007825032230
         H            0.076361788842     1.204460577619    -0.647386707355     1.007825032230
         H           -1.350207211158    -1.320467422381    -1.843123707355     1.007825032230
         H           -0.322561211158    -2.326847422381    -0.793794707355     1.007825032230
         H           -2.077473211158    -2.228290422381    -0.494621707355     1.007825032230
         H            2.549321788842     0.924593577619    -1.431130707355     1.007825032230
         H            2.356816788842     1.806911577619     0.071117292645     1.007825032230
         H            4.179542788842    -0.639589422381    -0.309227707355     1.007825032230
         H            4.720789788842     1.048263577619    -0.207296707355     1.007825032230
         H            3.991670788842     0.249247577619     1.199444292645     1.007825032230
         H           -2.844870211158     2.105569577619    -0.126158707355     1.007825032230

  Basis Set: AUG-CC-PVTZ
    Blend: AUG-CC-PVTZ
  Basis Set: (AUG-CC-PVTZ AUX)
    Blend: AUG-CC-PVTZ-JKFIT
	 Reference Energy          =    -512.8762497830132361 [Eh]
	 Singles Energy            =      -0.0000000000000000 [Eh]
	 Same-Spin Energy          =      -0.5114137912566555 [Eh]
	 Opposite-Spin Energy      =      -1.6155672376114136 [Eh]
	 Correlation Energy        =      -2.1269810288680691 [Eh]
	 Total Energy              =    -515.0032308118812807 [Eh]

	 ================> DF-SCS-MP2 Energies <==================
	-----------------------------------------------------------
	 SCS Same-Spin Scale       =       0.3333333333333333 [-]
	 SCS Opposite-Spin Scale   =       1.2000000000000000 [-]
	 SCS Same-Spin Energy      =      -0.1704712637522185 [Eh]
	 SCS Opposite-Spin Energy  =      -1.9386806851336962 [Eh]
	 SCS Correlation Energy    =      -2.1091519488859145 [Eh]
	 SCS Total Energy          =    -514.9854017318991737 [Eh]
	-----------------------------------------------------------

  Dipole Moment: [D]
     X:    -0.2154      Y:     2.5952      Z:    -1.6585     Total:     3.0874

*** Psi4 exiting successfully. Buy a developer a beer!
