                               Psi4 1.3.2 release

  ==> Input File <==

--------------------------------------------------------------------------
#psi4
#
memory 32 gb

molecule  {
0 1
  O       -1.9705880     1.6613530    -0.1848000
  O        1.6688240    -1.2224340     0.6437850
  O       -3.3067725    -0.0087183     0.4896315
  N        0.2140730     0.2683100    -0.2698780
  C       -0.9234116    -0.4545464     0.1029786
  C       -1.1968270    -1.6816620    -0.8184860
  C        2.5789920     0.8068070    -0.3378900
  C        1.4682490    -0.1481810     0.0706060
  C       -2.1908320     0.3658730     0.1844680
  C        3.9506640     0.3320720     0.1153760
  H       -0.7838570    -0.8897150     1.1288390
  H        0.0750270     1.1966100    -0.6451490
  H       -1.3515420    -1.3283180    -1.8408860
  H       -0.3238960    -2.3346980    -0.7915570
  H       -2.0788080    -2.2361410    -0.4923840
  H        2.5479870     0.9167430    -1.4288930
  H        2.3554820     1.7990610     0.0733550
  H        4.1782080    -0.6474400    -0.3069900
  H        4.7194550     1.0404130    -0.2050590
  H        3.9903360     0.2413970     1.2016820
  H       -2.8462050     2.0977190    -0.1239210
units angstrom
no_reorient  #important for SAPT in psi4, default
symmetry c1  #important for SAPT in psi4, default
}

set PROPERTIES_ORIGIN ["COM"]
properties('MP2/aug-cc-pvtz', properties = ['dipole'])
--------------------------------------------------------------------------

    Molecular point group: c1
  Charge       = 0
  Multiplicity = 1
  Basis Set: AUG-CC-PVTZ
    Blend: AUG-CC-PVTZ
  Basis Set: (AUG-CC-PVTZ AUX)
    Blend: AUG-CC-PVTZ-JKFIT

    Orbital Energies [Eh]
    ---------------------

    Doubly Occupied:

       1A    -20.631513     2A    -20.563526     3A    -20.527848
       4A    -15.594564     5A    -11.405242     6A    -11.359167
       7A    -11.298247     8A    -11.249331     9A    -11.227875
      10A    -11.221045    11A     -1.477849    12A     -1.384728
      13A     -1.369684    14A     -1.258945    15A     -1.075743
      16A     -1.034048    17A     -0.928808    18A     -0.889020
      19A     -0.815800    20A     -0.798172    21A     -0.735394
      22A     -0.712870    23A     -0.686832    24A     -0.664894
      25A     -0.642830    26A     -0.633428    27A     -0.608413
      28A     -0.603544    29A     -0.583693    30A     -0.547100
      31A     -0.542013    32A     -0.529085    33A     -0.521936
      34A     -0.517521    35A     -0.497927    36A     -0.487252
      37A     -0.467327    38A     -0.431575    39A     -0.398601

  @DF-RHF Final Energy:  -512.88219483889509

   => Energetics <=

    Nuclear Repulsion Energy =            548.4055420386575861
    One-Electron Energy =               -1788.7286950683146642
    Two-Electron Energy =                 727.4409581907619895
    Total Energy =                       -512.8821948388950887
  Basis Set: (AUG-CC-PVTZ AUX)
    Blend: AUG-CC-PVTZ-RI
    Molecular point group: c1

    Geometry (in Angstrom), charge = 0, multiplicity = 1:

       Center              X                  Y                   Z               Mass
    ------------   -----------------  -----------------  -----------------  -----------------
         O           -1.971178527292     1.653515333728    -0.183012904664    15.994914619570
         O            1.668233472708    -1.230271666272     0.645572095336    15.994914619570
         O           -3.307363027292    -0.016555966272     0.491418595336    15.994914619570
         N            0.213482472708     0.260472333728    -0.268090904664    14.003074004430
         C           -0.924002127292    -0.462384066272     0.104765695336    12.000000000000
         C           -1.197417527292    -1.689499666272    -0.816698904664    12.000000000000
         C            2.578401472708     0.798969333728    -0.336102904664    12.000000000000
         C            1.467658472708    -0.156018666272     0.072393095336    12.000000000000
         C           -2.191422527292     0.358035333728     0.186255095336    12.000000000000
         C            3.950073472708     0.324234333728     0.117163095336    12.000000000000
         H           -0.784447527292    -0.897552666272     1.130626095336     1.007825032230
         H            0.074436472708     1.188772333728    -0.643361904664     1.007825032230
         H           -1.352132527292    -1.336155666272    -1.839098904664     1.007825032230
         H           -0.324486527292    -2.342535666272    -0.789769904664     1.007825032230
         H           -2.079398527292    -2.243978666272    -0.490596904664     1.007825032230
         H            2.547396472708     0.908905333728    -1.427105904664     1.007825032230
         H            2.354891472708     1.791223333728     0.075142095336     1.007825032230
         H            4.177617472708    -0.655277666272    -0.305202904664     1.007825032230
         H            4.718864472708     1.032575333728    -0.203271904664     1.007825032230
         H            3.989745472708     0.233559333728     1.203469095336     1.007825032230
         H           -2.846795527292     2.089881333728    -0.122133904664     1.007825032230

  Basis Set: AUG-CC-PVTZ
    Blend: AUG-CC-PVTZ
  Basis Set: (AUG-CC-PVTZ AUX)
    Blend: AUG-CC-PVTZ-JKFIT
	 Reference Energy          =    -512.8821948388950887 [Eh]
	 Singles Energy            =      -0.0000000000000000 [Eh]
	 Same-Spin Energy          =      -0.5117585759272552 [Eh]
	 Opposite-Spin Energy      =      -1.6152400957542232 [Eh]
	 Correlation Energy        =      -2.1269986716814784 [Eh]
	 Total Energy              =    -515.0091935105765515 [Eh]

	 ================> DF-SCS-MP2 Energies <==================
	-----------------------------------------------------------
	 SCS Same-Spin Scale       =       0.3333333333333333 [-]
	 SCS Opposite-Spin Scale   =       1.2000000000000000 [-]
	 SCS Same-Spin Energy      =      -0.1705861919757517 [Eh]
	 SCS Opposite-Spin Energy  =      -1.9382881149050677 [Eh]
	 SCS Correlation Energy    =      -2.1088743068808196 [Eh]
	 SCS Total Energy          =    -514.9910691457758958 [Eh]
	-----------------------------------------------------------

  Dipole Moment: [D]
     X:     0.1526      Y:     3.3210      Z:    -1.8576     Total:     3.8083

*** Psi4 exiting successfully. Buy a developer a beer!
