                               Psi4 1.3.2 release

  ==> Input File <==

--------------------------------------------------------------------------
#psi4
#
memory 32 gb

molecule  {
0 1
  O       -1.9705880     1.6613530    -0.1848000
  O        1.6688240    -1.2224340     0.6437850
  O       -3.2913740    -0.0479250     0.4948630
  N        0.2177481     0.2525030    -0.2892256
  C       -0.9510770    -0.4970410     0.1176100
  C       -1.1753330    -1.6746137    -0.8326675
  C        2.5789920     0.8068070    -0.3378900
  C        1.4682490    -0.1481810     0.0706060
  C       -2.1908320     0.3658730     0.1844680
  C        3.9506640     0.3320720     0.1153760
  H       -0.7838570    -0.8897150     1.1288390
  H        0.0750270     1.1966100    -0.6451490
  H       -1.3515420    -1.3283180    -1.8408860
  H       -0.3238960    -2.3346980    -0.7915570
  H       -2.0788080    -2.2361410    -0.4923840
  H        2.5479870     0.9167430    -1.4288930
  H        2.3554820     1.7990610     0.0733550
  H        4.1782080    -0.6474400    -0.3069900
  H        4.7194550     1.0404130    -0.2050590
  H        3.9903360     0.2413970     1.2016820
  H       -2.8462050     2.0977190    -0.1239210
units angstrom
no_reorient  #important for SAPT in psi4, default
symmetry c1  #important for SAPT in psi4, default
}

set PROPERTIES_ORIGIN ["COM"]
properties('MP2/aug-cc-pvtz', properties = ['dipole'])
--------------------------------------------------------------------------

    Molecular point group: c1
  Charge       = 0
  Multiplicity = 1
  Basis Set: AUG-CC-PVTZ
    Blend: AUG-CC-PVTZ
  Basis Set: (AUG-CC-PVTZ AUX)
    Blend: AUG-CC-PVTZ-JKFIT

    Orbital Energies [Eh]
    ---------------------

    Doubly Occupied:

       1A    -20.637287     2A    -20.565357     3A    -20.523967
       4A    -15.591727     5A    -11.406664     6A    -11.355188
       7A    -11.297225     8A    -11.247177     9A    -11.226391
      10A    -11.219478    11A     -1.479266    12A     -1.380571
      13A     -1.374438    14A     -1.245969    15A     -1.075494
      16A     -1.035351    17A     -0.928199    18A     -0.886176
      19A     -0.816469    20A     -0.791946    21A     -0.731397
      22A     -0.715085    23A     -0.683156    24A     -0.666462
      25A     -0.641609    26A     -0.634284    27A     -0.612277
      28A     -0.601432    29A     -0.579573    30A     -0.548758
      31A     -0.542285    32A     -0.524140    33A     -0.520355
      34A     -0.519906    35A     -0.497717    36A     -0.488893
      37A     -0.469400    38A     -0.427985    39A     -0.399894

  @DF-RHF Final Energy:  -512.88460049379978

   => Energetics <=

    Nuclear Repulsion Energy =            548.1255619832294315
    One-Electron Energy =               -1788.2424284517878732
    Two-Electron Energy =                 727.2322659747585476
    Total Energy =                       -512.8846004937997805
  Basis Set: (AUG-CC-PVTZ AUX)
    Blend: AUG-CC-PVTZ-RI
    Molecular point group: c1

    Geometry (in Angstrom), charge = 0, multiplicity = 1:

       Center              X                  Y                   Z               Mass
    ------------   -----------------  -----------------  -----------------  -----------------
         O           -1.972720524857     1.662295755770    -0.181759407740    15.994914619570
         O            1.666691475143    -1.221491244230     0.646825592260    15.994914619570
         O           -3.293506524857    -0.046982244230     0.497903592260    15.994914619570
         N            0.215615575143     0.253445755770    -0.286185007740    14.003074004430
         C           -0.953209524857    -0.496098244230     0.120650592260    12.000000000000
         C           -1.177465524857    -1.673670944230    -0.829626907740    12.000000000000
         C            2.576859475143     0.807749755770    -0.334849407740    12.000000000000
         C            1.466116475143    -0.147238244230     0.073646592260    12.000000000000
         C           -2.192964524857     0.366815755770     0.187508592260    12.000000000000
         C            3.948531475143     0.333014755770     0.118416592260    12.000000000000
         H           -0.785989524857    -0.888772244230     1.131879592260     1.007825032230
         H            0.072894475143     1.197552755770    -0.642108407740     1.007825032230
         H           -1.353674524857    -1.327375244230    -1.837845407740     1.007825032230
         H           -0.326028524857    -2.333755244230    -0.788516407740     1.007825032230
         H           -2.080940524857    -2.235198244230    -0.489343407740     1.007825032230
         H            2.545854475143     0.917685755770    -1.425852407740     1.007825032230
         H            2.353349475143     1.800003755770     0.076395592260     1.007825032230
         H            4.176075475143    -0.646497244230    -0.303949407740     1.007825032230
         H            4.717322475143     1.041355755770    -0.202018407740     1.007825032230
         H            3.988203475143     0.242339755770     1.204722592260     1.007825032230
         H           -2.848337524857     2.098661755770    -0.120880407740     1.007825032230

  Basis Set: AUG-CC-PVTZ
    Blend: AUG-CC-PVTZ
  Basis Set: (AUG-CC-PVTZ AUX)
    Blend: AUG-CC-PVTZ-JKFIT
	 Reference Energy          =    -512.8846004937997805 [Eh]
	 Singles Energy            =      -0.0000000000000000 [Eh]
	 Same-Spin Energy          =      -0.5114189291604271 [Eh]
	 Opposite-Spin Energy      =      -1.6151779904530215 [Eh]
	 Correlation Energy        =      -2.1265969196134487 [Eh]
	 Total Energy              =    -515.0111974134132424 [Eh]

	 ================> DF-SCS-MP2 Energies <==================
	-----------------------------------------------------------
	 SCS Same-Spin Scale       =       0.3333333333333333 [-]
	 SCS Opposite-Spin Scale   =       1.2000000000000000 [-]
	 SCS Same-Spin Energy      =      -0.1704729763868090 [Eh]
	 SCS Opposite-Spin Energy  =      -1.9382135885436256 [Eh]
	 SCS Correlation Energy    =      -2.1086865649304345 [Eh]
	 SCS Total Energy          =    -514.9932870587301750 [Eh]
	-----------------------------------------------------------

  Dipole Moment: [D]
     X:    -0.1197      Y:     3.4106      Z:    -1.8319     Total:     3.8733

*** Psi4 exiting successfully. Buy a developer a beer!
