                               Psi4 1.3.2 release

  ==> Input File <==

--------------------------------------------------------------------------
#psi4
#
memory 32 gb

molecule  {
0 1
  O       -1.9244824     1.6509356    -0.1907742
  O        1.6688240    -1.2224340     0.6437850
  O       -3.2743112    -0.0862399     0.5013802
  N        0.2140730     0.2683100    -0.2698780
  C       -0.9510770    -0.4970410     0.1176100
  C       -1.1968270    -1.6816620    -0.8184860
  C        2.5789920     0.8068070    -0.3378900
  C        1.4682490    -0.1481810     0.0706060
  C       -2.1908320     0.3658730     0.1844680
  C        3.9506640     0.3320720     0.1153760
  H       -0.7838570    -0.8897150     1.1288390
  H        0.0750270     1.1966100    -0.6451490
  H       -1.3515420    -1.3283180    -1.8408860
  H       -0.3238960    -2.3346980    -0.7915570
  H       -2.0788080    -2.2361410    -0.4923840
  H        2.5479870     0.9167430    -1.4288930
  H        2.3554820     1.7990610     0.0733550
  H        4.1782080    -0.6474400    -0.3069900
  H        4.7194550     1.0404130    -0.2050590
  H        3.9903360     0.2413970     1.2016820
  H       -2.8462050     2.0977190    -0.1239210
units angstrom
no_reorient  #important for SAPT in psi4, default
symmetry c1  #important for SAPT in psi4, default
}

set PROPERTIES_ORIGIN ["COM"]
properties('MP2/aug-cc-pvtz', properties = ['dipole'])
--------------------------------------------------------------------------

    Molecular point group: c1
  Charge       = 0
  Multiplicity = 1
  Basis Set: AUG-CC-PVTZ
    Blend: AUG-CC-PVTZ
  Basis Set: (AUG-CC-PVTZ AUX)
    Blend: AUG-CC-PVTZ-JKFIT

    Orbital Energies [Eh]
    ---------------------

    Doubly Occupied:

       1A    -20.645999     2A    -20.567538     3A    -20.522970
       4A    -15.589173     5A    -11.406455     6A    -11.354206
       7A    -11.292767     8A    -11.246220     9A    -11.224680
      10A    -11.218774    11A     -1.475237    12A     -1.379233
      13A     -1.376924    14A     -1.243609    15A     -1.073428
      16A     -1.033817    17A     -0.924744    18A     -0.883718
      19A     -0.809922    20A     -0.791932    21A     -0.730220
      22A     -0.713731    23A     -0.681364    24A     -0.665754
      25A     -0.640825    26A     -0.634443    27A     -0.609923
      28A     -0.601127    29A     -0.578981    30A     -0.545531
      31A     -0.543685    32A     -0.523083    33A     -0.520364
      34A     -0.518899    35A     -0.499180    36A     -0.488177
      37A     -0.467602    38A     -0.426610    39A     -0.398024

  @DF-RHF Final Energy:  -512.87873016386459

   => Energetics <=

    Nuclear Repulsion Energy =            548.5806296632476915
    One-Electron Energy =               -1789.2209799494030449
    Two-Electron Energy =                 727.7616201222907648
    Total Energy =                       -512.8787301638645886
  Basis Set: (AUG-CC-PVTZ AUX)
    Blend: AUG-CC-PVTZ-RI
    Molecular point group: c1

    Geometry (in Angstrom), charge = 0, multiplicity = 1:

       Center              X                  Y                   Z               Mass
    ------------   -----------------  -----------------  -----------------  -----------------
         O           -1.931446824325     1.656308525615    -0.190834021628    15.994914619570
         O            1.661859575675    -1.217061074385     0.643725178372    15.994914619570
         O           -3.281275624325    -0.080866974385     0.501320378372    15.994914619570
         N            0.207108575675     0.273682925615    -0.269937821628    14.003074004430
         C           -0.958041424325    -0.491668074385     0.117550178372    12.000000000000
         C           -1.203791424325    -1.676289074385    -0.818545821628    12.000000000000
         C            2.572027575675     0.812179925615    -0.337949821628    12.000000000000
         C            1.461284575675    -0.142808074385     0.070546178372    12.000000000000
         C           -2.197796424325     0.371245925615     0.184408178372    12.000000000000
         C            3.943699575675     0.337444925615     0.115316178372    12.000000000000
         H           -0.790821424325    -0.884342074385     1.128779178372     1.007825032230
         H            0.068062575675     1.201982925615    -0.645208821628     1.007825032230
         H           -1.358506424325    -1.322945074385    -1.840945821628     1.007825032230
         H           -0.330860424325    -2.329325074385    -0.791616821628     1.007825032230
         H           -2.085772424325    -2.230768074385    -0.492443821628     1.007825032230
         H            2.541022575675     0.922115925615    -1.428952821628     1.007825032230
         H            2.348517575675     1.804433925615     0.073295178372     1.007825032230
         H            4.171243575675    -0.642067074385    -0.307049821628     1.007825032230
         H            4.712490575675     1.045785925615    -0.205118821628     1.007825032230
         H            3.983371575675     0.246769925615     1.201622178372     1.007825032230
         H           -2.853169424325     2.103091925615    -0.123980821628     1.007825032230

  Basis Set: AUG-CC-PVTZ
    Blend: AUG-CC-PVTZ
  Basis Set: (AUG-CC-PVTZ AUX)
    Blend: AUG-CC-PVTZ-JKFIT
	 Reference Energy          =    -512.8787301638645886 [Eh]
	 Singles Energy            =      -0.0000000000000000 [Eh]
	 Same-Spin Energy          =      -0.5125032708754047 [Eh]
	 Opposite-Spin Energy      =      -1.6173393413903980 [Eh]
	 Correlation Energy        =      -2.1298426122658025 [Eh]
	 Total Energy              =    -515.0085727761303360 [Eh]

	 ================> DF-SCS-MP2 Energies <==================
	-----------------------------------------------------------
	 SCS Same-Spin Scale       =       0.3333333333333333 [-]
	 SCS Opposite-Spin Scale   =       1.2000000000000000 [-]
	 SCS Same-Spin Energy      =      -0.1708344236251349 [Eh]
	 SCS Opposite-Spin Energy  =      -1.9408072096684776 [Eh]
	 SCS Correlation Energy    =      -2.1116416332936128 [Eh]
	 SCS Total Energy          =    -514.9903717971582182 [Eh]
	-----------------------------------------------------------

  Dipole Moment: [D]
     X:    -0.2802      Y:     3.5307      Z:    -1.8564     Total:     3.9988

*** Psi4 exiting successfully. Buy a developer a beer!
