                               Psi4 1.3.2 release

  ==> Input File <==

--------------------------------------------------------------------------
#psi4
#
memory 32 gb

molecule  {
0 1
  O       -1.9705880     1.6613530    -0.1848000
  O        1.6688240    -1.2224340     0.6437850
  O       -3.2913740    -0.0479250     0.4948630
  N        0.2140730     0.2683100    -0.2698780
  C       -0.9510770    -0.4970410     0.1176100
  C       -1.1968270    -1.6816620    -0.8184860
  C        2.5789920     0.8068070    -0.3378900
  C        1.4772331    -0.1560816     0.0763490
  C       -2.1908320     0.3658730     0.1844680
  C        3.9450795     0.3213539     0.1208557
  H       -0.7838570    -0.8897150     1.1288390
  H        0.0750270     1.1966100    -0.6451490
  H       -1.3515420    -1.3283180    -1.8408860
  H       -0.3238960    -2.3346980    -0.7915570
  H       -2.0788080    -2.2361410    -0.4923840
  H        2.5479870     0.9167430    -1.4288930
  H        2.3554820     1.7990610     0.0733550
  H        4.1782080    -0.6474400    -0.3069900
  H        4.7194550     1.0404130    -0.2050590
  H        3.9903360     0.2413970     1.2016820
  H       -2.8462050     2.0977190    -0.1239210
units angstrom
no_reorient  #important for SAPT in psi4, default
symmetry c1  #important for SAPT in psi4, default
}

set PROPERTIES_ORIGIN ["COM"]
properties('MP2/aug-cc-pvtz', properties = ['dipole'])
--------------------------------------------------------------------------

    Molecular point group: c1
  Charge       = 0
  Multiplicity = 1
  Basis Set: AUG-CC-PVTZ
    Blend: AUG-CC-PVTZ
  Basis Set: (AUG-CC-PVTZ AUX)
    Blend: AUG-CC-PVTZ-JKFIT

    Orbital Energies [Eh]
    ---------------------

    Doubly Occupied:

       1A    -20.635778     2A    -20.563788     3A    -20.527524
       4A    -15.588922     5A    -11.404839     6A    -11.356022
       7A    -11.295886     8A    -11.247309     9A    -11.226141
      10A    -11.219917    11A     -1.477815    12A     -1.387385
      13A     -1.373081    14A     -1.243386    15A     -1.074741
      16A     -1.034806    17A     -0.927136    18A     -0.885453
      19A     -0.815777    20A     -0.790058    21A     -0.730071
      22A     -0.714005    23A     -0.683324    24A     -0.665480
      25A     -0.642353    26A     -0.634210    27A     -0.609800
      28A     -0.604893    29A     -0.580838    30A     -0.546332
      31A     -0.544290    32A     -0.523830    33A     -0.521471
      34A     -0.520625    35A     -0.498745    36A     -0.490282
      37A     -0.467948    38A     -0.429178    39A     -0.399441

  @DF-RHF Final Energy:  -512.88625426579506

   => Energetics <=

    Nuclear Repulsion Energy =            548.0944354649057004
    One-Electron Energy =               -1788.1956181408545490
    Two-Electron Energy =                 727.2149284101537887
    Total Energy =                       -512.8862542657950598
  Basis Set: (AUG-CC-PVTZ AUX)
    Blend: AUG-CC-PVTZ-RI
    Molecular point group: c1

    Geometry (in Angstrom), charge = 0, multiplicity = 1:

       Center              X                  Y                   Z               Mass
    ------------   -----------------  -----------------  -----------------  -----------------
         O           -1.970869085626     1.662893088670    -0.185728256041    15.994914619570
         O            1.668542914374    -1.220893911330     0.642856743959    15.994914619570
         O           -3.291655085626    -0.046384911330     0.493934743959    15.994914619570
         N            0.213791914374     0.269850088670    -0.270806256041    14.003074004430
         C           -0.951358085626    -0.495500911330     0.116681743959    12.000000000000
         C           -1.197108085626    -1.680121911330    -0.819414256041    12.000000000000
         C            2.578710914374     0.808347088670    -0.338818256041    12.000000000000
         C            1.476952014374    -0.154541511330     0.075420743959    12.000000000000
         C           -2.191113085626     0.367413088670     0.183539743959    12.000000000000
         C            3.944798414374     0.322893988670     0.119927443959    12.000000000000
         H           -0.784138085626    -0.888174911330     1.127910743959     1.007825032230
         H            0.074745914374     1.198150088670    -0.646077256041     1.007825032230
         H           -1.351823085626    -1.326777911330    -1.841814256041     1.007825032230
         H           -0.324177085626    -2.333157911330    -0.792485256041     1.007825032230
         H           -2.079089085626    -2.234600911330    -0.493312256041     1.007825032230
         H            2.547705914374     0.918283088670    -1.429821256041     1.007825032230
         H            2.355200914374     1.800601088670     0.072426743959     1.007825032230
         H            4.177926914374    -0.645899911330    -0.307918256041     1.007825032230
         H            4.719173914374     1.041953088670    -0.205987256041     1.007825032230
         H            3.990054914374     0.242937088670     1.200753743959     1.007825032230
         H           -2.846486085626     2.099259088670    -0.124849256041     1.007825032230

  Basis Set: AUG-CC-PVTZ
    Blend: AUG-CC-PVTZ
  Basis Set: (AUG-CC-PVTZ AUX)
    Blend: AUG-CC-PVTZ-JKFIT
	 Reference Energy          =    -512.8862542657950598 [Eh]
	 Singles Energy            =      -0.0000000000000000 [Eh]
	 Same-Spin Energy          =      -0.5111377034999872 [Eh]
	 Opposite-Spin Energy      =      -1.6145983650463958 [Eh]
	 Correlation Energy        =      -2.1257360685463831 [Eh]
	 Total Energy              =    -515.0119903343414762 [Eh]

	 ================> DF-SCS-MP2 Energies <==================
	-----------------------------------------------------------
	 SCS Same-Spin Scale       =       0.3333333333333333 [-]
	 SCS Opposite-Spin Scale   =       1.2000000000000000 [-]
	 SCS Same-Spin Energy      =      -0.1703792344999957 [Eh]
	 SCS Opposite-Spin Energy  =      -1.9375180380556749 [Eh]
	 SCS Correlation Energy    =      -2.1078972725556708 [Eh]
	 SCS Total Energy          =    -514.9941515383507067 [Eh]
	-----------------------------------------------------------

  Dipole Moment: [D]
     X:     0.0065      Y:     3.3165      Z:    -1.8190     Total:     3.7826

*** Psi4 exiting successfully. Buy a developer a beer!
