                               Psi4 1.4a3.dev225

  ==> Input File <==

--------------------------------------------------------------------------
#psi4
#
memory 32 gb

molecule  {
0 1
  O       -2.1439760    -1.5096120     0.4578230
  O        1.6019480     1.2946100    -0.5777250
  O       -3.1849820    -0.0999640    -0.9818910
  N        0.1649120    -0.2715720     0.2333030
  C       -1.0051050     0.5087660    -0.1211110
  C       -1.3212480     1.5963590     0.9125160
  C        2.5597860    -0.6480590     0.5035240
  C        1.4183570     0.2162400    -0.0039080
  C       -2.2148830    -0.3933095    -0.2899249
  C        3.7806550    -0.5458820    -0.4040570
  H       -0.8075500     0.9861290    -1.0847450
  H        0.0342290    -1.1271740     0.7572540
  H       -1.5188550     1.1449870     1.8886910
  H       -0.4592110     2.2615650     0.9886780
  H       -2.1947650     2.1753270     0.6002850
  H        2.8115640    -0.2961200     1.5118980
  H        2.2315720    -1.6889350     0.6045970
  H        4.0689510     0.4992230    -0.5227640
  H        4.6219880    -1.1034150     0.0157220
  H        3.5611410    -0.9492480    -1.3958190
  H       -2.9864200    -1.9858630     0.3018850
units angstrom
no_reorient  #important for SAPT in psi4, default
symmetry c1  #important for SAPT in psi4, default
}

set PROPERTIES_ORIGIN ["COM"]
properties('MP2/aug-cc-pvtz', properties = ['dipole'])
--------------------------------------------------------------------------

    Molecular point group: c1
  Charge       = 0
  Multiplicity = 1
  Basis Set: AUG-CC-PVTZ
    Blend: AUG-CC-PVTZ
  Basis Set: (AUG-CC-PVTZ AUX)
    Blend: AUG-CC-PVTZ-JKFIT

    Orbital Energies [Eh]
    ---------------------

    Doubly Occupied:

       1A    -20.640115     2A    -20.561906     3A    -20.522711
       4A    -15.595565     5A    -11.404192     6A    -11.356776
       7A    -11.296157     8A    -11.247739     9A    -11.232715
      10A    -11.221839    11A     -1.483306    12A     -1.379413
      13A     -1.368713    14A     -1.245827    15A     -1.075259
      16A     -1.036553    17A     -0.928776    18A     -0.886545
      19A     -0.825350    20A     -0.795542    21A     -0.728612
      22A     -0.716159    23A     -0.680700    24A     -0.663512
      25A     -0.642965    26A     -0.629462    27A     -0.607152
      28A     -0.601722    29A     -0.593868    30A     -0.551834
      31A     -0.541341    32A     -0.533841    33A     -0.523376
      34A     -0.513896    35A     -0.496136    36A     -0.486060
      37A     -0.467478    38A     -0.427284    39A     -0.399986

  @DF-RHF Final Energy:  -512.88565710162447

   => Energetics <=

    Nuclear Repulsion Energy =            547.7536817843815697
    One-Electron Energy =               -1787.4579074891353230
    Two-Electron Energy =                 726.8185686031292789
    Total Energy =                       -512.8856571016244743
  Basis Set: (AUG-CC-PVTZ AUX)
    Blend: AUG-CC-PVTZ-RI
    Molecular point group: c1

    Geometry (in Angstrom), charge = 0, multiplicity = 1:

       Center              X                  Y                   Z               Mass
    ------------   -----------------  -----------------  -----------------  -----------------
         O           -2.080165202622    -1.508815849383     0.481929959782    15.994914619570
         O            1.665758797378     1.295406150617    -0.553618040218    15.994914619570
         O           -3.121171202622    -0.099167849383    -0.957784040218    15.994914619570
         N            0.228722797378    -0.270775849383     0.257409959782    14.003074004430
         C           -0.941294202622     0.509562150617    -0.097004040218    12.000000000000
         C           -1.257437202622     1.597155150617     0.936622959782    12.000000000000
         C            2.623596797378    -0.647262849383     0.527630959782    12.000000000000
         C            1.482167797378     0.217036150617     0.020198959782    12.000000000000
         C           -2.151072202622    -0.392513349383    -0.265817940218    12.000000000000
         C            3.844465797378    -0.545085849383    -0.379950040218    12.000000000000
         H           -0.743739202622     0.986925150617    -1.060638040218     1.007825032230
         H            0.098039797378    -1.126377849383     0.781360959782     1.007825032230
         H           -1.455044202622     1.145783150617     1.912797959782     1.007825032230
         H           -0.395400202622     2.262361150617     1.012784959782     1.007825032230
         H           -2.130954202622     2.176123150617     0.624391959782     1.007825032230
         H            2.875374797378    -0.295323849383     1.536004959782     1.007825032230
         H            2.295382797378    -1.688138849383     0.628703959782     1.007825032230
         H            4.132761797378     0.500019150617    -0.498657040218     1.007825032230
         H            4.685798797378    -1.102618849383     0.039828959782     1.007825032230
         H            3.624951797378    -0.948451849383    -1.371712040218     1.007825032230
         H           -2.922609202622    -1.985066849383     0.325991959782     1.007825032230

  Basis Set: AUG-CC-PVTZ
    Blend: AUG-CC-PVTZ
  Basis Set: (AUG-CC-PVTZ AUX)
    Blend: AUG-CC-PVTZ-JKFIT
	 Reference Energy          =    -512.8856571016244743 [Eh]
	 Singles Energy            =      -0.0000000000000000 [Eh]
	 Same-Spin Energy          =      -0.5112413188957927 [Eh]
	 Opposite-Spin Energy      =      -1.6151160926327655 [Eh]
	 Correlation Energy        =      -2.1263574115285584 [Eh]
	 Total Energy              =    -515.0120145131530762 [Eh]

	 ================> DF-SCS-MP2 Energies <==================
	-----------------------------------------------------------
	 SCS Same-Spin Scale       =       0.3333333333333333 [-]
	 SCS Opposite-Spin Scale   =       1.2000000000000000 [-]
	 SCS Same-Spin Energy      =      -0.1704137729652642 [Eh]
	 SCS Opposite-Spin Energy  =      -1.9381393111593184 [Eh]
	 SCS Correlation Energy    =      -2.1085530841245825 [Eh]
	 SCS Total Energy          =    -514.9942101857490115 [Eh]
	-----------------------------------------------------------

  Dipole Moment: [D]
     X:    -0.2010      Y:    -3.1656      Z:     2.7351     Total:     4.1883

*** Psi4 exiting successfully. Buy a developer a beer!
