                               Psi4 1.3.2 release

  ==> Input File <==

--------------------------------------------------------------------------
#psi4
#
memory 32 gb

molecule  {
0 1
  O       -1.9705880     1.6613530    -0.1848000
  O        1.6688240    -1.2224340     0.6437850
  O       -3.2913740    -0.0479250     0.4948630
  N        0.2140730     0.2683100    -0.2698780
  C       -0.9435831    -0.5054764     0.1232767
  C       -1.1968270    -1.6816620    -0.8184860
  C        2.5789920     0.8068070    -0.3378900
  C        1.4635587    -0.1576631     0.0760756
  C       -2.1908320     0.3658730     0.1844680
  C        3.9506640     0.3320720     0.1153760
  H       -0.7838570    -0.8897150     1.1288390
  H        0.0750270     1.1966100    -0.6451490
  H       -1.3515420    -1.3283180    -1.8408860
  H       -0.3238960    -2.3346980    -0.7915570
  H       -2.0788080    -2.2361410    -0.4923840
  H        2.5479870     0.9167430    -1.4288930
  H        2.3554820     1.7990610     0.0733550
  H        4.1782080    -0.6474400    -0.3069900
  H        4.7194550     1.0404130    -0.2050590
  H        3.9903360     0.2413970     1.2016820
  H       -2.8462050     2.0977190    -0.1239210
units angstrom
no_reorient  #important for SAPT in psi4, default
symmetry c1  #important for SAPT in psi4, default
}

set PROPERTIES_ORIGIN ["COM"]
properties('MP2/aug-cc-pvtz', properties = ['dipole'])
--------------------------------------------------------------------------

    Molecular point group: c1
  Charge       = 0
  Multiplicity = 1
  Basis Set: AUG-CC-PVTZ
    Blend: AUG-CC-PVTZ
  Basis Set: (AUG-CC-PVTZ AUX)
    Blend: AUG-CC-PVTZ-JKFIT

    Orbital Energies [Eh]
    ---------------------

    Doubly Occupied:

       1A    -20.636555     2A    -20.564426     3A    -20.526020
       4A    -15.590857     5A    -11.405544     6A    -11.354965
       7A    -11.296898     8A    -11.246468     9A    -11.226634
      10A    -11.218973    11A     -1.478252    12A     -1.386613
      13A     -1.373595    14A     -1.247083    15A     -1.073597
      16A     -1.034516    17A     -0.926938    18A     -0.883446
      19A     -0.818044    20A     -0.792780    21A     -0.729865
      22A     -0.714659    23A     -0.682893    24A     -0.665866
      25A     -0.640674    26A     -0.635086    27A     -0.610187
      28A     -0.604940    29A     -0.582432    30A     -0.546962
      31A     -0.544401    32A     -0.524107    33A     -0.522508
      34A     -0.519858    35A     -0.497535    36A     -0.490250
      37A     -0.467584    38A     -0.427293    39A     -0.401251

  @DF-RHF Final Energy:  -512.88675851416224

   => Energetics <=

    Nuclear Repulsion Energy =            548.0508983914996861
    One-Electron Energy =               -1788.0942082614192259
    Two-Electron Energy =                 727.1565513557573013
    Total Energy =                       -512.8867585141622385
  Basis Set: (AUG-CC-PVTZ AUX)
    Blend: AUG-CC-PVTZ-RI
    Molecular point group: c1

    Geometry (in Angstrom), charge = 0, multiplicity = 1:

       Center              X                  Y                   Z               Mass
    ------------   -----------------  -----------------  -----------------  -----------------
         O           -1.970819786612     1.662835087882    -0.185721109339    15.994914619570
         O            1.668592213388    -1.220951912118     0.642863890661    15.994914619570
         O           -3.291605786612    -0.046442912118     0.493941890661    15.994914619570
         N            0.213841213388     0.269792087882    -0.270799109339    14.003074004430
         C           -0.943814886612    -0.503994312118     0.122355590661    12.000000000000
         C           -1.197058786612    -1.680179912118    -0.819407109339    12.000000000000
         C            2.578760213388     0.808289087882    -0.338811109339    12.000000000000
         C            1.463326913388    -0.156181012118     0.075154490661    12.000000000000
         C           -2.191063786612     0.367355087882     0.183546890661    12.000000000000
         C            3.950432213388     0.333554087882     0.114454890661    12.000000000000
         H           -0.784088786612    -0.888232912118     1.127917890661     1.007825032230
         H            0.074795213388     1.198092087882    -0.646070109339     1.007825032230
         H           -1.351773786612    -1.326835912118    -1.841807109339     1.007825032230
         H           -0.324127786612    -2.333215912118    -0.792478109339     1.007825032230
         H           -2.079039786612    -2.234658912118    -0.493305109339     1.007825032230
         H            2.547755213388     0.918225087882    -1.429814109339     1.007825032230
         H            2.355250213388     1.800543087882     0.072433890661     1.007825032230
         H            4.177976213388    -0.645957912118    -0.307911109339     1.007825032230
         H            4.719223213388     1.041895087882    -0.205980109339     1.007825032230
         H            3.990104213388     0.242879087882     1.200760890661     1.007825032230
         H           -2.846436786612     2.099201087882    -0.124842109339     1.007825032230

  Basis Set: AUG-CC-PVTZ
    Blend: AUG-CC-PVTZ
  Basis Set: (AUG-CC-PVTZ AUX)
    Blend: AUG-CC-PVTZ-JKFIT
	 Reference Energy          =    -512.8867585141622385 [Eh]
	 Singles Energy            =      -0.0000000000000000 [Eh]
	 Same-Spin Energy          =      -0.5109852778689761 [Eh]
	 Opposite-Spin Energy      =      -1.6143399097918756 [Eh]
	 Correlation Energy        =      -2.1253251876608514 [Eh]
	 Total Energy              =    -515.0120837018231441 [Eh]

	 ================> DF-SCS-MP2 Energies <==================
	-----------------------------------------------------------
	 SCS Same-Spin Scale       =       0.3333333333333333 [-]
	 SCS Opposite-Spin Scale   =       1.2000000000000000 [-]
	 SCS Same-Spin Energy      =      -0.1703284259563254 [Eh]
	 SCS Opposite-Spin Energy  =      -1.9372078917502507 [Eh]
	 SCS Correlation Energy    =      -2.1075363177065762 [Eh]
	 SCS Total Energy          =    -514.9942948318688423 [Eh]
	-----------------------------------------------------------

  Dipole Moment: [D]
     X:    -0.1125      Y:     3.3218      Z:    -1.8307     Total:     3.7946

*** Psi4 exiting successfully. Buy a developer a beer!
