                               Psi4 1.3.2 release

  ==> Input File <==

--------------------------------------------------------------------------
#psi4
#
memory 32 gb

molecule  {
0 1
  O       -2.0166162     1.6706114    -0.1766986
  O        1.6688240    -1.2224340     0.6437850
  O       -3.2913740    -0.0479250     0.4948630
  N        0.2140730     0.2683100    -0.2698780
  C       -0.9798478    -0.5380491     0.1342176
  C       -1.1968270    -1.6816620    -0.8184860
  C        2.5789920     0.8068070    -0.3378900
  C        1.4682490    -0.1481810     0.0706060
  C       -2.1908320     0.3658730     0.1844680
  C        3.9506640     0.3320720     0.1153760
  H       -0.7838570    -0.8897150     1.1288390
  H        0.0750270     1.1966100    -0.6451490
  H       -1.3515420    -1.3283180    -1.8408860
  H       -0.3238960    -2.3346980    -0.7915570
  H       -2.0788080    -2.2361410    -0.4923840
  H        2.5479870     0.9167430    -1.4288930
  H        2.3554820     1.7990610     0.0733550
  H        4.1782080    -0.6474400    -0.3069900
  H        4.7194550     1.0404130    -0.2050590
  H        3.9903360     0.2413970     1.2016820
  H       -2.8462050     2.0977190    -0.1239210
units angstrom
no_reorient  #important for SAPT in psi4, default
symmetry c1  #important for SAPT in psi4, default
}

set PROPERTIES_ORIGIN ["COM"]
properties('MP2/aug-cc-pvtz', properties = ['dipole'])
--------------------------------------------------------------------------

    Molecular point group: c1
  Charge       = 0
  Multiplicity = 1
  Basis Set: AUG-CC-PVTZ
    Blend: AUG-CC-PVTZ
  Basis Set: (AUG-CC-PVTZ AUX)
    Blend: AUG-CC-PVTZ-JKFIT

    Orbital Energies [Eh]
    ---------------------

    Doubly Occupied:

       1A    -20.631647     2A    -20.562849     3A    -20.523034
       4A    -15.590500     5A    -11.406234     6A    -11.354275
       7A    -11.301375     8A    -11.246178     9A    -11.228214
      10A    -11.218860    11A     -1.484067    12A     -1.378251
      13A     -1.375143    14A     -1.236698    15A     -1.078206
      16A     -1.038613    17A     -0.932150    18A     -0.885254
      19A     -0.827346    20A     -0.788612    21A     -0.729124
      22A     -0.716121    23A     -0.680159    24A     -0.668299
      25A     -0.640640    26A     -0.634615    27A     -0.612570
      28A     -0.602620    29A     -0.580999    30A     -0.551912
      31A     -0.544824    32A     -0.525490    33A     -0.520071
      34A     -0.519178    35A     -0.496494    36A     -0.489551
      37A     -0.468928    38A     -0.426326    39A     -0.401938

  @DF-RHF Final Energy:  -512.88484448136046

   => Energetics <=

    Nuclear Repulsion Energy =            547.2130213249290591
    One-Electron Energy =               -1786.4009971688108180
    Two-Electron Energy =                 726.3031313625212988
    Total Energy =                       -512.8848444813604601
  Basis Set: (AUG-CC-PVTZ AUX)
    Blend: AUG-CC-PVTZ-RI
    Molecular point group: c1

    Geometry (in Angstrom), charge = 0, multiplicity = 1:

       Center              X                  Y                   Z               Mass
    ------------   -----------------  -----------------  -----------------  -----------------
         O           -2.009161490410     1.672982689100    -0.178965484219    15.994914619570
         O            1.676278709590    -1.220062710900     0.641518115781    15.994914619570
         O           -3.283919290410    -0.045553710900     0.492596115781    15.994914619570
         N            0.221527709590     0.270681289100    -0.272144884219    14.003074004430
         C           -0.972393090410    -0.535677810900     0.131950715781    12.000000000000
         C           -1.189372290410    -1.679290710900    -0.820752884219    12.000000000000
         C            2.586446709590     0.809178289100    -0.340156884219    12.000000000000
         C            1.475703709590    -0.145809710900     0.068339115781    12.000000000000
         C           -2.183377290410     0.368244289100     0.182201115781    12.000000000000
         C            3.958118709590     0.334443289100     0.113109115781    12.000000000000
         H           -0.776402290410    -0.887343710900     1.126572115781     1.007825032230
         H            0.082481709590     1.198981289100    -0.647415884219     1.007825032230
         H           -1.344087290410    -1.325946710900    -1.843152884219     1.007825032230
         H           -0.316441290410    -2.332326710900    -0.793823884219     1.007825032230
         H           -2.071353290410    -2.233769710900    -0.494650884219     1.007825032230
         H            2.555441709590     0.919114289100    -1.431159884219     1.007825032230
         H            2.362936709590     1.801432289100     0.071088115781     1.007825032230
         H            4.185662709590    -0.645068710900    -0.309256884219     1.007825032230
         H            4.726909709590     1.042784289100    -0.207325884219     1.007825032230
         H            3.997790709590     0.243768289100     1.199415115781     1.007825032230
         H           -2.838750290410     2.100090289100    -0.126187884219     1.007825032230

  Basis Set: AUG-CC-PVTZ
    Blend: AUG-CC-PVTZ
  Basis Set: (AUG-CC-PVTZ AUX)
    Blend: AUG-CC-PVTZ-JKFIT
	 Reference Energy          =    -512.8848444813604601 [Eh]
	 Singles Energy            =      -0.0000000000000000 [Eh]
	 Same-Spin Energy          =      -0.5101147706117453 [Eh]
	 Opposite-Spin Energy      =      -1.6130174191945186 [Eh]
	 Correlation Energy        =      -2.1231321898062641 [Eh]
	 Total Energy              =    -515.0079766711667162 [Eh]

	 ================> DF-SCS-MP2 Energies <==================
	-----------------------------------------------------------
	 SCS Same-Spin Scale       =       0.3333333333333333 [-]
	 SCS Opposite-Spin Scale   =       1.2000000000000000 [-]
	 SCS Same-Spin Energy      =      -0.1700382568705817 [Eh]
	 SCS Opposite-Spin Energy  =      -1.9356209030334222 [Eh]
	 SCS Correlation Energy    =      -2.1056591599040040 [Eh]
	 SCS Total Energy          =    -514.9905036412644677 [Eh]
	-----------------------------------------------------------

  Dipole Moment: [D]
     X:    -0.1495      Y:     3.2428      Z:    -1.8694     Total:     3.7460

*** Psi4 exiting successfully. Buy a developer a beer!
