                               Psi4 1.4a3.dev225

  ==> Input File <==

--------------------------------------------------------------------------
#psi4
#
memory 32 gb

molecule  {
0 1
  O       -2.1439760    -1.5096120     0.4578230
  O        1.6019480     1.2946100    -0.5777250
  O       -3.1849820    -0.0999640    -0.9818910
  N        0.1649120    -0.2715720     0.2333030
  C       -1.0051050     0.5087660    -0.1211110
  C       -1.3212480     1.5963590     0.9125160
  C        2.5597860    -0.6480590     0.5035240
  C        1.4183570     0.2162400    -0.0039080
  C       -2.2159370    -0.3767160    -0.3010400
  C        3.7806550    -0.5458820    -0.4040570
  H       -0.8075500     0.9861290    -1.0847450
  H        0.0368123    -1.1102609     0.7468968
  H       -1.5188550     1.1449870     1.8886910
  H       -0.4592110     2.2615650     0.9886780
  H       -2.1947650     2.1753270     0.6002850
  H        2.8115640    -0.2961200     1.5118980
  H        2.2315720    -1.6889350     0.6045970
  H        4.0689510     0.4992230    -0.5227640
  H        4.6219880    -1.1034150     0.0157220
  H        3.5611410    -0.9492480    -1.3958190
  H       -2.9864200    -1.9858630     0.3018850
units angstrom
no_reorient  #important for SAPT in psi4, default
symmetry c1  #important for SAPT in psi4, default
}

set PROPERTIES_ORIGIN ["COM"]
properties('MP2/aug-cc-pvtz', properties = ['dipole'])
--------------------------------------------------------------------------

    Molecular point group: c1
  Charge       = 0
  Multiplicity = 1
  Basis Set: AUG-CC-PVTZ
    Blend: AUG-CC-PVTZ
  Basis Set: (AUG-CC-PVTZ AUX)
    Blend: AUG-CC-PVTZ-JKFIT

    Orbital Energies [Eh]
    ---------------------

    Doubly Occupied:

       1A    -20.634314     2A    -20.565126     3A    -20.522996
       4A    -15.594189     5A    -11.403943     6A    -11.357125
       7A    -11.296517     8A    -11.247923     9A    -11.233454
      10A    -11.221983    11A     -1.476403    12A     -1.379933
      13A     -1.372604    14A     -1.248255    15A     -1.076420
      16A     -1.037961    17A     -0.928566    18A     -0.886244
      19A     -0.823404    20A     -0.797102    21A     -0.728698
      22A     -0.714910    23A     -0.680710    24A     -0.661201
      25A     -0.642691    26A     -0.629706    27A     -0.609237
      28A     -0.601791    29A     -0.594251    30A     -0.552559
      31A     -0.542041    32A     -0.534580    33A     -0.523802
      34A     -0.514336    35A     -0.497946    36A     -0.487991
      37A     -0.468926    38A     -0.427752    39A     -0.400964

  @DF-RHF Final Energy:  -512.88681441102244

   => Energetics <=

    Nuclear Repulsion Energy =            547.8618359254332972
    One-Electron Energy =               -1787.6601979819481585
    Two-Electron Energy =                 726.9115476454924192
    Total Energy =                       -512.8868144110224421
  Basis Set: (AUG-CC-PVTZ AUX)
    Blend: AUG-CC-PVTZ-RI
    Molecular point group: c1

    Geometry (in Angstrom), charge = 0, multiplicity = 1:

       Center              X                  Y                   Z               Mass
    ------------   -----------------  -----------------  -----------------  -----------------
         O           -2.080095965591    -1.510305900010     0.482921312824    15.994914619570
         O            1.665828034409     1.293916099990    -0.552626687176    15.994914619570
         O           -3.121101965591    -0.100657900010    -0.956792687176    15.994914619570
         N            0.228792034409    -0.272265900010     0.258401312824    14.003074004430
         C           -0.941224965591     0.508072099990    -0.096012687176    12.000000000000
         C           -1.257367965591     1.595665099990     0.937614312824    12.000000000000
         C            2.623666034409    -0.648752900010     0.528622312824    12.000000000000
         C            1.482237034409     0.215546099990     0.021190312824    12.000000000000
         C           -2.152056965591    -0.377409900010    -0.275941687176    12.000000000000
         C            3.844535034409    -0.546575900010    -0.378958687176    12.000000000000
         H           -0.743669965591     0.985435099990    -1.059646687176     1.007825032230
         H            0.100692334409    -1.110954800010     0.771995112824     1.007825032230
         H           -1.454974965591     1.144293099990     1.913789312824     1.007825032230
         H           -0.395330965591     2.260871099990     1.013776312824     1.007825032230
         H           -2.130884965591     2.174633099990     0.625383312824     1.007825032230
         H            2.875444034409    -0.296813900010     1.536996312824     1.007825032230
         H            2.295452034409    -1.689628900010     0.629695312824     1.007825032230
         H            4.132831034409     0.498529099990    -0.497665687176     1.007825032230
         H            4.685868034409    -1.104108900010     0.040820312824     1.007825032230
         H            3.625021034409    -0.949941900010    -1.370720687176     1.007825032230
         H           -2.922539965591    -1.986556900010     0.326983312824     1.007825032230

  Basis Set: AUG-CC-PVTZ
    Blend: AUG-CC-PVTZ
  Basis Set: (AUG-CC-PVTZ AUX)
    Blend: AUG-CC-PVTZ-JKFIT
	 Reference Energy          =    -512.8868144110224421 [Eh]
	 Singles Energy            =      -0.0000000000000000 [Eh]
	 Same-Spin Energy          =      -0.5109986093357014 [Eh]
	 Opposite-Spin Energy      =      -1.6147387767297063 [Eh]
	 Correlation Energy        =      -2.1257373860654076 [Eh]
	 Total Energy              =    -515.0125517970878946 [Eh]

	 ================> DF-SCS-MP2 Energies <==================
	-----------------------------------------------------------
	 SCS Same-Spin Scale       =       0.3333333333333333 [-]
	 SCS Opposite-Spin Scale   =       1.2000000000000000 [-]
	 SCS Same-Spin Energy      =      -0.1703328697785671 [Eh]
	 SCS Opposite-Spin Energy  =      -1.9376865320756476 [Eh]
	 SCS Correlation Energy    =      -2.1080194018542149 [Eh]
	 SCS Total Energy          =    -514.9948338128766636 [Eh]
	-----------------------------------------------------------

  Dipole Moment: [D]
     X:    -0.2047      Y:    -3.0229      Z:     2.6399     Total:     4.0186

*** Psi4 exiting successfully. Buy a developer a beer!
