                               Psi4 1.3.2 release

  ==> Input File <==

--------------------------------------------------------------------------
#psi4
#
memory 32 gb

molecule  {
0 1
  O       -1.9705880     1.6613530    -0.1848000
  O        1.6688240    -1.2224340     0.6437850
  O       -3.2913740    -0.0479250     0.4948630
  N        0.1699402     0.3297495    -0.2738252
  C       -0.9510770    -0.4970410     0.1176100
  C       -1.1968270    -1.6816620    -0.8184860
  C        2.5789920     0.8068070    -0.3378900
  C        1.4682490    -0.1481810     0.0706060
  C       -2.1463962     0.4277501     0.1629579
  C        3.9506640     0.3320720     0.1153760
  H       -0.7838570    -0.8897150     1.1288390
  H        0.0750270     1.1966100    -0.6451490
  H       -1.3515420    -1.3283180    -1.8408860
  H       -0.3238960    -2.3346980    -0.7915570
  H       -2.0788080    -2.2361410    -0.4923840
  H        2.5479870     0.9167430    -1.4288930
  H        2.3554820     1.7990610     0.0733550
  H        4.1782080    -0.6474400    -0.3069900
  H        4.7194550     1.0404130    -0.2050590
  H        3.9903360     0.2413970     1.2016820
  H       -2.8462050     2.0977190    -0.1239210
units angstrom
no_reorient  #important for SAPT in psi4, default
symmetry c1  #important for SAPT in psi4, default
}

set PROPERTIES_ORIGIN ["COM"]
properties('MP2/aug-cc-pvtz', properties = ['dipole'])
--------------------------------------------------------------------------

    Molecular point group: c1
  Charge       = 0
  Multiplicity = 1
  Basis Set: AUG-CC-PVTZ
    Blend: AUG-CC-PVTZ
  Basis Set: (AUG-CC-PVTZ AUX)
    Blend: AUG-CC-PVTZ-JKFIT

    Orbital Energies [Eh]
    ---------------------

    Doubly Occupied:

       1A    -20.653729     2A    -20.545090     3A    -20.537543
       4A    -15.584983     5A    -11.404572     6A    -11.366005
       7A    -11.296356     8A    -11.249910     9A    -11.225241
      10A    -11.221974    11A     -1.505677    12A     -1.383338
      13A     -1.333035    14A     -1.245947    15A     -1.073678
      16A     -1.033732    17A     -0.934626    18A     -0.890665
      19A     -0.836037    20A     -0.797068    21A     -0.730486
      22A     -0.719644    23A     -0.685410    24A     -0.667942
      25A     -0.643795    26A     -0.637585    27A     -0.612651
      28A     -0.591498    29A     -0.584318    30A     -0.545100
      31A     -0.540283    32A     -0.528103    33A     -0.522297
      34A     -0.519290    35A     -0.494875    36A     -0.468998
      37A     -0.457792    38A     -0.430610    39A     -0.400496

  @DF-RHF Final Energy:  -512.86495146876268

   => Energetics <=

    Nuclear Repulsion Energy =            547.6407832382856213
    One-Electron Energy =               -1787.2107083240352949
    Two-Electron Energy =                 726.7049736169869902
    Total Energy =                       -512.8649514687626834
  Basis Set: (AUG-CC-PVTZ AUX)
    Blend: AUG-CC-PVTZ-RI
    Molecular point group: c1

    Geometry (in Angstrom), charge = 0, multiplicity = 1:

       Center              X                  Y                   Z               Mass
    ------------   -----------------  -----------------  -----------------  -----------------
         O           -1.970003592451     1.650304390422    -0.182639715962    15.994914619570
         O            1.669408407549    -1.233482609578     0.645945284038    15.994914619570
         O           -3.290789592451    -0.058973609578     0.497023284038    15.994914619570
         N            0.170524607549     0.318700890422    -0.271664915962    14.003074004430
         C           -0.950492592451    -0.508089609578     0.119770284038    12.000000000000
         C           -1.196242592451    -1.692710609578    -0.816325715962    12.000000000000
         C            2.579576407549     0.795758390422    -0.335729715962    12.000000000000
         C            1.468833407549    -0.159229609578     0.072766284038    12.000000000000
         C           -2.145811792451     0.416701490422     0.165118184038    12.000000000000
         C            3.951248407549     0.321023390422     0.117536284038    12.000000000000
         H           -0.783272592451    -0.900763609578     1.130999284038     1.007825032230
         H            0.075611407549     1.185561390422    -0.642988715962     1.007825032230
         H           -1.350957592451    -1.339366609578    -1.838725715962     1.007825032230
         H           -0.323311592451    -2.345746609578    -0.789396715962     1.007825032230
         H           -2.078223592451    -2.247189609578    -0.490223715962     1.007825032230
         H            2.548571407549     0.905694390422    -1.426732715962     1.007825032230
         H            2.356066407549     1.788012390422     0.075515284038     1.007825032230
         H            4.178792407549    -0.658488609578    -0.304829715962     1.007825032230
         H            4.720039407549     1.029364390422    -0.202898715962     1.007825032230
         H            3.990920407549     0.230348390422     1.203842284038     1.007825032230
         H           -2.845620592451     2.086670390422    -0.121760715962     1.007825032230

  Basis Set: AUG-CC-PVTZ
    Blend: AUG-CC-PVTZ
  Basis Set: (AUG-CC-PVTZ AUX)
    Blend: AUG-CC-PVTZ-JKFIT
	 Reference Energy          =    -512.8649514687626834 [Eh]
	 Singles Energy            =      -0.0000000000000000 [Eh]
	 Same-Spin Energy          =      -0.5121827461283062 [Eh]
	 Opposite-Spin Energy      =      -1.6167711755427869 [Eh]
	 Correlation Energy        =      -2.1289539216710933 [Eh]
	 Total Energy              =    -514.9939053904337243 [Eh]

	 ================> DF-SCS-MP2 Energies <==================
	-----------------------------------------------------------
	 SCS Same-Spin Scale       =       0.3333333333333333 [-]
	 SCS Opposite-Spin Scale   =       1.2000000000000000 [-]
	 SCS Same-Spin Energy      =      -0.1707275820427687 [Eh]
	 SCS Opposite-Spin Energy  =      -1.9401254106513441 [Eh]
	 SCS Correlation Energy    =      -2.1108529926941131 [Eh]
	 SCS Total Energy          =    -514.9758044614568462 [Eh]
	-----------------------------------------------------------

  Dipole Moment: [D]
     X:     0.5680      Y:     3.6665      Z:    -1.9793     Total:     4.2052

*** Psi4 exiting successfully. Buy a developer a beer!
