                               Psi4 1.3.2 release

  ==> Input File <==

--------------------------------------------------------------------------
#psi4
#
memory 32 gb

molecule  {
0 1
  O       -1.9705880     1.6613530    -0.1848000
  O        1.6688240    -1.2224340     0.6437850
  O       -3.2913740    -0.0479250     0.4948630
  N        0.2140730     0.2683100    -0.2698780
  C       -0.9510770    -0.4970410     0.1176100
  C       -1.1968270    -1.6816620    -0.8184860
  C        2.5789920     0.8068070    -0.3378900
  C        1.4682490    -0.1481810     0.0706060
  C       -2.1908320     0.3658730     0.1844680
  C        3.9506640     0.3320720     0.1153760
  H       -0.7990920    -0.8539395     1.0367086
  H        0.0750270     1.1966100    -0.6451490
  H       -1.3515420    -1.3283180    -1.8408860
  H       -0.3238960    -2.3346980    -0.7915570
  H       -2.0788080    -2.2361410    -0.4923840
  H        2.5479870     0.9167430    -1.4288930
  H        2.3554820     1.7990610     0.0733550
  H        4.1782080    -0.6474400    -0.3069900
  H        4.7194550     1.0404130    -0.2050590
  H        3.9903360     0.2413970     1.2016820
  H       -2.8462050     2.0977190    -0.1239210
units angstrom
no_reorient  #important for SAPT in psi4, default
symmetry c1  #important for SAPT in psi4, default
}

set PROPERTIES_ORIGIN ["COM"]
properties('MP2/aug-cc-pvtz', properties = ['dipole'])
--------------------------------------------------------------------------

    Molecular point group: c1
  Charge       = 0
  Multiplicity = 1
  Basis Set: AUG-CC-PVTZ
    Blend: AUG-CC-PVTZ
  Basis Set: (AUG-CC-PVTZ AUX)
    Blend: AUG-CC-PVTZ-JKFIT

    Orbital Energies [Eh]
    ---------------------

    Doubly Occupied:

       1A    -20.636744     2A    -20.565357     3A    -20.524378
       4A    -15.590869     5A    -11.405806     6A    -11.355829
       7A    -11.286318     8A    -11.247108     9A    -11.226446
      10A    -11.219465    11A     -1.478979    12A     -1.380509
      13A     -1.374356    14A     -1.246941    15A     -1.078340
      16A     -1.037601    17A     -0.928709    18A     -0.885893
      19A     -0.827675    20A     -0.792735    21A     -0.731043
      22A     -0.715203    23A     -0.685410    24A     -0.670075
      25A     -0.641415    26A     -0.637045    27A     -0.613031
      28A     -0.603453    29A     -0.580882    30A     -0.547835
      31A     -0.545257    32A     -0.525458    33A     -0.523919
      34A     -0.519972    35A     -0.498054    36A     -0.490263
      37A     -0.469820    38A     -0.428086    39A     -0.400548

  @DF-RHF Final Energy:  -512.88077364528738

   => Energetics <=

    Nuclear Repulsion Energy =            548.5990727681459020
    One-Electron Energy =               -1789.1260331728810797
    Two-Electron Energy =                 727.6461867594479145
    Total Energy =                       -512.8807736452873769
  Basis Set: (AUG-CC-PVTZ AUX)
    Blend: AUG-CC-PVTZ-RI
    Molecular point group: c1

    Geometry (in Angstrom), charge = 0, multiplicity = 1:

       Center              X                  Y                   Z               Mass
    ------------   -----------------  -----------------  -----------------  -----------------
         O           -1.970482045525     1.661104483989    -0.184159926149    15.994914619570
         O            1.668929954475    -1.222682516011     0.644425073851    15.994914619570
         O           -3.291268045525    -0.048173516011     0.495503073851    15.994914619570
         N            0.214178954475     0.268061483989    -0.269237926149    14.003074004430
         C           -0.950971045525    -0.497289516011     0.118250073851    12.000000000000
         C           -1.196721045525    -1.681910516011    -0.817845926149    12.000000000000
         C            2.579097954475     0.806558483989    -0.337249926149    12.000000000000
         C            1.468354954475    -0.148429516011     0.071246073851    12.000000000000
         C           -2.190726045525     0.365624483989     0.185108073851    12.000000000000
         C            3.950769954475     0.331823483989     0.116016073851    12.000000000000
         H           -0.798986045525    -0.854188016011     1.037348673851     1.007825032230
         H            0.075132954475     1.196361483989    -0.644508926149     1.007825032230
         H           -1.351436045525    -1.328566516011    -1.840245926149     1.007825032230
         H           -0.323790045525    -2.334946516011    -0.790916926149     1.007825032230
         H           -2.078702045525    -2.236389516011    -0.491743926149     1.007825032230
         H            2.548092954475     0.916494483989    -1.428252926149     1.007825032230
         H            2.355587954475     1.798812483989     0.073995073851     1.007825032230
         H            4.178313954475    -0.647688516011    -0.306349926149     1.007825032230
         H            4.719560954475     1.040164483989    -0.204418926149     1.007825032230
         H            3.990441954475     0.241148483989     1.202322073851     1.007825032230
         H           -2.846099045525     2.097470483989    -0.123280926149     1.007825032230

  Basis Set: AUG-CC-PVTZ
    Blend: AUG-CC-PVTZ
  Basis Set: (AUG-CC-PVTZ AUX)
    Blend: AUG-CC-PVTZ-JKFIT
	 Reference Energy          =    -512.8807736452873769 [Eh]
	 Singles Energy            =      -0.0000000000000000 [Eh]
	 Same-Spin Energy          =      -0.5110606575658723 [Eh]
	 Opposite-Spin Energy      =      -1.6142412366565833 [Eh]
	 Correlation Energy        =      -2.1253018942224555 [Eh]
	 Total Energy              =    -515.0060755395098795 [Eh]

	 ================> DF-SCS-MP2 Energies <==================
	-----------------------------------------------------------
	 SCS Same-Spin Scale       =       0.3333333333333333 [-]
	 SCS Opposite-Spin Scale   =       1.2000000000000000 [-]
	 SCS Same-Spin Energy      =      -0.1703535525219574 [Eh]
	 SCS Opposite-Spin Energy  =      -1.9370894839878998 [Eh]
	 SCS Correlation Energy    =      -2.1074430365098573 [Eh]
	 SCS Total Energy          =    -514.9882166817972120 [Eh]
	-----------------------------------------------------------

  Dipole Moment: [D]
     X:    -0.1299      Y:     3.3804      Z:    -1.8596     Total:     3.8603

*** Psi4 exiting successfully. Buy a developer a beer!
