                               Psi4 1.3.2 release

  ==> Input File <==

--------------------------------------------------------------------------
#psi4
#
memory 32 gb

molecule  {
0 1
  O       -1.9820721     1.6638160    -0.1828164
  O        1.6688240    -1.2224340     0.6437850
  O       -3.2913740    -0.0479250     0.4948630
  N        0.2140730     0.2683100    -0.2698780
  C       -0.9581294    -0.5073936     0.1217551
  C       -1.1968270    -1.6816620    -0.8184860
  C        2.5789920     0.8068070    -0.3378900
  C        1.4682490    -0.1481810     0.0706060
  C       -2.1908320     0.3658730     0.1844680
  C        3.9506640     0.3320720     0.1153760
  H       -0.7838570    -0.8897150     1.1288390
  H        0.0750270     1.1966100    -0.6451490
  H       -1.3515420    -1.3283180    -1.8408860
  H       -0.3238960    -2.3346980    -0.7915570
  H       -2.0788080    -2.2361410    -0.4923840
  H        2.5479870     0.9167430    -1.4288930
  H        2.3554820     1.7990610     0.0733550
  H        4.1782080    -0.6474400    -0.3069900
  H        4.7194550     1.0404130    -0.2050590
  H        3.9903360     0.2413970     1.2016820
  H       -2.8462050     2.0977190    -0.1239210
units angstrom
no_reorient  #important for SAPT in psi4, default
symmetry c1  #important for SAPT in psi4, default
}

set PROPERTIES_ORIGIN ["COM"]
properties('MP2/aug-cc-pvtz', properties = ['dipole'])
--------------------------------------------------------------------------

    Molecular point group: c1
  Charge       = 0
  Multiplicity = 1
  Basis Set: AUG-CC-PVTZ
    Blend: AUG-CC-PVTZ
  Basis Set: (AUG-CC-PVTZ AUX)
    Blend: AUG-CC-PVTZ-JKFIT

    Orbital Energies [Eh]
    ---------------------

    Doubly Occupied:

       1A    -20.635437     2A    -20.564142     3A    -20.524216
       4A    -15.591398     5A    -11.405815     6A    -11.355505
       7A    -11.298139     8A    -11.246995     9A    -11.227168
      10A    -11.219401    11A     -1.479921    12A     -1.379969
      13A     -1.374108    14A     -1.243660    15A     -1.076094
      16A     -1.036561    17A     -0.929126    18A     -0.885751
      19A     -0.819333    20A     -0.791593    21A     -0.730401
      22A     -0.715275    23A     -0.682155    24A     -0.666590
      25A     -0.641246    26A     -0.633962    27A     -0.611336
      28A     -0.602771    29A     -0.580817    30A     -0.548400
      31A     -0.544703    32A     -0.523464    33A     -0.522166
      34A     -0.519758    35A     -0.497474    36A     -0.488829
      37A     -0.468662    38A     -0.427764    39A     -0.400761

  @DF-RHF Final Energy:  -512.88682913835078

   => Energetics <=

    Nuclear Repulsion Energy =            547.8220334194336374
    One-Electron Energy =               -1787.6359882847698373
    Two-Electron Energy =                 726.9271257269854232
    Total Energy =                       -512.8868291383507767
  Basis Set: (AUG-CC-PVTZ AUX)
    Blend: AUG-CC-PVTZ-RI
    Molecular point group: c1

    Geometry (in Angstrom), charge = 0, multiplicity = 1:

       Center              X                  Y                   Z               Mass
    ------------   -----------------  -----------------  -----------------  -----------------
         O           -1.980222470085     1.664400791533    -0.183377920951    15.994914619570
         O            1.670673629915    -1.221849208467     0.643223479049    15.994914619570
         O           -3.289524370085    -0.047340208467     0.494301479049    15.994914619570
         N            0.215922629915     0.268894791533    -0.270439520951    14.003074004430
         C           -0.956279770085    -0.506808808467     0.121193579049    12.000000000000
         C           -1.194977370085    -1.681077208467    -0.819047520951    12.000000000000
         C            2.580841629915     0.807391791533    -0.338451520951    12.000000000000
         C            1.470098629915    -0.147596208467     0.070044479049    12.000000000000
         C           -2.188982370085     0.366457791533     0.183906479049    12.000000000000
         C            3.952513629915     0.332656791533     0.114814479049    12.000000000000
         H           -0.782007370085    -0.889130208467     1.128277479049     1.007825032230
         H            0.076876629915     1.197194791533    -0.645710520951     1.007825032230
         H           -1.349692370085    -1.327733208467    -1.841447520951     1.007825032230
         H           -0.322046370085    -2.334113208467    -0.792118520951     1.007825032230
         H           -2.076958370085    -2.235556208467    -0.492945520951     1.007825032230
         H            2.549836629915     0.917327791533    -1.429454520951     1.007825032230
         H            2.357331629915     1.799645791533     0.072793479049     1.007825032230
         H            4.180057629915    -0.646855208467    -0.307551520951     1.007825032230
         H            4.721304629915     1.040997791533    -0.205620520951     1.007825032230
         H            3.992185629915     0.241981791533     1.201120479049     1.007825032230
         H           -2.844355370085     2.098303791533    -0.124482520951     1.007825032230

  Basis Set: AUG-CC-PVTZ
    Blend: AUG-CC-PVTZ
  Basis Set: (AUG-CC-PVTZ AUX)
    Blend: AUG-CC-PVTZ-JKFIT
	 Reference Energy          =    -512.8868291383507767 [Eh]
	 Singles Energy            =      -0.0000000000000000 [Eh]
	 Same-Spin Energy          =      -0.5109843187273790 [Eh]
	 Opposite-Spin Energy      =      -1.6143845457539792 [Eh]
	 Correlation Energy        =      -2.1253688644813584 [Eh]
	 Total Energy              =    -515.0121980028321786 [Eh]

	 ================> DF-SCS-MP2 Energies <==================
	-----------------------------------------------------------
	 SCS Same-Spin Scale       =       0.3333333333333333 [-]
	 SCS Opposite-Spin Scale   =       1.2000000000000000 [-]
	 SCS Same-Spin Energy      =      -0.1703281062424597 [Eh]
	 SCS Opposite-Spin Energy  =      -1.9372614549047749 [Eh]
	 SCS Correlation Energy    =      -2.1075895611472344 [Eh]
	 SCS Total Energy          =    -514.9944186994980555 [Eh]
	-----------------------------------------------------------

  Dipole Moment: [D]
     X:    -0.1072      Y:     3.3379      Z:    -1.8621     Total:     3.8237

*** Psi4 exiting successfully. Buy a developer a beer!
