                               Psi4 1.3.2 release

  ==> Input File <==

--------------------------------------------------------------------------
#psi4
#
memory 32 gb

molecule  {
0 1
  O       -1.9705880     1.6613530    -0.1848000
  O        1.6688240    -1.2224340     0.6437850
  O       -3.2913740    -0.0479250     0.4948630
  N        0.2140730     0.2683100    -0.2698780
  C       -0.9510770    -0.4970410     0.1176100
  C       -1.1646966    -1.5267797    -0.6960969
  C        2.5789920     0.8068070    -0.3378900
  C        1.4682490    -0.1481810     0.0706060
  C       -2.1908320     0.3658730     0.1844680
  C        3.9506640     0.3320720     0.1153760
  H       -0.7838570    -0.8897150     1.1288390
  H        0.0750270     1.1966100    -0.6451490
  H       -1.3515420    -1.3283180    -1.8408860
  H       -0.3238960    -2.3346980    -0.7915570
  H       -2.0788080    -2.2361410    -0.4923840
  H        2.5479870     0.9167430    -1.4288930
  H        2.3554820     1.7990610     0.0733550
  H        4.1782080    -0.6474400    -0.3069900
  H        4.7194550     1.0404130    -0.2050590
  H        3.9903360     0.2413970     1.2016820
  H       -2.8462050     2.0977190    -0.1239210
units angstrom
no_reorient  #important for SAPT in psi4, default
symmetry c1  #important for SAPT in psi4, default
}

set PROPERTIES_ORIGIN ["COM"]
properties('MP2/aug-cc-pvtz', properties = ['dipole'])
--------------------------------------------------------------------------

    Molecular point group: c1
  Charge       = 0
  Multiplicity = 1
  Basis Set: AUG-CC-PVTZ
    Blend: AUG-CC-PVTZ
  Basis Set: (AUG-CC-PVTZ AUX)
    Blend: AUG-CC-PVTZ-JKFIT

    Orbital Energies [Eh]
    ---------------------

    Doubly Occupied:

       1A    -20.638051     2A    -20.566556     3A    -20.524520
       4A    -15.591113     5A    -11.407451     6A    -11.356205
       7A    -11.289274     8A    -11.247291     9A    -11.235345
      10A    -11.219561    11A     -1.480449    12A     -1.381139
      13A     -1.375672    14A     -1.254639    15A     -1.100740
      16A     -1.046620    17A     -0.922185    18A     -0.887136
      19A     -0.811696    20A     -0.793731    21A     -0.737941
      22A     -0.716420    23A     -0.690131    24A     -0.669821
      25A     -0.646576    26A     -0.641748    27A     -0.616221
      28A     -0.612660    29A     -0.598619    30A     -0.548129
      31A     -0.534042    32A     -0.520142    33A     -0.509841
      34A     -0.500275    35A     -0.489318    36A     -0.484669
      37A     -0.456177    38A     -0.425994    39A     -0.406817

  @DF-RHF Final Energy:  -512.83632904650665

   => Energetics <=

    Nuclear Repulsion Energy =            552.1174012154297088
    One-Electron Energy =               -1796.0376293257779707
    Two-Electron Energy =                 731.0838990638416135
    Total Energy =                       -512.8363290465066484
  Basis Set: (AUG-CC-PVTZ AUX)
    Blend: AUG-CC-PVTZ-RI
    Molecular point group: c1

    Geometry (in Angstrom), charge = 0, multiplicity = 1:

       Center              X                  Y                   Z               Mass
    ------------   -----------------  -----------------  -----------------  -----------------
         O           -1.973245595916     1.648541698810    -0.194923547974    15.994914619570
         O            1.666166404084    -1.235245301190     0.633661452026    15.994914619570
         O           -3.294031595916    -0.060736301190     0.484739452026    15.994914619570
         N            0.211415404084     0.255498698810    -0.280001547974    14.003074004430
         C           -0.953734595916    -0.509852301190     0.107486452026    12.000000000000
         C           -1.167354195916    -1.539591001190    -0.706220447974    12.000000000000
         C            2.576334404084     0.793995698810    -0.348013547974    12.000000000000
         C            1.465591404084    -0.160992301190     0.060482452026    12.000000000000
         C           -2.193489595916     0.353061698810     0.174344452026    12.000000000000
         C            3.948006404084     0.319260698810     0.105252452026    12.000000000000
         H           -0.786514595916    -0.902526301190     1.118715452026     1.007825032230
         H            0.072369404084     1.183798698810    -0.655272547974     1.007825032230
         H           -1.354199595916    -1.341129301190    -1.851009547974     1.007825032230
         H           -0.326553595916    -2.347509301190    -0.801680547974     1.007825032230
         H           -2.081465595916    -2.248952301190    -0.502507547974     1.007825032230
         H            2.545329404084     0.903931698810    -1.439016547974     1.007825032230
         H            2.352824404084     1.786249698810     0.063231452026     1.007825032230
         H            4.175550404084    -0.660251301190    -0.317113547974     1.007825032230
         H            4.716797404084     1.027601698810    -0.215182547974     1.007825032230
         H            3.987678404084     0.228585698810     1.191558452026     1.007825032230
         H           -2.848862595916     2.084907698810    -0.134044547974     1.007825032230

  Basis Set: AUG-CC-PVTZ
    Blend: AUG-CC-PVTZ
  Basis Set: (AUG-CC-PVTZ AUX)
    Blend: AUG-CC-PVTZ-JKFIT
	 Reference Energy          =    -512.8363290465066484 [Eh]
	 Singles Energy            =      -0.0000000000000000 [Eh]
	 Same-Spin Energy          =      -0.5143066528646467 [Eh]
	 Opposite-Spin Energy      =      -1.6191304174983061 [Eh]
	 Correlation Energy        =      -2.1334370703629526 [Eh]
	 Total Energy              =    -514.9697661168695504 [Eh]

	 ================> DF-SCS-MP2 Energies <==================
	-----------------------------------------------------------
	 SCS Same-Spin Scale       =       0.3333333333333333 [-]
	 SCS Opposite-Spin Scale   =       1.2000000000000000 [-]
	 SCS Same-Spin Energy      =      -0.1714355509548822 [Eh]
	 SCS Opposite-Spin Energy  =      -1.9429565009979672 [Eh]
	 SCS Correlation Energy    =      -2.1143920519528496 [Eh]
	 SCS Total Energy          =    -514.9507210984595531 [Eh]
	-----------------------------------------------------------

  Dipole Moment: [D]
     X:    -0.1498      Y:     3.3505      Z:    -1.8228     Total:     3.8172

*** Psi4 exiting successfully. Buy a developer a beer!
