                               Psi4 1.3.2 release

  ==> Input File <==

--------------------------------------------------------------------------
#psi4
#
memory 32 gb

molecule  {
0 1
  O       -1.9705880     1.6613530    -0.1848000
  O        1.6688240    -1.2224340     0.6437850
  O       -3.2913740    -0.0479250     0.4948630
  N        0.2140730     0.2683100    -0.2698780
  C       -1.0316050    -0.5499374     0.1443908
  C       -1.1968270    -1.6816620    -0.8184860
  C        2.5789920     0.8068070    -0.3378900
  C        1.4682490    -0.1481810     0.0706060
  C       -2.1908320     0.3658730     0.1844680
  C        3.9506640     0.3320720     0.1153760
  H       -0.7838570    -0.8897150     1.1288390
  H        0.0750270     1.1966100    -0.6451490
  H       -1.3515420    -1.3283180    -1.8408860
  H       -0.3238960    -2.3346980    -0.7915570
  H       -2.0788080    -2.2361410    -0.4923840
  H        2.5479870     0.9167430    -1.4288930
  H        2.3554820     1.7990610     0.0733550
  H        4.1782080    -0.6474400    -0.3069900
  H        4.7194550     1.0404130    -0.2050590
  H        3.9903360     0.2413970     1.2016820
  H       -2.8462050     2.0977190    -0.1239210
units angstrom
no_reorient  #important for SAPT in psi4, default
symmetry c1  #important for SAPT in psi4, default
}

set PROPERTIES_ORIGIN ["COM"]
properties('MP2/aug-cc-pvtz', properties = ['dipole'])
--------------------------------------------------------------------------

    Molecular point group: c1
  Charge       = 0
  Multiplicity = 1
  Basis Set: AUG-CC-PVTZ
    Blend: AUG-CC-PVTZ
  Basis Set: (AUG-CC-PVTZ AUX)
    Blend: AUG-CC-PVTZ-JKFIT

    Orbital Energies [Eh]
    ---------------------

    Doubly Occupied:

       1A    -20.640204     2A    -20.566100     3A    -20.519541
       4A    -15.586060     5A    -11.407309     6A    -11.351122
       7A    -11.301144     8A    -11.244051     9A    -11.229281
      10A    -11.217273    11A     -1.481714    12A     -1.377403
      13A     -1.373897    14A     -1.225451    15A     -1.080045
      16A     -1.039072    17A     -0.933010    18A     -0.882251
      19A     -0.819011    20A     -0.784079    21A     -0.727560
      22A     -0.716634    23A     -0.676305    24A     -0.669472
      25A     -0.639237    26A     -0.632756    27A     -0.616757
      28A     -0.599192    29A     -0.577769    30A     -0.555837
      31A     -0.543660    32A     -0.525960    33A     -0.517359
      34A     -0.512960    35A     -0.497443    36A     -0.489262
      37A     -0.472874    38A     -0.422776    39A     -0.399205

  @DF-RHF Final Energy:  -512.87704499143433

   => Energetics <=

    Nuclear Repulsion Energy =            547.2203459479006824
    One-Electron Energy =               -1786.4927051831175504
    Two-Electron Energy =                 726.3953142437824226
    Total Energy =                       -512.8770449914343317
  Basis Set: (AUG-CC-PVTZ AUX)
    Blend: AUG-CC-PVTZ-RI
    Molecular point group: c1

    Geometry (in Angstrom), charge = 0, multiplicity = 1:

       Center              X                  Y                   Z               Mass
    ------------   -----------------  -----------------  -----------------  -----------------
         O           -1.963926891013     1.665728418934    -0.187015167117    15.994914619570
         O            1.675485108987    -1.218058581066     0.641569832883    15.994914619570
         O           -3.284712891013    -0.043549581066     0.492647832883    15.994914619570
         N            0.220734108987     0.272685418934    -0.272093167117    14.003074004430
         C           -1.024943891013    -0.545561981066     0.142175632883    12.000000000000
         C           -1.190165891013    -1.677286581066    -0.820701167117    12.000000000000
         C            2.585653108987     0.811182418934    -0.340105167117    12.000000000000
         C            1.474910108987    -0.143805581066     0.068390832883    12.000000000000
         C           -2.184170891013     0.370248418934     0.182252832883    12.000000000000
         C            3.957325108987     0.336447418934     0.113160832883    12.000000000000
         H           -0.777195891013    -0.885339581066     1.126623832883     1.007825032230
         H            0.081688108987     1.200985418934    -0.647364167117     1.007825032230
         H           -1.344880891013    -1.323942581066    -1.843101167117     1.007825032230
         H           -0.317234891013    -2.330322581066    -0.793772167117     1.007825032230
         H           -2.072146891013    -2.231765581066    -0.494599167117     1.007825032230
         H            2.554648108987     0.921118418934    -1.431108167117     1.007825032230
         H            2.362143108987     1.803436418934     0.071139832883     1.007825032230
         H            4.184869108987    -0.643064581066    -0.309205167117     1.007825032230
         H            4.726116108987     1.044788418934    -0.207274167117     1.007825032230
         H            3.996997108987     0.245772418934     1.199466832883     1.007825032230
         H           -2.839543891013     2.102094418934    -0.126136167117     1.007825032230

  Basis Set: AUG-CC-PVTZ
    Blend: AUG-CC-PVTZ
  Basis Set: (AUG-CC-PVTZ AUX)
    Blend: AUG-CC-PVTZ-JKFIT
	 Reference Energy          =    -512.8770449914343317 [Eh]
	 Singles Energy            =      -0.0000000000000000 [Eh]
	 Same-Spin Energy          =      -0.5112588082485160 [Eh]
	 Opposite-Spin Energy      =      -1.6155822920660214 [Eh]
	 Correlation Energy        =      -2.1268411003145373 [Eh]
	 Total Energy              =    -515.0038860917488819 [Eh]

	 ================> DF-SCS-MP2 Energies <==================
	-----------------------------------------------------------
	 SCS Same-Spin Scale       =       0.3333333333333333 [-]
	 SCS Opposite-Spin Scale   =       1.2000000000000000 [-]
	 SCS Same-Spin Energy      =      -0.1704196027495053 [Eh]
	 SCS Opposite-Spin Energy  =      -1.9386987504792257 [Eh]
	 SCS Correlation Energy    =      -2.1091183532287312 [Eh]
	 SCS Total Energy          =    -514.9861633446630549 [Eh]
	-----------------------------------------------------------

  Dipole Moment: [D]
     X:    -0.4075      Y:     3.2567      Z:    -1.8572     Total:     3.7711

*** Psi4 exiting successfully. Buy a developer a beer!
