                               Psi4 1.4a3.dev225

  ==> Input File <==

--------------------------------------------------------------------------
#psi4
#
memory 32 gb

molecule  {
0 1
  O       -2.1439760    -1.5096120     0.4578230
  O        1.6019480     1.2946100    -0.5777250
  O       -3.1849820    -0.0999640    -0.9818910
  N        0.1649120    -0.2715720     0.2333030
  C       -0.9889706     0.4980052    -0.1162237
  C       -1.3212480     1.5963590     0.9125160
  C        2.5597860    -0.6480590     0.5035240
  C        1.4183570     0.2162400    -0.0039080
  C       -2.2159370    -0.3767160    -0.3010400
  C        3.7806550    -0.5458820    -0.4040570
  H       -0.8075500     0.9861290    -1.0847450
  H        0.0342290    -1.1271740     0.7572540
  H       -1.5188550     1.1449870     1.8886910
  H       -0.4592110     2.2615650     0.9886780
  H       -2.1947650     2.1753270     0.6002850
  H        2.8115640    -0.2961200     1.5118980
  H        2.2315720    -1.6889350     0.6045970
  H        4.0689510     0.4992230    -0.5227640
  H        4.6219880    -1.1034150     0.0157220
  H        3.5611410    -0.9492480    -1.3958190
  H       -2.9864200    -1.9858630     0.3018850
units angstrom
no_reorient  #important for SAPT in psi4, default
symmetry c1  #important for SAPT in psi4, default
}

set PROPERTIES_ORIGIN ["COM"]
properties('MP2/aug-cc-pvtz', properties = ['dipole'])
--------------------------------------------------------------------------

    Molecular point group: c1
  Charge       = 0
  Multiplicity = 1
  Basis Set: AUG-CC-PVTZ
    Blend: AUG-CC-PVTZ
  Basis Set: (AUG-CC-PVTZ AUX)
    Blend: AUG-CC-PVTZ-JKFIT

    Orbital Energies [Eh]
    ---------------------

    Doubly Occupied:

       1A    -20.633728     2A    -20.564853     3A    -20.523788
       4A    -15.596617     5A    -11.403679     6A    -11.357835
       7A    -11.296047     8A    -11.248356     9A    -11.232960
      10A    -11.222291    11A     -1.475883    12A     -1.380996
      13A     -1.372062    14A     -1.250637    15A     -1.075526
      16A     -1.036304    17A     -0.927879    18A     -0.886480
      19A     -0.821761    20A     -0.796511    21A     -0.729252
      22A     -0.714137    23A     -0.682066    24A     -0.660236
      25A     -0.642283    26A     -0.629906    27A     -0.608473
      28A     -0.601336    29A     -0.594869    30A     -0.550515
      31A     -0.542854    32A     -0.534438    33A     -0.523845
      34A     -0.514138    35A     -0.498051    36A     -0.487357
      37A     -0.468103    38A     -0.428565    39A     -0.399964

  @DF-RHF Final Energy:  -512.88583904300390

   => Energetics <=

    Nuclear Repulsion Energy =            547.9148207197617921
    One-Electron Energy =               -1787.7721604659500372
    Two-Electron Energy =                 726.9715007031843470
    Total Energy =                       -512.8858390430038980
  Basis Set: (AUG-CC-PVTZ AUX)
    Blend: AUG-CC-PVTZ-RI
    Molecular point group: c1

    Geometry (in Angstrom), charge = 0, multiplicity = 1:

       Center              X                  Y                   Z               Mass
    ------------   -----------------  -----------------  -----------------  -----------------
         O           -2.081412600041    -1.509298309724     0.482445101399    15.994914619570
         O            1.664511399959     1.294923690276    -0.553102898601    15.994914619570
         O           -3.122418600041    -0.099650309724    -0.957268898601    15.994914619570
         N            0.227475399959    -0.271258309724     0.257925101399    14.003074004430
         C           -0.926407200041     0.498318890276    -0.091601598601    12.000000000000
         C           -1.258684600041     1.596672690276     0.937138101399    12.000000000000
         C            2.622349399959    -0.647745309724     0.528146101399    12.000000000000
         C            1.480920399959     0.216553690276     0.020714101399    12.000000000000
         C           -2.153373600041    -0.376402309724    -0.276417898601    12.000000000000
         C            3.843218399959    -0.545568309724    -0.379434898601    12.000000000000
         H           -0.744986600041     0.986442690276    -1.060122898601     1.007825032230
         H            0.096792399959    -1.126860309724     0.781876101399     1.007825032230
         H           -1.456291600041     1.145300690276     1.913313101399     1.007825032230
         H           -0.396647600041     2.261878690276     1.013300101399     1.007825032230
         H           -2.132201600041     2.175640690276     0.624907101399     1.007825032230
         H            2.874127399959    -0.295806309724     1.536520101399     1.007825032230
         H            2.294135399959    -1.688621309724     0.629219101399     1.007825032230
         H            4.131514399959     0.499536690276    -0.498141898601     1.007825032230
         H            4.684551399959    -1.103101309724     0.040344101399     1.007825032230
         H            3.623704399959    -0.948934309724    -1.371196898601     1.007825032230
         H           -2.923856600041    -1.985549309724     0.326507101399     1.007825032230

  Basis Set: AUG-CC-PVTZ
    Blend: AUG-CC-PVTZ
  Basis Set: (AUG-CC-PVTZ AUX)
    Blend: AUG-CC-PVTZ-JKFIT
	 Reference Energy          =    -512.8858390430038980 [Eh]
	 Singles Energy            =      -0.0000000000000000 [Eh]
	 Same-Spin Energy          =      -0.5112965206358021 [Eh]
	 Opposite-Spin Energy      =      -1.6151607441748066 [Eh]
	 Correlation Energy        =      -2.1264572648106088 [Eh]
	 Total Energy              =    -515.0122963078144949 [Eh]

	 ================> DF-SCS-MP2 Energies <==================
	-----------------------------------------------------------
	 SCS Same-Spin Scale       =       0.3333333333333333 [-]
	 SCS Opposite-Spin Scale   =       1.2000000000000000 [-]
	 SCS Same-Spin Energy      =      -0.1704321735452674 [Eh]
	 SCS Opposite-Spin Energy  =      -1.9381928930097678 [Eh]
	 SCS Correlation Energy    =      -2.1086250665550352 [Eh]
	 SCS Total Energy          =    -514.9944641095589759 [Eh]
	-----------------------------------------------------------

  Dipole Moment: [D]
     X:    -0.1550      Y:    -3.0615      Z:     2.6441     Total:     4.0483

*** Psi4 exiting successfully. Buy a developer a beer!
