                               Psi4 1.4a3.dev225

  ==> Input File <==

--------------------------------------------------------------------------
#psi4
#
memory 32 gb

molecule  {
0 1
  O       -2.1439760    -1.5096120     0.4578230
  O        1.6019480     1.2946100    -0.5777250
  O       -3.1849820    -0.0999640    -0.9818910
  N        0.1649120    -0.2715720     0.2333030
  C       -1.0051050     0.5087660    -0.1211110
  C       -1.3171245     1.5821732     0.8990341
  C        2.5597860    -0.6480590     0.5035240
  C        1.4183570     0.2162400    -0.0039080
  C       -2.2159370    -0.3767160    -0.3010400
  C        3.7806550    -0.5458820    -0.4040570
  H       -0.8075500     0.9861290    -1.0847450
  H        0.0342290    -1.1271740     0.7572540
  H       -1.5188550     1.1449870     1.8886910
  H       -0.4592110     2.2615650     0.9886780
  H       -2.1947650     2.1753270     0.6002850
  H        2.8115640    -0.2961200     1.5118980
  H        2.2315720    -1.6889350     0.6045970
  H        4.0689510     0.4992230    -0.5227640
  H        4.6219880    -1.1034150     0.0157220
  H        3.5611410    -0.9492480    -1.3958190
  H       -2.9864200    -1.9858630     0.3018850
units angstrom
no_reorient  #important for SAPT in psi4, default
symmetry c1  #important for SAPT in psi4, default
}

set PROPERTIES_ORIGIN ["COM"]
properties('MP2/aug-cc-pvtz', properties = ['dipole'])
--------------------------------------------------------------------------

    Molecular point group: c1
  Charge       = 0
  Multiplicity = 1
  Basis Set: AUG-CC-PVTZ
    Blend: AUG-CC-PVTZ
  Basis Set: (AUG-CC-PVTZ AUX)
    Blend: AUG-CC-PVTZ-JKFIT

    Orbital Energies [Eh]
    ---------------------

    Doubly Occupied:

       1A    -20.634514     2A    -20.565345     3A    -20.522813
       4A    -15.595747     5A    -11.404103     6A    -11.356986
       7A    -11.295903     8A    -11.247776     9A    -11.233803
      10A    -11.221871    11A     -1.476618    12A     -1.379636
      13A     -1.372806    14A     -1.246561    15A     -1.077655
      16A     -1.038686    17A     -0.927500    18A     -0.886045
      19A     -0.821715    20A     -0.794670    21A     -0.728497
      22A     -0.714560    23A     -0.680813    24A     -0.661634
      25A     -0.643039    26A     -0.629698    27A     -0.609397
      28A     -0.601410    29A     -0.594895    30A     -0.552186
      31A     -0.539909    32A     -0.533695    33A     -0.522758
      34A     -0.513676    35A     -0.497606    36A     -0.488354
      37A     -0.468754    38A     -0.427455    39A     -0.401530

  @DF-RHF Final Energy:  -512.88578446549229

   => Energetics <=

    Nuclear Repulsion Energy =            548.1279959074280441
    One-Electron Energy =               -1788.2063176116130307
    Two-Electron Energy =                 727.1925372386925801
    Total Energy =                       -512.8857844654922928
  Basis Set: (AUG-CC-PVTZ AUX)
    Blend: AUG-CC-PVTZ-RI
    Molecular point group: c1

    Geometry (in Angstrom), charge = 0, multiplicity = 1:

       Center              X                  Y                   Z               Mass
    ------------   -----------------  -----------------  -----------------  -----------------
         O           -2.080419100819    -1.509015005822     0.483964536737    15.994914619570
         O            1.665504899181     1.295206994178    -0.551583463263    15.994914619570
         O           -3.121425100819    -0.099367005822    -0.955749463263    15.994914619570
         N            0.228468899181    -0.270975005822     0.259444536737    14.003074004430
         C           -0.941548100819     0.509362994178    -0.094969463263    12.000000000000
         C           -1.253567600819     1.582770194178     0.925175636737    12.000000000000
         C            2.623342899181    -0.647462005822     0.529665536737    12.000000000000
         C            1.481913899181     0.216836994178     0.022233536737    12.000000000000
         C           -2.152380100819    -0.376119005822    -0.274898463263    12.000000000000
         C            3.844211899181    -0.545285005822    -0.377915463263    12.000000000000
         H           -0.743993100819     0.986725994178    -1.058603463263     1.007825032230
         H            0.097785899181    -1.126577005822     0.783395536737     1.007825032230
         H           -1.455298100819     1.145583994178     1.914832536737     1.007825032230
         H           -0.395654100819     2.262161994178     1.014819536737     1.007825032230
         H           -2.131208100819     2.175923994178     0.626426536737     1.007825032230
         H            2.875120899181    -0.295523005822     1.538039536737     1.007825032230
         H            2.295128899181    -1.688338005822     0.630738536737     1.007825032230
         H            4.132507899181     0.499819994178    -0.496622463263     1.007825032230
         H            4.685544899181    -1.102818005822     0.041863536737     1.007825032230
         H            3.624697899181    -0.948651005822    -1.369677463263     1.007825032230
         H           -2.922863100819    -1.985266005822     0.328026536737     1.007825032230

  Basis Set: AUG-CC-PVTZ
    Blend: AUG-CC-PVTZ
  Basis Set: (AUG-CC-PVTZ AUX)
    Blend: AUG-CC-PVTZ-JKFIT
	 Reference Energy          =    -512.8857844654922928 [Eh]
	 Singles Energy            =      -0.0000000000000000 [Eh]
	 Same-Spin Energy          =      -0.5113110424389218 [Eh]
	 Opposite-Spin Energy      =      -1.6152478011774214 [Eh]
	 Correlation Energy        =      -2.1265588436163432 [Eh]
	 Total Energy              =    -515.0123433091085872 [Eh]

	 ================> DF-SCS-MP2 Energies <==================
	-----------------------------------------------------------
	 SCS Same-Spin Scale       =       0.3333333333333333 [-]
	 SCS Opposite-Spin Scale   =       1.2000000000000000 [-]
	 SCS Same-Spin Energy      =      -0.1704370141463072 [Eh]
	 SCS Opposite-Spin Energy  =      -1.9382973614129055 [Eh]
	 SCS Correlation Energy    =      -2.1087343755592127 [Eh]
	 SCS Total Energy          =    -514.9945188410515584 [Eh]
	-----------------------------------------------------------

  Dipole Moment: [D]
     X:    -0.2218      Y:    -3.0379      Z:     2.6465     Total:     4.0351

*** Psi4 exiting successfully. Buy a developer a beer!
