                               Psi4 1.3.2 release

  ==> Input File <==

--------------------------------------------------------------------------
#psi4
#
memory 32 gb

molecule  {
0 1
  O       -1.9705880     1.6613530    -0.1848000
  O        1.6688240    -1.2224340     0.6437850
  O       -3.2913740    -0.0479250     0.4948630
  N        0.2140730     0.2683100    -0.2698780
  C       -0.9510770    -0.4970410     0.1176100
  C       -1.1968270    -1.6816620    -0.8184860
  C        2.5789920     0.8068070    -0.3378900
  C        1.4592256    -0.1691714     0.0773343
  C       -2.1908320     0.3658730     0.1844680
  C        3.9506640     0.3320720     0.1153760
  H       -0.7838570    -0.8897150     1.1288390
  H        0.0577332     1.1933471    -0.6463980
  H       -1.3515420    -1.3283180    -1.8408860
  H       -0.3238960    -2.3346980    -0.7915570
  H       -2.0788080    -2.2361410    -0.4923840
  H        2.5479870     0.9167430    -1.4288930
  H        2.3554820     1.7990610     0.0733550
  H        4.1782080    -0.6474400    -0.3069900
  H        4.7194550     1.0404130    -0.2050590
  H        3.9903360     0.2413970     1.2016820
  H       -2.8462050     2.0977190    -0.1239210
units angstrom
no_reorient  #important for SAPT in psi4, default
symmetry c1  #important for SAPT in psi4, default
}

set PROPERTIES_ORIGIN ["COM"]
properties('MP2/aug-cc-pvtz', properties = ['dipole'])
--------------------------------------------------------------------------

    Molecular point group: c1
  Charge       = 0
  Multiplicity = 1
  Basis Set: AUG-CC-PVTZ
    Blend: AUG-CC-PVTZ
  Basis Set: (AUG-CC-PVTZ AUX)
    Blend: AUG-CC-PVTZ-JKFIT

    Orbital Energies [Eh]
    ---------------------

    Doubly Occupied:

       1A    -20.636883     2A    -20.564598     3A    -20.527602
       4A    -15.590199     5A    -11.405656     6A    -11.354792
       7A    -11.296293     8A    -11.245672     9A    -11.227001
      10A    -11.218367    11A     -1.478872    12A     -1.392724
      13A     -1.373998    14A     -1.248115    15A     -1.072259
      16A     -1.033744    17A     -0.928091    18A     -0.882287
      19A     -0.816980    20A     -0.794410    21A     -0.730230
      22A     -0.714977    23A     -0.682909    24A     -0.666017
      25A     -0.640134    26A     -0.635200    27A     -0.610689
      28A     -0.606291    29A     -0.582341    30A     -0.547292
      31A     -0.545468    32A     -0.523898    33A     -0.522014
      34A     -0.519409    35A     -0.497486    36A     -0.491045
      37A     -0.468796    38A     -0.426519    39A     -0.401633

  @DF-RHF Final Energy:  -512.88677681919557

   => Energetics <=

    Nuclear Repulsion Energy =            548.2279592532846664
    One-Electron Energy =               -1788.4276882083129294
    Two-Electron Energy =                 727.3129521358325746
    Total Energy =                       -512.8867768191955747
  Basis Set: (AUG-CC-PVTZ AUX)
    Blend: AUG-CC-PVTZ-RI
    Molecular point group: c1

    Geometry (in Angstrom), charge = 0, multiplicity = 1:

       Center              X                  Y                   Z               Mass
    ------------   -----------------  -----------------  -----------------  -----------------
         O           -1.969721359314     1.663111934608    -0.185347818374    15.994914619570
         O            1.669690640686    -1.220675065392     0.643237181626    15.994914619570
         O           -3.290507359314    -0.046166065392     0.494315181626    15.994914619570
         N            0.214939640686     0.270068934608    -0.270425818374    14.003074004430
         C           -0.950210359314    -0.495282065392     0.117062181626    12.000000000000
         C           -1.195960359314    -1.679903065392    -0.819033818374    12.000000000000
         C            2.579858640686     0.808565934608    -0.338437818374    12.000000000000
         C            1.460092240686    -0.167412465392     0.076786481626    12.000000000000
         C           -2.189965359314     0.367631934608     0.183920181626    12.000000000000
         C            3.951530640686     0.333830934608     0.114828181626    12.000000000000
         H           -0.782990359314    -0.887956065392     1.128291181626     1.007825032230
         H            0.058599840686     1.195106034608    -0.646945818374     1.007825032230
         H           -1.350675359314    -1.326559065392    -1.841433818374     1.007825032230
         H           -0.323029359314    -2.332939065392    -0.792104818374     1.007825032230
         H           -2.077941359314    -2.234382065392    -0.492931818374     1.007825032230
         H            2.548853640686     0.918501934608    -1.429440818374     1.007825032230
         H            2.356348640686     1.800819934608     0.072807181626     1.007825032230
         H            4.179074640686    -0.645681065392    -0.307537818374     1.007825032230
         H            4.720321640686     1.042171934608    -0.205606818374     1.007825032230
         H            3.991202640686     0.243155934608     1.201134181626     1.007825032230
         H           -2.845338359314     2.099477934608    -0.124468818374     1.007825032230

  Basis Set: AUG-CC-PVTZ
    Blend: AUG-CC-PVTZ
  Basis Set: (AUG-CC-PVTZ AUX)
    Blend: AUG-CC-PVTZ-JKFIT
	 Reference Energy          =    -512.8867768191955747 [Eh]
	 Singles Energy            =      -0.0000000000000000 [Eh]
	 Same-Spin Energy          =      -0.5108757287946381 [Eh]
	 Opposite-Spin Energy      =      -1.6140610151628725 [Eh]
	 Correlation Energy        =      -2.1249367439575106 [Eh]
	 Total Energy              =    -515.0117135631530800 [Eh]

	 ================> DF-SCS-MP2 Energies <==================
	-----------------------------------------------------------
	 SCS Same-Spin Scale       =       0.3333333333333333 [-]
	 SCS Opposite-Spin Scale   =       1.2000000000000000 [-]
	 SCS Same-Spin Energy      =      -0.1702919095982127 [Eh]
	 SCS Opposite-Spin Energy  =      -1.9368732181954469 [Eh]
	 SCS Correlation Energy    =      -2.1071651277936594 [Eh]
	 SCS Total Energy          =    -514.9939419469892528 [Eh]
	-----------------------------------------------------------

  Dipole Moment: [D]
     X:    -0.1371      Y:     3.2712      Z:    -1.8122     Total:     3.7421

*** Psi4 exiting successfully. Buy a developer a beer!
