                               Psi4 1.3.2 release

  ==> Input File <==

--------------------------------------------------------------------------
#psi4
#
memory 32 gb

molecule  {
0 1
  O       -1.9705880     1.6613530    -0.1848000
  O        1.6688240    -1.2224340     0.6437850
  O       -3.2913740    -0.0479250     0.4948630
  N        0.2140730     0.2683100    -0.2698780
  C       -0.9510770    -0.4970410     0.1176100
  C       -1.1968270    -1.6816620    -0.8184860
  C        2.5789920     0.8068070    -0.3378900
  C        1.4682490    -0.1481810     0.0706060
  C       -2.1908320     0.3658730     0.1844680
  C        3.9240827     0.3335786     0.1904029
  H       -0.7838570    -0.8897150     1.1288390
  H        0.0750270     1.1966100    -0.6451490
  H       -1.3515420    -1.3283180    -1.8408860
  H       -0.3238960    -2.3346980    -0.7915570
  H       -2.0788080    -2.2361410    -0.4923840
  H        2.4932865     0.9335784    -1.4241305
  H        2.3554820     1.7990610     0.0733550
  H        4.1782080    -0.6474400    -0.3069900
  H        4.7194550     1.0404130    -0.2050590
  H        3.9903360     0.2413970     1.2016820
  H       -2.8462050     2.0977190    -0.1239210
units angstrom
no_reorient  #important for SAPT in psi4, default
symmetry c1  #important for SAPT in psi4, default
}

set PROPERTIES_ORIGIN ["COM"]
properties('MP2/aug-cc-pvtz', properties = ['dipole'])
--------------------------------------------------------------------------

    Molecular point group: c1
  Charge       = 0
  Multiplicity = 1
  Basis Set: AUG-CC-PVTZ
    Blend: AUG-CC-PVTZ
  Basis Set: (AUG-CC-PVTZ AUX)
    Blend: AUG-CC-PVTZ-JKFIT

    Orbital Energies [Eh]
    ---------------------

    Doubly Occupied:

       1A    -20.636578     2A    -20.564521     3A    -20.524270
       4A    -15.591154     5A    -11.405651     6A    -11.354815
       7A    -11.296970     8A    -11.248155     9A    -11.226732
      10A    -11.221500    11A     -1.478613    12A     -1.380396
      13A     -1.373779    14A     -1.245865    15A     -1.075976
      16A     -1.035774    17A     -0.928320    18A     -0.887649
      19A     -0.816947    20A     -0.792945    21A     -0.731138
      22A     -0.714723    23A     -0.682297    24A     -0.665991
      25A     -0.642288    26A     -0.633532    27A     -0.610309
      28A     -0.604956    29A     -0.579727    30A     -0.548476
      31A     -0.544785    32A     -0.540470    33A     -0.518663
      34A     -0.508681    35A     -0.494623    36A     -0.486589
      37A     -0.468313    38A     -0.427238    39A     -0.400041

  @DF-RHF Final Energy:  -512.87752800105500

   => Energetics <=

    Nuclear Repulsion Energy =            548.3728241607944938
    One-Electron Energy =               -1788.7218039319557192
    Two-Electron Energy =                 727.4714517701063414
    Total Energy =                       -512.8775280010549977
  Basis Set: (AUG-CC-PVTZ AUX)
    Blend: AUG-CC-PVTZ-RI
    Molecular point group: c1

    Geometry (in Angstrom), charge = 0, multiplicity = 1:

       Center              X                  Y                   Z               Mass
    ------------   -----------------  -----------------  -----------------  -----------------
         O           -1.968009168353     1.661111439802    -0.191038999068    15.994914619570
         O            1.671402831647    -1.222675560198     0.637546000932    15.994914619570
         O           -3.288795168353    -0.048166560198     0.488624000932    15.994914619570
         N            0.216651831647     0.268068439802    -0.276116999068    14.003074004430
         C           -0.948498168353    -0.497282560198     0.111371000932    12.000000000000
         C           -1.194248168353    -1.681903560198    -0.824724999068    12.000000000000
         C            2.581570831647     0.806565439802    -0.344128999068    12.000000000000
         C            1.470827831647    -0.148422560198     0.064367000932    12.000000000000
         C           -2.188253168353     0.365631439802     0.178229000932    12.000000000000
         C            3.926661531647     0.333337039802     0.184163900932    12.000000000000
         H           -0.781278168353    -0.889956560198     1.122600000932     1.007825032230
         H            0.077605831647     1.196368439802    -0.651387999068     1.007825032230
         H           -1.348963168353    -1.328559560198    -1.847124999068     1.007825032230
         H           -0.321317168353    -2.334939560198    -0.797795999068     1.007825032230
         H           -2.076229168353    -2.236382560198    -0.498622999068     1.007825032230
         H            2.495865331647     0.933336839802    -1.430369499068     1.007825032230
         H            2.358060831647     1.798819439802     0.067116000932     1.007825032230
         H            4.180786831647    -0.647681560198    -0.313228999068     1.007825032230
         H            4.722033831647     1.040171439802    -0.211297999068     1.007825032230
         H            3.992914831647     0.241155439802     1.195443000932     1.007825032230
         H           -2.843626168353     2.097477439802    -0.130159999068     1.007825032230

  Basis Set: AUG-CC-PVTZ
    Blend: AUG-CC-PVTZ
  Basis Set: (AUG-CC-PVTZ AUX)
    Blend: AUG-CC-PVTZ-JKFIT
	 Reference Energy          =    -512.8775280010549977 [Eh]
	 Singles Energy            =      -0.0000000000000000 [Eh]
	 Same-Spin Energy          =      -0.5115004998421845 [Eh]
	 Opposite-Spin Energy      =      -1.6152831333720836 [Eh]
	 Correlation Energy        =      -2.1267836332142682 [Eh]
	 Total Energy              =    -515.0043116342692429 [Eh]

	 ================> DF-SCS-MP2 Energies <==================
	-----------------------------------------------------------
	 SCS Same-Spin Scale       =       0.3333333333333333 [-]
	 SCS Opposite-Spin Scale   =       1.2000000000000000 [-]
	 SCS Same-Spin Energy      =      -0.1705001666140615 [Eh]
	 SCS Opposite-Spin Energy  =      -1.9383397600465002 [Eh]
	 SCS Correlation Energy    =      -2.1088399266605617 [Eh]
	 SCS Total Energy          =    -514.9863679277156052 [Eh]
	-----------------------------------------------------------

  Dipole Moment: [D]
     X:    -0.1037      Y:     3.3735      Z:    -1.8370     Total:     3.8427

*** Psi4 exiting successfully. Buy a developer a beer!
