                               Psi4 1.3.2 release

  ==> Input File <==

--------------------------------------------------------------------------
#psi4
#
memory 32 gb

molecule  {
0 1
  O       -1.9705880     1.6613530    -0.1848000
  O        1.6688240    -1.2224340     0.6437850
  O       -3.2913740    -0.0479250     0.4948630
  N        0.2140730     0.2683100    -0.2698780
  C       -0.9510770    -0.4970410     0.1176100
  C       -1.1968270    -1.6816620    -0.8184860
  C        2.5789920     0.8068070    -0.3378900
  C        1.4682490    -0.1481810     0.0706060
  C       -2.1677093     0.3612101     0.1811323
  C        3.9506640     0.3320720     0.1153760
  H       -0.7838570    -0.8897150     1.1288390
  H        0.0750270     1.1966100    -0.6451490
  H       -1.3515420    -1.3283180    -1.8408860
  H       -0.3238960    -2.3346980    -0.7915570
  H       -2.0788080    -2.2361410    -0.4923840
  H        2.5479870     0.9167430    -1.4288930
  H        2.3554820     1.7990610     0.0733550
  H        4.1782080    -0.6474400    -0.3069900
  H        4.7194550     1.0404130    -0.2050590
  H        3.9903360     0.2413970     1.2016820
  H       -2.8390703     2.1124106    -0.1290132
units angstrom
no_reorient  #important for SAPT in psi4, default
symmetry c1  #important for SAPT in psi4, default
}

set PROPERTIES_ORIGIN ["COM"]
properties('MP2/aug-cc-pvtz', properties = ['dipole'])
--------------------------------------------------------------------------

    Molecular point group: c1
  Charge       = 0
  Multiplicity = 1
  Basis Set: AUG-CC-PVTZ
    Blend: AUG-CC-PVTZ
  Basis Set: (AUG-CC-PVTZ AUX)
    Blend: AUG-CC-PVTZ-JKFIT

    Orbital Energies [Eh]
    ---------------------

    Doubly Occupied:

       1A    -20.636772     2A    -20.561286     3A    -20.525592
       4A    -15.592773     5A    -11.407838     6A    -11.356834
       7A    -11.298249     8A    -11.247926     9A    -11.228300
      10A    -11.220093    11A     -1.474302    12A     -1.381505
      13A     -1.361906    14A     -1.248142    15A     -1.078278
      16A     -1.038005    17A     -0.932102    18A     -0.887529
      19A     -0.819851    20A     -0.793472    21A     -0.732243
      22A     -0.711287    23A     -0.683639    24A     -0.665816
      25A     -0.641538    26A     -0.631223    27A     -0.608164
      28A     -0.602968    29A     -0.581834    30A     -0.548544
      31A     -0.544397    32A     -0.525080    33A     -0.521776
      34A     -0.520393    35A     -0.495528    36A     -0.484979
      37A     -0.468333    38A     -0.429153    39A     -0.401409

  @DF-RHF Final Energy:  -512.88309383878288

   => Energetics <=

    Nuclear Repulsion Energy =            548.1098893014110445
    One-Electron Energy =               -1788.2078488249010206
    Two-Electron Energy =                 727.2148656847069788
    Total Energy =                       -512.8830938387828837
  Basis Set: (AUG-CC-PVTZ AUX)
    Blend: AUG-CC-PVTZ-RI
    Molecular point group: c1

    Geometry (in Angstrom), charge = 0, multiplicity = 1:

       Center              X                  Y                   Z               Mass
    ------------   -----------------  -----------------  -----------------  -----------------
         O           -1.972550075388     1.661636651979    -0.184488661221    15.994914619570
         O            1.666861924612    -1.222150348021     0.644096338779    15.994914619570
         O           -3.293336075388    -0.047641348021     0.495174338779    15.994914619570
         N            0.212110924612     0.268593651979    -0.269566661221    14.003074004430
         C           -0.953039075388    -0.496757348021     0.117921338779    12.000000000000
         C           -1.198789075388    -1.681378348021    -0.818174661221    12.000000000000
         C            2.577029924612     0.807090651979    -0.337578661221    12.000000000000
         C            1.466286924612    -0.147897348021     0.070917338779    12.000000000000
         C           -2.169671375388     0.361493751979     0.181443638779    12.000000000000
         C            3.948701924612     0.332355651979     0.115687338779    12.000000000000
         H           -0.785819075388    -0.889431348021     1.129150338779     1.007825032230
         H            0.073064924612     1.196893651979    -0.644837661221     1.007825032230
         H           -1.353504075388    -1.328034348021    -1.840574661221     1.007825032230
         H           -0.325858075388    -2.334414348021    -0.791245661221     1.007825032230
         H           -2.080770075388    -2.235857348021    -0.492072661221     1.007825032230
         H            2.546024924612     0.917026651979    -1.428581661221     1.007825032230
         H            2.353519924612     1.799344651979     0.073666338779     1.007825032230
         H            4.176245924612    -0.647156348021    -0.306678661221     1.007825032230
         H            4.717492924612     1.040696651979    -0.204747661221     1.007825032230
         H            3.988373924612     0.241680651979     1.201993338779     1.007825032230
         H           -2.841032375388     2.112694251979    -0.128701861221     1.007825032230

  Basis Set: AUG-CC-PVTZ
    Blend: AUG-CC-PVTZ
  Basis Set: (AUG-CC-PVTZ AUX)
    Blend: AUG-CC-PVTZ-JKFIT
	 Reference Energy          =    -512.8830938387828837 [Eh]
	 Singles Energy            =      -0.0000000000000000 [Eh]
	 Same-Spin Energy          =      -0.5118260861493846 [Eh]
	 Opposite-Spin Energy      =      -1.6159010284988251 [Eh]
	 Correlation Energy        =      -2.1277271146482097 [Eh]
	 Total Energy              =    -515.0108209534311072 [Eh]

	 ================> DF-SCS-MP2 Energies <==================
	-----------------------------------------------------------
	 SCS Same-Spin Scale       =       0.3333333333333333 [-]
	 SCS Opposite-Spin Scale   =       1.2000000000000000 [-]
	 SCS Same-Spin Energy      =      -0.1706086953831282 [Eh]
	 SCS Opposite-Spin Energy  =      -1.9390812341985901 [Eh]
	 SCS Correlation Energy    =      -2.1096899295817182 [Eh]
	 SCS Total Energy          =    -514.9927837683645748 [Eh]
	-----------------------------------------------------------

  Dipole Moment: [D]
     X:     0.0554      Y:     3.3720      Z:    -1.8976     Total:     3.8696

*** Psi4 exiting successfully. Buy a developer a beer!
