                               Psi4 1.3.2 release

  ==> Input File <==

--------------------------------------------------------------------------
#psi4
#
memory 32 gb

molecule  {
0 1
  O       -1.9705880     1.6613530    -0.1848000
  O        1.6688240    -1.2224340     0.6437850
  O       -3.2913740    -0.0479250     0.4948630
  N        0.2140730     0.2683100    -0.2698780
  C       -0.9048027    -0.5467569     0.1511527
  C       -1.1968270    -1.6816620    -0.8184860
  C        2.5789920     0.8068070    -0.3378900
  C        1.4386874    -0.2045725     0.1030203
  C       -2.1908320     0.3658730     0.1844680
  C        3.9506640     0.3320720     0.1153760
  H       -0.7838570    -0.8897150     1.1288390
  H        0.0750270     1.1966100    -0.6451490
  H       -1.3515420    -1.3283180    -1.8408860
  H       -0.3238960    -2.3346980    -0.7915570
  H       -2.0788080    -2.2361410    -0.4923840
  H        2.5479870     0.9167430    -1.4288930
  H        2.3554820     1.7990610     0.0733550
  H        4.1782080    -0.6474400    -0.3069900
  H        4.7194550     1.0404130    -0.2050590
  H        3.9903360     0.2413970     1.2016820
  H       -2.8462050     2.0977190    -0.1239210
units angstrom
no_reorient  #important for SAPT in psi4, default
symmetry c1  #important for SAPT in psi4, default
}

set PROPERTIES_ORIGIN ["COM"]
properties('MP2/aug-cc-pvtz', properties = ['dipole'])
--------------------------------------------------------------------------

    Molecular point group: c1
  Charge       = 0
  Multiplicity = 1
  Basis Set: AUG-CC-PVTZ
    Blend: AUG-CC-PVTZ
  Basis Set: (AUG-CC-PVTZ AUX)
    Blend: AUG-CC-PVTZ-JKFIT

    Orbital Energies [Eh]
    ---------------------

    Doubly Occupied:

       1A    -20.635942     2A    -20.563241     3A    -20.533424
       4A    -15.587902     5A    -11.403975     6A    -11.350945
       7A    -11.296398     8A    -11.241571     9A    -11.226344
      10A    -11.215870    11A     -1.476034    12A     -1.419650
      13A     -1.371906    14A     -1.251615    15A     -1.065003
      16A     -1.028642    17A     -0.920309    18A     -0.871584
      19A     -0.824893    20A     -0.793343    21A     -0.724438
      22A     -0.713901    23A     -0.686304    24A     -0.665868
      25A     -0.640697    26A     -0.637958    27A     -0.616811
      28A     -0.606579    29A     -0.588571    30A     -0.548346
      31A     -0.543533    32A     -0.531289    33A     -0.526021
      34A     -0.517072    35A     -0.495830    36A     -0.494715
      37A     -0.462718    38A     -0.418199    39A     -0.405836

  @DF-RHF Final Energy:  -512.87748341012582

   => Energetics <=

    Nuclear Repulsion Energy =            548.1906706527755659
    One-Electron Energy =               -1788.3297535573426558
    Two-Electron Energy =                 727.2615994944413842
    Total Energy =                       -512.8774834101258193
  Basis Set: (AUG-CC-PVTZ AUX)
    Blend: AUG-CC-PVTZ-RI
    Molecular point group: c1

    Geometry (in Angstrom), charge = 0, multiplicity = 1:

       Center              X                  Y                   Z               Mass
    ------------   -----------------  -----------------  -----------------  -----------------
         O           -1.971970298232     1.670129844896    -0.190255683998    15.994914619570
         O            1.667441701768    -1.213657155104     0.638329316002    15.994914619570
         O           -3.292756298232    -0.039148155104     0.489407316002    15.994914619570
         N            0.212690701768     0.277086844896    -0.275333683998    14.003074004430
         C           -0.906184998232    -0.537980055104     0.145697016002    12.000000000000
         C           -1.198209298232    -1.672885155104    -0.823941683998    12.000000000000
         C            2.577609701768     0.815583844896    -0.343345683998    12.000000000000
         C            1.437305101768    -0.195795655104     0.097564616002    12.000000000000
         C           -2.192214298232     0.374649844896     0.179012316002    12.000000000000
         C            3.949281701768     0.340848844896     0.109920316002    12.000000000000
         H           -0.785239298232    -0.880938155104     1.123383316002     1.007825032230
         H            0.073644701768     1.205386844896    -0.650604683998     1.007825032230
         H           -1.352924298232    -1.319541155104    -1.846341683998     1.007825032230
         H           -0.325278298232    -2.325921155104    -0.797012683998     1.007825032230
         H           -2.080190298232    -2.227364155104    -0.497839683998     1.007825032230
         H            2.546604701768     0.925519844896    -1.434348683998     1.007825032230
         H            2.354099701768     1.807837844896     0.067899316002     1.007825032230
         H            4.176825701768    -0.638663155104    -0.312445683998     1.007825032230
         H            4.718072701768     1.049189844896    -0.210514683998     1.007825032230
         H            3.988953701768     0.250173844896     1.196226316002     1.007825032230
         H           -2.847587298232     2.106495844896    -0.129376683998     1.007825032230

  Basis Set: AUG-CC-PVTZ
    Blend: AUG-CC-PVTZ
  Basis Set: (AUG-CC-PVTZ AUX)
    Blend: AUG-CC-PVTZ-JKFIT
	 Reference Energy          =    -512.8774834101258193 [Eh]
	 Singles Energy            =      -0.0000000000000000 [Eh]
	 Same-Spin Energy          =      -0.5097479213132756 [Eh]
	 Opposite-Spin Energy      =      -1.6122423467908540 [Eh]
	 Correlation Energy        =      -2.1219902681041294 [Eh]
	 Total Energy              =    -514.9994736782299469 [Eh]

	 ================> DF-SCS-MP2 Energies <==================
	-----------------------------------------------------------
	 SCS Same-Spin Scale       =       0.3333333333333333 [-]
	 SCS Opposite-Spin Scale   =       1.2000000000000000 [-]
	 SCS Same-Spin Energy      =      -0.1699159737710919 [Eh]
	 SCS Opposite-Spin Energy  =      -1.9346908161490246 [Eh]
	 SCS Correlation Energy    =      -2.1046067899201164 [Eh]
	 SCS Total Energy          =    -514.9820902000459455 [Eh]
	-----------------------------------------------------------

  Dipole Moment: [D]
     X:    -0.2197      Y:     3.0620      Z:    -1.6805     Total:     3.4998

*** Psi4 exiting successfully. Buy a developer a beer!
