                               Psi4 1.3.2 release

  ==> Input File <==

--------------------------------------------------------------------------
#psi4
#
memory 32 gb

molecule  {
0 1
  O       -1.9705880     1.6613530    -0.1848000
  O        1.6688240    -1.2224340     0.6437850
  O       -3.2913740    -0.0479250     0.4948630
  N        0.2140730     0.2683100    -0.2698780
  C       -0.9032223    -0.5175413     0.1294671
  C       -1.1968270    -1.6816620    -0.8184860
  C        2.5789920     0.8068070    -0.3378900
  C        1.4682490    -0.1481810     0.0706060
  C       -2.1908320     0.3658730     0.1844680
  C        3.9506640     0.3320720     0.1153760
  H       -0.7838570    -0.8897150     1.1288390
  H        0.0750270     1.1966100    -0.6451490
  H       -1.3515420    -1.3283180    -1.8408860
  H       -0.3076831    -2.3108903    -0.7666737
  H       -2.0788080    -2.2361410    -0.4923840
  H        2.5479870     0.9167430    -1.4288930
  H        2.3554820     1.7990610     0.0733550
  H        4.1782080    -0.6474400    -0.3069900
  H        4.7194550     1.0404130    -0.2050590
  H        3.9903360     0.2413970     1.2016820
  H       -2.8462050     2.0977190    -0.1239210
units angstrom
no_reorient  #important for SAPT in psi4, default
symmetry c1  #important for SAPT in psi4, default
}

set PROPERTIES_ORIGIN ["COM"]
properties('MP2/aug-cc-pvtz', properties = ['dipole'])
--------------------------------------------------------------------------

    Molecular point group: c1
  Charge       = 0
  Multiplicity = 1
  Basis Set: AUG-CC-PVTZ
    Blend: AUG-CC-PVTZ
  Basis Set: (AUG-CC-PVTZ AUX)
    Blend: AUG-CC-PVTZ-JKFIT

    Orbital Energies [Eh]
    ---------------------

    Doubly Occupied:

       1A    -20.635348     2A    -20.563539     3A    -20.526099
       4A    -15.592567     5A    -11.404351     6A    -11.356553
       7A    -11.296569     8A    -11.247803     9A    -11.225238
      10A    -11.220063    11A     -1.476307    12A     -1.383049
      13A     -1.371949    14A     -1.251691    15A     -1.074163
      16A     -1.033532    17A     -0.923777    18A     -0.883924
      19A     -0.820416    20A     -0.793974    21A     -0.729491
      22A     -0.713478    23A     -0.685152    24A     -0.664521
      25A     -0.642062    26A     -0.635844    27A     -0.607930
      28A     -0.604992    29A     -0.585947    30A     -0.547168
      31A     -0.537960    32A     -0.526624    33A     -0.524191
      34A     -0.520634    35A     -0.497467    36A     -0.489760
      37A     -0.462361    38A     -0.429228    39A     -0.400660

  @DF-RHF Final Energy:  -512.88329403144644

   => Energetics <=

    Nuclear Repulsion Energy =            548.0778983319409008
    One-Electron Energy =               -1788.1496195551733308
    Two-Electron Energy =                 727.1884271917861042
    Total Energy =                       -512.8832940314464395
  Basis Set: (AUG-CC-PVTZ AUX)
    Blend: AUG-CC-PVTZ-RI
    Molecular point group: c1

    Geometry (in Angstrom), charge = 0, multiplicity = 1:

       Center              X                  Y                   Z               Mass
    ------------   -----------------  -----------------  -----------------  -----------------
         O           -1.974658885116     1.662883336425    -0.185953595087    15.994914619570
         O            1.664753114884    -1.220903663575     0.642631404913    15.994914619570
         O           -3.295444885116    -0.046394663575     0.493709404913    15.994914619570
         N            0.210002114884     0.269840336425    -0.271031595087    14.003074004430
         C           -0.907293185116    -0.516010963575     0.128313504913    12.000000000000
         C           -1.200897885116    -1.680131663575    -0.819639595087    12.000000000000
         C            2.574921114884     0.808337336425    -0.339043595087    12.000000000000
         C            1.464178114884    -0.146650663575     0.069452404913    12.000000000000
         C           -2.194902885116     0.367403336425     0.183314404913    12.000000000000
         C            3.946593114884     0.333602336425     0.114222404913    12.000000000000
         H           -0.787927885116    -0.888184663575     1.127685404913     1.007825032230
         H            0.070956114884     1.198140336425    -0.646302595087     1.007825032230
         H           -1.355612885116    -1.326787663575    -1.842039595087     1.007825032230
         H           -0.311753985116    -2.309359963575    -0.767827295087     1.007825032230
         H           -2.082878885116    -2.234610663575    -0.493537595087     1.007825032230
         H            2.543916114884     0.918273336425    -1.430046595087     1.007825032230
         H            2.351411114884     1.800591336425     0.072201404913     1.007825032230
         H            4.174137114884    -0.645909663575    -0.308143595087     1.007825032230
         H            4.715384114884     1.041943336425    -0.206212595087     1.007825032230
         H            3.986265114884     0.242927336425     1.200528404913     1.007825032230
         H           -2.850275885116     2.099249336425    -0.125074595087     1.007825032230

  Basis Set: AUG-CC-PVTZ
    Blend: AUG-CC-PVTZ
  Basis Set: (AUG-CC-PVTZ AUX)
    Blend: AUG-CC-PVTZ-JKFIT
	 Reference Energy          =    -512.8832940314464395 [Eh]
	 Singles Energy            =      -0.0000000000000000 [Eh]
	 Same-Spin Energy          =      -0.5112964517389620 [Eh]
	 Opposite-Spin Energy      =      -1.6147918851828384 [Eh]
	 Correlation Energy        =      -2.1260883369218004 [Eh]
	 Total Energy              =    -515.0093823683682785 [Eh]

	 ================> DF-SCS-MP2 Energies <==================
	-----------------------------------------------------------
	 SCS Same-Spin Scale       =       0.3333333333333333 [-]
	 SCS Opposite-Spin Scale   =       1.2000000000000000 [-]
	 SCS Same-Spin Energy      =      -0.1704321505796540 [Eh]
	 SCS Opposite-Spin Energy  =      -1.9377502622194060 [Eh]
	 SCS Correlation Energy    =      -2.1081824127990600 [Eh]
	 SCS Total Energy          =    -514.9914764442454498 [Eh]
	-----------------------------------------------------------

  Dipole Moment: [D]
     X:    -0.0242      Y:     3.4067      Z:    -1.8447     Total:     3.8741

*** Psi4 exiting successfully. Buy a developer a beer!
