                               Psi4 1.3.2 release

  ==> Input File <==

--------------------------------------------------------------------------
#psi4
#
memory 32 gb

molecule  {
0 1
  O       -1.9705880     1.6613530    -0.1848000
  O        1.6688240    -1.2224340     0.6437850
  O       -3.2913740    -0.0479250     0.4948630
  N        0.2140730     0.2683100    -0.2698780
  C       -0.9510770    -0.4970410     0.1176100
  C       -1.1968270    -1.6816620    -0.8184860
  C        2.5789920     0.8068070    -0.3378900
  C        1.5233982    -0.1944729     0.1045819
  C       -2.1908320     0.3658730     0.1844680
  C        3.9156055     0.2683340     0.1477217
  H       -0.7838570    -0.8897150     1.1288390
  H        0.0750270     1.1966100    -0.6451490
  H       -1.3515420    -1.3283180    -1.8408860
  H       -0.3238960    -2.3346980    -0.7915570
  H       -2.0788080    -2.2361410    -0.4923840
  H        2.5479870     0.9167430    -1.4288930
  H        2.3554820     1.7990610     0.0733550
  H        4.1782080    -0.6474400    -0.3069900
  H        4.7194550     1.0404130    -0.2050590
  H        3.9903360     0.2413970     1.2016820
  H       -2.8462050     2.0977190    -0.1239210
units angstrom
no_reorient  #important for SAPT in psi4, default
symmetry c1  #important for SAPT in psi4, default
}

set PROPERTIES_ORIGIN ["COM"]
properties('MP2/aug-cc-pvtz', properties = ['dipole'])
--------------------------------------------------------------------------

    Molecular point group: c1
  Charge       = 0
  Multiplicity = 1
  Basis Set: AUG-CC-PVTZ
    Blend: AUG-CC-PVTZ
  Basis Set: (AUG-CC-PVTZ AUX)
    Blend: AUG-CC-PVTZ-JKFIT

    Orbital Energies [Eh]
    ---------------------

    Doubly Occupied:

       1A    -20.631470     2A    -20.559671     3A    -20.541993
       4A    -15.574835     5A    -11.400202     6A    -11.356510
       7A    -11.289413     8A    -11.248644     9A    -11.222810
      10A    -11.222640    11A     -1.473466    12A     -1.427023
      13A     -1.368986    14A     -1.227079    15A     -1.073230
      16A     -1.028871    17A     -0.921615    18A     -0.884035
      19A     -0.810066    20A     -0.778622    21A     -0.727477
      22A     -0.710042    23A     -0.685731    24A     -0.663588
      25A     -0.649818    26A     -0.640234    27A     -0.611717
      28A     -0.604987    29A     -0.582371    30A     -0.549046
      31A     -0.542817    32A     -0.530737    33A     -0.524065
      34A     -0.510781    35A     -0.506522    36A     -0.491003
      37A     -0.466465    38A     -0.428030    39A     -0.392828

  @DF-RHF Final Energy:  -512.87332283770115

   => Energetics <=

    Nuclear Repulsion Energy =            548.4658409630216056
    One-Electron Energy =               -1788.9594495180072045
    Two-Electron Energy =                 727.6202857172845597
    Total Energy =                       -512.8733228377011528
  Basis Set: (AUG-CC-PVTZ AUX)
    Blend: AUG-CC-PVTZ-RI
    Molecular point group: c1

    Geometry (in Angstrom), charge = 0, multiplicity = 1:

       Center              X                  Y                   Z               Mass
    ------------   -----------------  -----------------  -----------------  -----------------
         O           -1.972249714460     1.670454300240    -0.190285842423    15.994914619570
         O            1.667162285540    -1.213332699760     0.638299157577    15.994914619570
         O           -3.293035714460    -0.038823699760     0.489377157577    15.994914619570
         N            0.212411285540     0.277411300240    -0.275363842423    14.003074004430
         C           -0.952738714460    -0.487939699760     0.112124157577    12.000000000000
         C           -1.198488714460    -1.672560699760    -0.823971842423    12.000000000000
         C            2.577330285540     0.815908300240    -0.343375842423    12.000000000000
         C            1.521736485540    -0.185371599760     0.099096057577    12.000000000000
         C           -2.192493714460     0.374974300240     0.178982157577    12.000000000000
         C            3.913943785540     0.277435300240     0.142235857577    12.000000000000
         H           -0.785518714460    -0.880613699760     1.123353157577     1.007825032230
         H            0.073365285540     1.205711300240    -0.650634842423     1.007825032230
         H           -1.353203714460    -1.319216699760    -1.846371842423     1.007825032230
         H           -0.325557714460    -2.325596699760    -0.797042842423     1.007825032230
         H           -2.080469714460    -2.227039699760    -0.497869842423     1.007825032230
         H            2.546325285540     0.925844300240    -1.434378842423     1.007825032230
         H            2.353820285540     1.808162300240     0.067869157577     1.007825032230
         H            4.176546285540    -0.638338699760    -0.312475842423     1.007825032230
         H            4.717793285540     1.049514300240    -0.210544842423     1.007825032230
         H            3.988674285540     0.250498300240     1.196196157577     1.007825032230
         H           -2.847866714460     2.106820300240    -0.129406842423     1.007825032230

  Basis Set: AUG-CC-PVTZ
    Blend: AUG-CC-PVTZ
  Basis Set: (AUG-CC-PVTZ AUX)
    Blend: AUG-CC-PVTZ-JKFIT
	 Reference Energy          =    -512.8733228377011528 [Eh]
	 Singles Energy            =      -0.0000000000000000 [Eh]
	 Same-Spin Energy          =      -0.5104401324239215 [Eh]
	 Opposite-Spin Energy      =      -1.6134485264354121 [Eh]
	 Correlation Energy        =      -2.1238886588593338 [Eh]
	 Total Energy              =    -514.9972114965604533 [Eh]

	 ================> DF-SCS-MP2 Energies <==================
	-----------------------------------------------------------
	 SCS Same-Spin Scale       =       0.3333333333333333 [-]
	 SCS Opposite-Spin Scale   =       1.2000000000000000 [-]
	 SCS Same-Spin Energy      =      -0.1701467108079738 [Eh]
	 SCS Opposite-Spin Energy  =      -1.9361382317224944 [Eh]
	 SCS Correlation Energy    =      -2.1062849425304684 [Eh]
	 SCS Total Energy          =    -514.9796077802316177 [Eh]
	-----------------------------------------------------------

  Dipole Moment: [D]
     X:     0.5212      Y:     3.0515      Z:    -1.6103     Total:     3.4895

*** Psi4 exiting successfully. Buy a developer a beer!
