                               Psi4 1.3.2 release

  ==> Input File <==

--------------------------------------------------------------------------
#psi4
#
memory 32 gb

molecule  {
0 1
  O       -1.9705880     1.6613530    -0.1848000
  O        1.7110902    -1.2141929     0.6428217
  O       -3.2913740    -0.0479250     0.4948630
  N        0.2140730     0.2683100    -0.2698780
  C       -0.9510770    -0.4970410     0.1176100
  C       -1.1968270    -1.6816620    -0.8184860
  C        2.6143774     0.7728902    -0.3175159
  C        1.4682490    -0.1481810     0.0706060
  C       -2.1908320     0.3658730     0.1844680
  C        3.9506640     0.3320720     0.1153760
  H       -0.7838570    -0.8897150     1.1288390
  H        0.0750270     1.1966100    -0.6451490
  H       -1.3515420    -1.3283180    -1.8408860
  H       -0.3238960    -2.3346980    -0.7915570
  H       -2.0788080    -2.2361410    -0.4923840
  H        2.5479870     0.9167430    -1.4288930
  H        2.3554820     1.7990610     0.0733550
  H        4.1782080    -0.6474400    -0.3069900
  H        4.7194550     1.0404130    -0.2050590
  H        3.9903360     0.2413970     1.2016820
  H       -2.8462050     2.0977190    -0.1239210
units angstrom
no_reorient  #important for SAPT in psi4, default
symmetry c1  #important for SAPT in psi4, default
}

set PROPERTIES_ORIGIN ["COM"]
properties('MP2/aug-cc-pvtz', properties = ['dipole'])
--------------------------------------------------------------------------

    Molecular point group: c1
  Charge       = 0
  Multiplicity = 1
  Basis Set: AUG-CC-PVTZ
    Blend: AUG-CC-PVTZ
  Basis Set: (AUG-CC-PVTZ AUX)
    Blend: AUG-CC-PVTZ-JKFIT

    Orbital Energies [Eh]
    ---------------------

    Doubly Occupied:

       1A    -20.637601     2A    -20.565698     3A    -20.523775
       4A    -15.594382     5A    -11.406990     6A    -11.355749
       7A    -11.299171     8A    -11.248224     9A    -11.228132
      10A    -11.216021    11A     -1.479692    12A     -1.379924
      13A     -1.374861    14A     -1.248648    15A     -1.076944
      16A     -1.041089    17A     -0.929662    18A     -0.884783
      19A     -0.818114    20A     -0.792154    21A     -0.730374
      22A     -0.715753    23A     -0.683493    24A     -0.667180
      25A     -0.638262    26A     -0.633917    27A     -0.612038
      28A     -0.603159    29A     -0.582567    30A     -0.552328
      31A     -0.546593    32A     -0.533612    33A     -0.521034
      34A     -0.516490    35A     -0.495602    36A     -0.480271
      37A     -0.469689    38A     -0.425342    39A     -0.401776

  @DF-RHF Final Energy:  -512.88201063892927

   => Energetics <=

    Nuclear Repulsion Energy =            547.9756056502575348
    One-Electron Energy =               -1787.8930505138771423
    Two-Electron Energy =                 727.0354342246902206
    Total Energy =                       -512.8820106389292732
  Basis Set: (AUG-CC-PVTZ AUX)
    Blend: AUG-CC-PVTZ-RI
    Molecular point group: c1

    Geometry (in Angstrom), charge = 0, multiplicity = 1:

       Center              X                  Y                   Z               Mass
    ------------   -----------------  -----------------  -----------------  -----------------
         O           -1.978174837452     1.663249882769    -0.186379020260    15.994914619570
         O            1.703503362548    -1.212296017231     0.641242679740    15.994914619570
         O           -3.298960837452    -0.046028117231     0.493283979740    15.994914619570
         N            0.206486162548     0.270206882769    -0.271457020260    14.003074004430
         C           -0.958663837452    -0.495144117231     0.116030979740    12.000000000000
         C           -1.204413837452    -1.679765117231    -0.820065020260    12.000000000000
         C            2.606790562548     0.774787082769    -0.319094920260    12.000000000000
         C            1.460662162548    -0.146284117231     0.069026979740    12.000000000000
         C           -2.198418837452     0.367769882769     0.182888979740    12.000000000000
         C            3.943077162548     0.333968882769     0.113796979740    12.000000000000
         H           -0.791443837452    -0.887818117231     1.127259979740     1.007825032230
         H            0.067440162548     1.198506882769    -0.646728020260     1.007825032230
         H           -1.359128837452    -1.326421117231    -1.842465020260     1.007825032230
         H           -0.331482837452    -2.332801117231    -0.793136020260     1.007825032230
         H           -2.086394837452    -2.234244117231    -0.493963020260     1.007825032230
         H            2.540400162548     0.918639882769    -1.430472020260     1.007825032230
         H            2.347895162548     1.800957882769     0.071775979740     1.007825032230
         H            4.170621162548    -0.645543117231    -0.308569020260     1.007825032230
         H            4.711868162548     1.042309882769    -0.206638020260     1.007825032230
         H            3.982749162548     0.243293882769     1.200102979740     1.007825032230
         H           -2.853791837452     2.099615882769    -0.125500020260     1.007825032230

  Basis Set: AUG-CC-PVTZ
    Blend: AUG-CC-PVTZ
  Basis Set: (AUG-CC-PVTZ AUX)
    Blend: AUG-CC-PVTZ-JKFIT
	 Reference Energy          =    -512.8820106389292732 [Eh]
	 Singles Energy            =      -0.0000000000000000 [Eh]
	 Same-Spin Energy          =      -0.5116195091978888 [Eh]
	 Opposite-Spin Energy      =      -1.6152278513640983 [Eh]
	 Correlation Energy        =      -2.1268473605619871 [Eh]
	 Total Energy              =    -515.0088579994912834 [Eh]

	 ================> DF-SCS-MP2 Energies <==================
	-----------------------------------------------------------
	 SCS Same-Spin Scale       =       0.3333333333333333 [-]
	 SCS Opposite-Spin Scale   =       1.2000000000000000 [-]
	 SCS Same-Spin Energy      =      -0.1705398363992963 [Eh]
	 SCS Opposite-Spin Energy  =      -1.9382734216369180 [Eh]
	 SCS Correlation Energy    =      -2.1088132580362142 [Eh]
	 SCS Total Energy          =    -514.9908238969654803 [Eh]
	-----------------------------------------------------------

  Dipole Moment: [D]
     X:    -0.2145      Y:     3.3245      Z:    -1.8498     Total:     3.8105

*** Psi4 exiting successfully. Buy a developer a beer!
