                               Psi4 1.3.2 release

  ==> Input File <==

--------------------------------------------------------------------------
#psi4
#
memory 32 gb

molecule  {
0 1
  O       -1.9705880     1.6613530    -0.1848000
  O        1.6688240    -1.2224340     0.6437850
  O       -3.2913740    -0.0479250     0.4948630
  N        0.2140730     0.2683100    -0.2698780
  C       -0.9510770    -0.4970410     0.1176100
  C       -1.2092130    -1.6772281    -0.8207502
  C        2.5789920     0.8068070    -0.3378900
  C        1.4682490    -0.1481810     0.0706060
  C       -2.1969128     0.3576843     0.1760976
  C        3.9506640     0.3320720     0.1153760
  H       -0.7838570    -0.8897150     1.1288390
  H        0.0750270     1.1966100    -0.6451490
  H       -1.3515420    -1.3283180    -1.8408860
  H       -0.3238960    -2.3346980    -0.7915570
  H       -2.0788080    -2.2361410    -0.4923840
  H        2.5479870     0.9167430    -1.4288930
  H        2.3554820     1.7990610     0.0733550
  H        4.1782080    -0.6474400    -0.3069900
  H        4.7194550     1.0404130    -0.2050590
  H        3.9903360     0.2413970     1.2016820
  H       -2.8462050     2.0977190    -0.1239210
units angstrom
no_reorient  #important for SAPT in psi4, default
symmetry c1  #important for SAPT in psi4, default
}

set PROPERTIES_ORIGIN ["COM"]
properties('MP2/aug-cc-pvtz', properties = ['dipole'])
--------------------------------------------------------------------------

    Molecular point group: c1
  Charge       = 0
  Multiplicity = 1
  Basis Set: AUG-CC-PVTZ
    Blend: AUG-CC-PVTZ
  Basis Set: (AUG-CC-PVTZ AUX)
    Blend: AUG-CC-PVTZ-JKFIT

    Orbital Energies [Eh]
    ---------------------

    Doubly Occupied:

       1A    -20.634520     2A    -20.565786     3A    -20.524577
       4A    -15.591763     5A    -11.405088     6A    -11.355931
       7A    -11.297242     8A    -11.247229     9A    -11.226838
      10A    -11.219539    11A     -1.477277    12A     -1.380619
      13A     -1.375967    14A     -1.245955    15A     -1.075711
      16A     -1.036130    17A     -0.927251    18A     -0.885549
      19A     -0.815707    20A     -0.792192    21A     -0.730843
      22A     -0.714466    23A     -0.682729    24A     -0.665857
      25A     -0.641240    26A     -0.634214    27A     -0.611089
      28A     -0.603153    29A     -0.581357    30A     -0.548331
      31A     -0.542450    32A     -0.525073    33A     -0.521236
      34A     -0.519803    35A     -0.498775    36A     -0.489295
      37A     -0.468628    38A     -0.428187    39A     -0.400176

  @DF-RHF Final Energy:  -512.88610801442599

   => Energetics <=

    Nuclear Repulsion Energy =            548.0272929307866434
    One-Electron Energy =               -1788.0512556137421143
    Two-Electron Energy =                 727.1378546685294850
    Total Energy =                       -512.8861080144259859
  Basis Set: (AUG-CC-PVTZ AUX)
    Blend: AUG-CC-PVTZ-RI
    Molecular point group: c1

    Geometry (in Angstrom), charge = 0, multiplicity = 1:

       Center              X                  Y                   Z               Mass
    ------------   -----------------  -----------------  -----------------  -----------------
         O           -1.969060374257     1.661663599366    -0.183920297392    15.994914619570
         O            1.670351625743    -1.222123400634     0.644664702608    15.994914619570
         O           -3.289846374257    -0.047614400634     0.495742702608    15.994914619570
         N            0.215600625743     0.268620599366    -0.268998297392    14.003074004430
         C           -0.949549374257    -0.496730400634     0.118489702608    12.000000000000
         C           -1.207685374257    -1.676917500634    -0.819870497392    12.000000000000
         C            2.580519625743     0.807117599366    -0.337010297392    12.000000000000
         C            1.469776625743    -0.147870400634     0.071485702608    12.000000000000
         C           -2.195385174257     0.357994899366     0.176977302608    12.000000000000
         C            3.952191625743     0.332382599366     0.116255702608    12.000000000000
         H           -0.782329374257    -0.889404400634     1.129718702608     1.007825032230
         H            0.076554625743     1.196920599366    -0.644269297392     1.007825032230
         H           -1.350014374257    -1.328007400634    -1.840006297392     1.007825032230
         H           -0.322368374257    -2.334387400634    -0.790677297392     1.007825032230
         H           -2.077280374257    -2.235830400634    -0.491504297392     1.007825032230
         H            2.549514625743     0.917053599366    -1.428013297392     1.007825032230
         H            2.357009625743     1.799371599366     0.074234702608     1.007825032230
         H            4.179735625743    -0.647129400634    -0.306110297392     1.007825032230
         H            4.720982625743     1.040723599366    -0.204179297392     1.007825032230
         H            3.991863625743     0.241707599366     1.202561702608     1.007825032230
         H           -2.844677374257     2.098029599366    -0.123041297392     1.007825032230

  Basis Set: AUG-CC-PVTZ
    Blend: AUG-CC-PVTZ
  Basis Set: (AUG-CC-PVTZ AUX)
    Blend: AUG-CC-PVTZ-JKFIT
	 Reference Energy          =    -512.8861080144259859 [Eh]
	 Singles Energy            =      -0.0000000000000000 [Eh]
	 Same-Spin Energy          =      -0.5112620272045728 [Eh]
	 Opposite-Spin Energy      =      -1.6148250399673734 [Eh]
	 Correlation Energy        =      -2.1260870671719463 [Eh]
	 Total Energy              =    -515.0121950815979517 [Eh]

	 ================> DF-SCS-MP2 Energies <==================
	-----------------------------------------------------------
	 SCS Same-Spin Scale       =       0.3333333333333333 [-]
	 SCS Opposite-Spin Scale   =       1.2000000000000000 [-]
	 SCS Same-Spin Energy      =      -0.1704206757348576 [Eh]
	 SCS Opposite-Spin Energy  =      -1.9377900479608479 [Eh]
	 SCS Correlation Energy    =      -2.1082107236957053 [Eh]
	 SCS Total Energy          =    -514.9943187381217058 [Eh]
	-----------------------------------------------------------

  Dipole Moment: [D]
     X:    -0.1176      Y:     3.3189      Z:    -1.8550     Total:     3.8040

*** Psi4 exiting successfully. Buy a developer a beer!
