                               Psi4 1.3.2 release

  ==> Input File <==

--------------------------------------------------------------------------
#psi4
#
memory 32 gb

molecule  {
0 1
  O       -1.9705880     1.6613530    -0.1848000
  O        1.6688240    -1.2224340     0.6437850
  O       -3.2913740    -0.0479250     0.4948630
  N        0.2140730     0.2683100    -0.2698780
  C       -0.9510770    -0.4970410     0.1176100
  C       -1.1953799    -1.6900275    -0.8081843
  C        2.5789920     0.8068070    -0.3378900
  C        1.4682490    -0.1481810     0.0706060
  C       -2.1908320     0.3658730     0.1844680
  C        3.9506640     0.3320720     0.1153760
  H       -0.7850047    -0.8986274     1.1255226
  H        0.0750270     1.1966100    -0.6451490
  H       -1.3515420    -1.3283180    -1.8408860
  H       -0.3238960    -2.3346980    -0.7915570
  H       -2.0788080    -2.2361410    -0.4923840
  H        2.5479870     0.9167430    -1.4288930
  H        2.3554820     1.7990610     0.0733550
  H        4.1782080    -0.6474400    -0.3069900
  H        4.7194550     1.0404130    -0.2050590
  H        3.9903360     0.2413970     1.2016820
  H       -2.8462050     2.0977190    -0.1239210
units angstrom
no_reorient  #important for SAPT in psi4, default
symmetry c1  #important for SAPT in psi4, default
}

set PROPERTIES_ORIGIN ["COM"]
properties('MP2/aug-cc-pvtz', properties = ['dipole'])
--------------------------------------------------------------------------

    Molecular point group: c1
  Charge       = 0
  Multiplicity = 1
  Basis Set: AUG-CC-PVTZ
    Blend: AUG-CC-PVTZ
  Basis Set: (AUG-CC-PVTZ AUX)
    Blend: AUG-CC-PVTZ-JKFIT

    Orbital Energies [Eh]
    ---------------------

    Doubly Occupied:

       1A    -20.636717     2A    -20.564683     3A    -20.524723
       4A    -15.591871     5A    -11.405952     6A    -11.356012
       7A    -11.297120     8A    -11.247324     9A    -11.226888
      10A    -11.219621    11A     -1.478748    12A     -1.380663
      13A     -1.373924    14A     -1.246113    15A     -1.075575
      16A     -1.035862    17A     -0.928378    18A     -0.885974
      19A     -0.816712    20A     -0.792750    21A     -0.731212
      22A     -0.714868    23A     -0.682874    24A     -0.666130
      25A     -0.641512    26A     -0.633915    27A     -0.610670
      28A     -0.602942    29A     -0.580787    30A     -0.549497
      31A     -0.544223    32A     -0.524862    33A     -0.520484
      34A     -0.518850    35A     -0.498077    36A     -0.488082
      37A     -0.468440    38A     -0.428382    39A     -0.400193

  @DF-RHF Final Energy:  -512.88586598357119

   => Energetics <=

    Nuclear Repulsion Energy =            548.0000606497026183
    One-Electron Energy =               -1787.9886353330516613
    Two-Electron Energy =                 727.1027086997778497
    Total Energy =                       -512.8858659835711933
  Basis Set: (AUG-CC-PVTZ AUX)
    Blend: AUG-CC-PVTZ-RI
    Molecular point group: c1

    Geometry (in Angstrom), charge = 0, multiplicity = 1:

       Center              X                  Y                   Z               Mass
    ------------   -----------------  -----------------  -----------------  -----------------
         O           -1.970699608677     1.662106894423    -0.185629035219    15.994914619570
         O            1.668712391323    -1.221680105577     0.642955964781    15.994914619570
         O           -3.291485608677    -0.047171105577     0.494033964781    15.994914619570
         N            0.213961391323     0.269063894423    -0.270707035219    14.003074004430
         C           -0.951188608677    -0.496287105577     0.116780964781    12.000000000000
         C           -1.195491508677    -1.689273605577    -0.809013335219    12.000000000000
         C            2.578880391323     0.807560894423    -0.338719035219    12.000000000000
         C            1.468137391323    -0.147427105577     0.069776964781    12.000000000000
         C           -2.190943608677     0.366626894423     0.183638964781    12.000000000000
         C            3.950552391323     0.332825894423     0.114546964781    12.000000000000
         H           -0.785116308677    -0.897873505577     1.124693564781     1.007825032230
         H            0.074915391323     1.197363894423    -0.645978035219     1.007825032230
         H           -1.351653608677    -1.327564105577    -1.841715035219     1.007825032230
         H           -0.324007608677    -2.333944105577    -0.792386035219     1.007825032230
         H           -2.078919608677    -2.235387105577    -0.493213035219     1.007825032230
         H            2.547875391323     0.917496894423    -1.429722035219     1.007825032230
         H            2.355370391323     1.799814894423     0.072525964781     1.007825032230
         H            4.178096391323    -0.646686105577    -0.307819035219     1.007825032230
         H            4.719343391323     1.041166894423    -0.205888035219     1.007825032230
         H            3.990224391323     0.242150894423     1.200852964781     1.007825032230
         H           -2.846316608677     2.098472894423    -0.124750035219     1.007825032230

  Basis Set: AUG-CC-PVTZ
    Blend: AUG-CC-PVTZ
  Basis Set: (AUG-CC-PVTZ AUX)
    Blend: AUG-CC-PVTZ-JKFIT
	 Reference Energy          =    -512.8858659835711933 [Eh]
	 Singles Energy            =      -0.0000000000000000 [Eh]
	 Same-Spin Energy          =      -0.5113107503454639 [Eh]
	 Opposite-Spin Energy      =      -1.6149188651396740 [Eh]
	 Correlation Energy        =      -2.1262296154851379 [Eh]
	 Total Energy              =    -515.0120955990563516 [Eh]

	 ================> DF-SCS-MP2 Energies <==================
	-----------------------------------------------------------
	 SCS Same-Spin Scale       =       0.3333333333333333 [-]
	 SCS Opposite-Spin Scale   =       1.2000000000000000 [-]
	 SCS Same-Spin Energy      =      -0.1704369167818213 [Eh]
	 SCS Opposite-Spin Energy  =      -1.9379026381676088 [Eh]
	 SCS Correlation Energy    =      -2.1083395549494299 [Eh]
	 SCS Total Energy          =    -514.9942055385206459 [Eh]
	-----------------------------------------------------------

  Dipole Moment: [D]
     X:    -0.0880      Y:     3.3647      Z:    -1.8537     Total:     3.8425

*** Psi4 exiting successfully. Buy a developer a beer!
