                               Psi4 1.3.2 release

  ==> Input File <==

--------------------------------------------------------------------------
#psi4
#
memory 32 gb

molecule  {
0 1
  O       -1.9705880     1.6613530    -0.1848000
  O        1.6688240    -1.2224340     0.6437850
  O       -3.2913740    -0.0479250     0.4948630
  N        0.2140730     0.2683100    -0.2698780
  C       -0.9510770    -0.4970410     0.1176100
  C       -1.1968270    -1.6816620    -0.8184860
  C        2.5789920     0.8068070    -0.3378900
  C        1.4593495    -0.1402077     0.0648319
  C       -2.1908320     0.3658730     0.1844680
  C        3.9561440     0.3428263     0.1098618
  H       -0.7838570    -0.8897150     1.1288390
  H        0.0750270     1.1966100    -0.6451490
  H       -1.3515420    -1.3283180    -1.8408860
  H       -0.3238960    -2.3346980    -0.7915570
  H       -2.0788080    -2.2361410    -0.4923840
  H        2.5479870     0.9167430    -1.4288930
  H        2.3554820     1.7990610     0.0733550
  H        4.1782080    -0.6474400    -0.3069900
  H        4.7194550     1.0404130    -0.2050590
  H        3.9903360     0.2413970     1.2016820
  H       -2.8462050     2.0977190    -0.1239210
units angstrom
no_reorient  #important for SAPT in psi4, default
symmetry c1  #important for SAPT in psi4, default
}

set PROPERTIES_ORIGIN ["COM"]
properties('MP2/aug-cc-pvtz', properties = ['dipole'])
--------------------------------------------------------------------------

    Molecular point group: c1
  Charge       = 0
  Multiplicity = 1
  Basis Set: AUG-CC-PVTZ
    Blend: AUG-CC-PVTZ
  Basis Set: (AUG-CC-PVTZ AUX)
    Blend: AUG-CC-PVTZ-JKFIT

    Orbital Energies [Eh]
    ---------------------

    Doubly Occupied:

       1A    -20.637478     2A    -20.565420     3A    -20.521691
       4A    -15.594288     5A    -11.406672     6A    -11.355776
       7A    -11.298479     8A    -11.247285     9A    -11.227555
      10A    -11.219309    11A     -1.479541    12A     -1.375279
      13A     -1.373618    14A     -1.248465    15A     -1.076454
      16A     -1.036645    17A     -0.929425    18A     -0.886457
      19A     -0.818118    20A     -0.795320    21A     -0.732160
      22A     -0.715569    23A     -0.682339    24A     -0.666687
      25A     -0.640731    26A     -0.633843    27A     -0.611534
      28A     -0.600553    29A     -0.581077    30A     -0.548620
      31A     -0.544891    32A     -0.526398    33A     -0.519996
      34A     -0.518111    35A     -0.497281    36A     -0.486356
      37A     -0.469019    38A     -0.426930    39A     -0.400638

  @DF-RHF Final Energy:  -512.88489430548407

   => Energetics <=

    Nuclear Repulsion Energy =            547.9785560894799801
    One-Electron Energy =               -1787.9348811710099199
    Two-Electron Energy =                 727.0714307760458723
    Total Energy =                       -512.8848943054840674
  Basis Set: (AUG-CC-PVTZ AUX)
    Blend: AUG-CC-PVTZ-RI
    Molecular point group: c1

    Geometry (in Angstrom), charge = 0, multiplicity = 1:

       Center              X                  Y                   Z               Mass
    ------------   -----------------  -----------------  -----------------  -----------------
         O           -1.970305033762     1.659803934652    -0.183866225637    15.994914619570
         O            1.669106966238    -1.223983065348     0.644718774363    15.994914619570
         O           -3.291091033762    -0.049474065348     0.495796774363    15.994914619570
         N            0.214355966238     0.266760934652    -0.268944225637    14.003074004430
         C           -0.950794033762    -0.498590065348     0.118543774363    12.000000000000
         C           -1.196544033762    -1.683211065348    -0.817552225637    12.000000000000
         C            2.579274966238     0.805257934652    -0.336956225637    12.000000000000
         C            1.459632466238    -0.141756765348     0.065765674363    12.000000000000
         C           -2.190549033762     0.364323934652     0.185401774363    12.000000000000
         C            3.956426966238     0.341277234652     0.110795574363    12.000000000000
         H           -0.783574033762    -0.891264065348     1.129772774363     1.007825032230
         H            0.075309966238     1.195060934652    -0.644215225637     1.007825032230
         H           -1.351259033762    -1.329867065348    -1.839952225637     1.007825032230
         H           -0.323613033762    -2.336247065348    -0.790623225637     1.007825032230
         H           -2.078525033762    -2.237690065348    -0.491450225637     1.007825032230
         H            2.548269966238     0.915193934652    -1.427959225637     1.007825032230
         H            2.355764966238     1.797511934652     0.074288774363     1.007825032230
         H            4.178490966238    -0.648989065348    -0.306056225637     1.007825032230
         H            4.719737966238     1.038863934652    -0.204125225637     1.007825032230
         H            3.990618966238     0.239847934652     1.202615774363     1.007825032230
         H           -2.845922033762     2.096169934652    -0.122987225637     1.007825032230

  Basis Set: AUG-CC-PVTZ
    Blend: AUG-CC-PVTZ
  Basis Set: (AUG-CC-PVTZ AUX)
    Blend: AUG-CC-PVTZ-JKFIT
	 Reference Energy          =    -512.8848943054840674 [Eh]
	 Singles Energy            =      -0.0000000000000000 [Eh]
	 Same-Spin Energy          =      -0.5115202053161053 [Eh]
	 Opposite-Spin Energy      =      -1.6152982581968169 [Eh]
	 Correlation Energy        =      -2.1268184635129224 [Eh]
	 Total Energy              =    -515.0117127689969720 [Eh]

	 ================> DF-SCS-MP2 Energies <==================
	-----------------------------------------------------------
	 SCS Same-Spin Scale       =       0.3333333333333333 [-]
	 SCS Opposite-Spin Scale   =       1.2000000000000000 [-]
	 SCS Same-Spin Energy      =      -0.1705067351053684 [Eh]
	 SCS Opposite-Spin Energy  =      -1.9383579098361803 [Eh]
	 SCS Correlation Energy    =      -2.1088646449415487 [Eh]
	 SCS Total Energy          =    -514.9937589504256721 [Eh]
	-----------------------------------------------------------

  Dipole Moment: [D]
     X:    -0.1909      Y:     3.4200      Z:    -1.9005     Total:     3.9172

*** Psi4 exiting successfully. Buy a developer a beer!
