                               Psi4 1.4a3.dev225

  ==> Input File <==

--------------------------------------------------------------------------
#psi4
#
memory 32 gb

molecule  {
0 1
  O       -2.1439760    -1.5096120     0.4578230
  O        1.6019480     1.2946100    -0.5777250
  O       -3.1849820    -0.0999640    -0.9818910
  N        0.1649120    -0.2715720     0.2333030
  C       -1.0051050     0.5087660    -0.1211110
  C       -1.3212480     1.5963590     0.9125160
  C        2.5597860    -0.6480590     0.5035240
  C        1.4183570     0.2162400    -0.0039080
  C       -2.2159370    -0.3767160    -0.3010400
  C        3.7806550    -0.5458820    -0.4040570
  H       -0.8075500     0.9861290    -1.0847450
  H        0.0277708    -1.1694569     0.7831471
  H       -1.5188550     1.1449870     1.8886910
  H       -0.4592110     2.2615650     0.9886780
  H       -2.1947650     2.1753270     0.6002850
  H        2.8115640    -0.2961200     1.5118980
  H        2.2315720    -1.6889350     0.6045970
  H        4.0689510     0.4992230    -0.5227640
  H        4.6219880    -1.1034150     0.0157220
  H        3.5611410    -0.9492480    -1.3958190
  H       -2.9864200    -1.9858630     0.3018850
units angstrom
no_reorient  #important for SAPT in psi4, default
symmetry c1  #important for SAPT in psi4, default
}

set PROPERTIES_ORIGIN ["COM"]
properties('MP2/aug-cc-pvtz', properties = ['dipole'])
--------------------------------------------------------------------------

    Molecular point group: c1
  Charge       = 0
  Multiplicity = 1
  Basis Set: AUG-CC-PVTZ
    Blend: AUG-CC-PVTZ
  Basis Set: (AUG-CC-PVTZ AUX)
    Blend: AUG-CC-PVTZ-JKFIT

    Orbital Energies [Eh]
    ---------------------

    Doubly Occupied:

       1A    -20.634520     2A    -20.565127     3A    -20.522408
       4A    -15.599679     5A    -11.403911     6A    -11.356551
       7A    -11.296422     8A    -11.247405     9A    -11.233181
      10A    -11.221581    11A     -1.476521    12A     -1.378831
      13A     -1.372687    14A     -1.240948    15A     -1.075408
      16A     -1.036193    17A     -0.928136    18A     -0.885359
      19A     -0.819102    20A     -0.787909    21A     -0.726400
      22A     -0.712706    23A     -0.680136    24A     -0.660724
      25A     -0.642136    26A     -0.628396    27A     -0.609257
      28A     -0.599806    29A     -0.592046    30A     -0.552341
      31A     -0.541258    32A     -0.534050    33A     -0.522778
      34A     -0.513604    35A     -0.497722    36A     -0.487785
      37A     -0.468806    38A     -0.426964    39A     -0.399492

  @DF-RHF Final Energy:  -512.88242777697951

   => Energetics <=

    Nuclear Repulsion Energy =            547.4560062864148904
    One-Electron Energy =               -1786.9202943987063463
    Two-Electron Energy =                 726.5818603353118306
    Total Energy =                       -512.8824277769795117
  Basis Set: (AUG-CC-PVTZ AUX)
    Blend: AUG-CC-PVTZ-RI
    Molecular point group: c1

    Geometry (in Angstrom), charge = 0, multiplicity = 1:

       Center              X                  Y                   Z               Mass
    ------------   -----------------  -----------------  -----------------  -----------------
         O           -2.080033154496    -1.509894666746     0.482669482816    15.994914619570
         O            1.665890845504     1.294327333254    -0.552878517184    15.994914619570
         O           -3.121039154496    -0.100246666746    -0.957044517184    15.994914619570
         N            0.228854845504    -0.271854666746     0.258149482816    14.003074004430
         C           -0.941162154496     0.508483333254    -0.096264517184    12.000000000000
         C           -1.257305154496     1.596076333254     0.937362482816    12.000000000000
         C            2.623728845504    -0.648341666746     0.528370482816    12.000000000000
         C            1.482299845504     0.215957333254     0.020938482816    12.000000000000
         C           -2.151994154496    -0.376998666746    -0.276193517184    12.000000000000
         C            3.844597845504    -0.546164666746    -0.379210517184    12.000000000000
         H           -0.743607154496     0.985846333254    -1.059898517184     1.007825032230
         H            0.091713645504    -1.169739566746     0.807993582816     1.007825032230
         H           -1.454912154496     1.144704333254     1.913537482816     1.007825032230
         H           -0.395268154496     2.261282333254     1.013524482816     1.007825032230
         H           -2.130822154496     2.175044333254     0.625131482816     1.007825032230
         H            2.875506845504    -0.296402666746     1.536744482816     1.007825032230
         H            2.295514845504    -1.689217666746     0.629443482816     1.007825032230
         H            4.132893845504     0.498940333254    -0.497917517184     1.007825032230
         H            4.685930845504    -1.103697666746     0.040568482816     1.007825032230
         H            3.625083845504    -0.949530666746    -1.370972517184     1.007825032230
         H           -2.922477154496    -1.986145666746     0.326731482816     1.007825032230

  Basis Set: AUG-CC-PVTZ
    Blend: AUG-CC-PVTZ
  Basis Set: (AUG-CC-PVTZ AUX)
    Blend: AUG-CC-PVTZ-JKFIT
	 Reference Energy          =    -512.8824277769795117 [Eh]
	 Singles Energy            =      -0.0000000000000000 [Eh]
	 Same-Spin Energy          =      -0.5116355793299895 [Eh]
	 Opposite-Spin Energy      =      -1.6161095407778077 [Eh]
	 Correlation Energy        =      -2.1277451201077970 [Eh]
	 Total Energy              =    -515.0101728970872728 [Eh]

	 ================> DF-SCS-MP2 Energies <==================
	-----------------------------------------------------------
	 SCS Same-Spin Scale       =       0.3333333333333333 [-]
	 SCS Opposite-Spin Scale   =       1.2000000000000000 [-]
	 SCS Same-Spin Energy      =      -0.1705451931099965 [Eh]
	 SCS Opposite-Spin Energy  =      -1.9393314489333691 [Eh]
	 SCS Correlation Energy    =      -2.1098766420433654 [Eh]
	 SCS Total Energy          =    -514.9923044190228438 [Eh]
	-----------------------------------------------------------

  Dipole Moment: [D]
     X:    -0.2430      Y:    -3.0789      Z:     2.6710     Total:     4.0833

*** Psi4 exiting successfully. Buy a developer a beer!
