                               Psi4 1.3.2 release

  ==> Input File <==

--------------------------------------------------------------------------
#psi4
#
memory 32 gb

molecule  {
0 1
  O       -1.9705880     1.6613530    -0.1848000
  O        1.6688240    -1.2224340     0.6437850
  O       -3.2913740    -0.0479250     0.4948630
  N        0.2140730     0.2683100    -0.2698780
  C       -0.9510770    -0.4970410     0.1176100
  C       -1.1968270    -1.6816620    -0.8184860
  C        2.5789920     0.8068070    -0.3378900
  C        1.4682490    -0.1481810     0.0706060
  C       -2.1908320     0.3658730     0.1844680
  C        3.9506640     0.3320720     0.1153760
  H       -0.8143269    -0.8181640     0.9445782
  H        0.0750270     1.1966100    -0.6451490
  H       -1.3515420    -1.3283180    -1.8408860
  H       -0.3238960    -2.3346980    -0.7915570
  H       -2.0788080    -2.2361410    -0.4923840
  H        2.5479870     0.9167430    -1.4288930
  H        2.3554820     1.7990610     0.0733550
  H        4.1782080    -0.6474400    -0.3069900
  H        4.7194550     1.0404130    -0.2050590
  H        3.9903360     0.2413970     1.2016820
  H       -2.8462050     2.0977190    -0.1239210
units angstrom
no_reorient  #important for SAPT in psi4, default
symmetry c1  #important for SAPT in psi4, default
}

set PROPERTIES_ORIGIN ["COM"]
properties('MP2/aug-cc-pvtz', properties = ['dipole'])
--------------------------------------------------------------------------

    Molecular point group: c1
  Charge       = 0
  Multiplicity = 1
  Basis Set: AUG-CC-PVTZ
    Blend: AUG-CC-PVTZ
  Basis Set: (AUG-CC-PVTZ AUX)
    Blend: AUG-CC-PVTZ-JKFIT

    Orbital Energies [Eh]
    ---------------------

    Doubly Occupied:

       1A    -20.636931     2A    -20.566187     3A    -20.524163
       4A    -15.590350     5A    -11.406010     6A    -11.355791
       7A    -11.275269     8A    -11.246991     9A    -11.226219
      10A    -11.219373    11A     -1.479357    12A     -1.380489
      13A     -1.374921    14A     -1.248462    15A     -1.082861
      16A     -1.039895    17A     -0.929571    18A     -0.885989
      19A     -0.841537    20A     -0.792768    21A     -0.731157
      22A     -0.715751    23A     -0.690120    24A     -0.673151
      25A     -0.641453    26A     -0.639884    27A     -0.614993
      28A     -0.603752    29A     -0.580916    30A     -0.548904
      31A     -0.545900    32A     -0.528461    33A     -0.523917
      34A     -0.519902    35A     -0.498370    36A     -0.491468
      37A     -0.470890    38A     -0.427931    39A     -0.400869

  @DF-RHF Final Energy:  -512.85400102907863

   => Energetics <=

    Nuclear Repulsion Energy =            549.2304641715578555
    One-Electron Energy =               -1790.2670870878671394
    Two-Electron Energy =                 728.1826218872305390
    Total Energy =                       -512.8540010290786313
  Basis Set: (AUG-CC-PVTZ AUX)
    Blend: AUG-CC-PVTZ-RI
    Molecular point group: c1

    Geometry (in Angstrom), charge = 0, multiplicity = 1:

       Center              X                  Y                   Z               Mass
    ------------   -----------------  -----------------  -----------------  -----------------
         O           -1.970376209021     1.660855952405    -0.183519898358    15.994914619570
         O            1.669035790979    -1.222931047595     0.645065101642    15.994914619570
         O           -3.291162209021    -0.048422047595     0.496143101642    15.994914619570
         N            0.214284790979     0.267812952405    -0.268597898358    14.003074004430
         C           -0.950865209021    -0.497538047595     0.118890101642    12.000000000000
         C           -1.196615209021    -1.682159047595    -0.817205898358    12.000000000000
         C            2.579203790979     0.806309952405    -0.336609898358    12.000000000000
         C            1.468460790979    -0.148678047595     0.071886101642    12.000000000000
         C           -2.190620209021     0.365375952405     0.185748101642    12.000000000000
         C            3.950875790979     0.331574952405     0.116656101642    12.000000000000
         H           -0.814115109021    -0.818661047595     0.945858301642     1.007825032230
         H            0.075238790979     1.196112952405    -0.643868898358     1.007825032230
         H           -1.351330209021    -1.328815047595    -1.839605898358     1.007825032230
         H           -0.323684209021    -2.335195047595    -0.790276898358     1.007825032230
         H           -2.078596209021    -2.236638047595    -0.491103898358     1.007825032230
         H            2.548198790979     0.916245952405    -1.427612898358     1.007825032230
         H            2.355693790979     1.798563952405     0.074635101642     1.007825032230
         H            4.178419790979    -0.647937047595    -0.305709898358     1.007825032230
         H            4.719666790979     1.039915952405    -0.203778898358     1.007825032230
         H            3.990547790979     0.240899952405     1.202962101642     1.007825032230
         H           -2.845993209021     2.097221952405    -0.122640898358     1.007825032230

  Basis Set: AUG-CC-PVTZ
    Blend: AUG-CC-PVTZ
  Basis Set: (AUG-CC-PVTZ AUX)
    Blend: AUG-CC-PVTZ-JKFIT
	 Reference Energy          =    -512.8540010290786313 [Eh]
	 Singles Energy            =      -0.0000000000000000 [Eh]
	 Same-Spin Energy          =      -0.5108931242513175 [Eh]
	 Opposite-Spin Energy      =      -1.6139662290188190 [Eh]
	 Correlation Energy        =      -2.1248593532701365 [Eh]
	 Total Energy              =    -514.9788603823487847 [Eh]

	 ================> DF-SCS-MP2 Energies <==================
	-----------------------------------------------------------
	 SCS Same-Spin Scale       =       0.3333333333333333 [-]
	 SCS Opposite-Spin Scale   =       1.2000000000000000 [-]
	 SCS Same-Spin Energy      =      -0.1702977080837725 [Eh]
	 SCS Opposite-Spin Energy  =      -1.9367594748225827 [Eh]
	 SCS Correlation Energy    =      -2.1070571829063551 [Eh]
	 SCS Total Energy          =    -514.9610582119850051 [Eh]
	-----------------------------------------------------------

  Dipole Moment: [D]
     X:    -0.1649      Y:     3.3949      Z:    -1.8694     Total:     3.8790

*** Psi4 exiting successfully. Buy a developer a beer!
