                               Psi4 1.3.2 release

  ==> Input File <==

--------------------------------------------------------------------------
#psi4
#
memory 32 gb

molecule  {
0 1
  O       -1.9705880     1.6613530    -0.1848000
  O        1.6688240    -1.2224340     0.6437850
  O       -3.2913740    -0.0479250     0.4948630
  N        0.2140730     0.2683100    -0.2698780
  C       -0.9510770    -0.4970410     0.1176100
  C       -1.1968270    -1.6816620    -0.8184860
  C        2.5789920     0.8068070    -0.3378900
  C        1.4930164    -0.0844742     0.0498071
  C       -2.1908320     0.3658730     0.1844680
  C        3.9506640     0.3320720     0.1153760
  H       -0.7838570    -0.8897150     1.1288390
  H        0.1271413     1.2046987    -0.6407177
  H       -1.3515420    -1.3283180    -1.8408860
  H       -0.3238960    -2.3346980    -0.7915570
  H       -2.0788080    -2.2361410    -0.4923840
  H        2.5479870     0.9167430    -1.4288930
  H        2.3554820     1.7990610     0.0733550
  H        4.1782080    -0.6474400    -0.3069900
  H        4.7194550     1.0404130    -0.2050590
  H        3.9903360     0.2413970     1.2016820
  H       -2.8462050     2.0977190    -0.1239210
units angstrom
no_reorient  #important for SAPT in psi4, default
symmetry c1  #important for SAPT in psi4, default
}

set PROPERTIES_ORIGIN ["COM"]
properties('MP2/aug-cc-pvtz', properties = ['dipole'])
--------------------------------------------------------------------------

    Molecular point group: c1
  Charge       = 0
  Multiplicity = 1
  Basis Set: AUG-CC-PVTZ
    Blend: AUG-CC-PVTZ
  Basis Set: (AUG-CC-PVTZ AUX)
    Blend: AUG-CC-PVTZ-JKFIT

    Orbital Energies [Eh]
    ---------------------

    Doubly Occupied:

       1A    -20.636053     2A    -20.564787     3A    -20.515475
       4A    -15.596437     5A    -11.406218     6A    -11.359493
       7A    -11.300098     8A    -11.250889     9A    -11.226609
      10A    -11.223085    11A     -1.478292    12A     -1.373843
      13A     -1.348955    14A     -1.237581    15A     -1.086710
      16A     -1.041513    17A     -0.929545    18A     -0.896531
      19A     -0.817789    20A     -0.786803    21A     -0.733683
      22A     -0.714557    23A     -0.685206    24A     -0.667206
      25A     -0.646731    26A     -0.632450    27A     -0.610692
      28A     -0.593028    29A     -0.573386    30A     -0.548102
      31A     -0.542753    32A     -0.529462    33A     -0.521060
      34A     -0.518457    35A     -0.498243    36A     -0.478801
      37A     -0.467636    38A     -0.427150    39A     -0.394615

  @DF-RHF Final Energy:  -512.87248395949541

   => Energetics <=

    Nuclear Repulsion Energy =            547.5228514196738843
    One-Electron Energy =               -1787.0708180854778675
    Two-Electron Energy =                 726.6754827063084576
    Total Energy =                       -512.8724839594954119
  Basis Set: (AUG-CC-PVTZ AUX)
    Blend: AUG-CC-PVTZ-RI
    Molecular point group: c1

    Geometry (in Angstrom), charge = 0, multiplicity = 1:

       Center              X                  Y                   Z               Mass
    ------------   -----------------  -----------------  -----------------  -----------------
         O           -1.972998591420     1.656027222095    -0.183110326540    15.994914619570
         O            1.666413408580    -1.227759777905     0.645474673460    15.994914619570
         O           -3.293784591420    -0.053250777905     0.496552673460    15.994914619570
         N            0.211662408580     0.262984222095    -0.268188326540    14.003074004430
         C           -0.953487591420    -0.502366777905     0.119299673460    12.000000000000
         C           -1.199237591420    -1.686987777905    -0.816796326540    12.000000000000
         C            2.576581408580     0.801481222095    -0.336200326540    12.000000000000
         C            1.490605808580    -0.089799977905     0.051496773460    12.000000000000
         C           -2.193242591420     0.360547222095     0.186157673460    12.000000000000
         C            3.948253408580     0.326746222095     0.117065673460    12.000000000000
         H           -0.786267591420    -0.895040777905     1.130528673460     1.007825032230
         H            0.124730708580     1.199372922095    -0.639028026540     1.007825032230
         H           -1.353952591420    -1.333643777905    -1.839196326540     1.007825032230
         H           -0.326306591420    -2.340023777905    -0.789867326540     1.007825032230
         H           -2.081218591420    -2.241466777905    -0.490694326540     1.007825032230
         H            2.545576408580     0.911417222095    -1.427203326540     1.007825032230
         H            2.353071408580     1.793735222095     0.075044673460     1.007825032230
         H            4.175797408580    -0.652765777905    -0.305300326540     1.007825032230
         H            4.717044408580     1.035087222095    -0.203369326540     1.007825032230
         H            3.987925408580     0.236071222095     1.203371673460     1.007825032230
         H           -2.848615591420     2.092393222095    -0.122231326540     1.007825032230

  Basis Set: AUG-CC-PVTZ
    Blend: AUG-CC-PVTZ
  Basis Set: (AUG-CC-PVTZ AUX)
    Blend: AUG-CC-PVTZ-JKFIT
	 Reference Energy          =    -512.8724839594954119 [Eh]
	 Singles Energy            =      -0.0000000000000000 [Eh]
	 Same-Spin Energy          =      -0.5130333746963502 [Eh]
	 Opposite-Spin Energy      =      -1.6182232257632616 [Eh]
	 Correlation Energy        =      -2.1312566004596118 [Eh]
	 Total Energy              =    -515.0037405599550766 [Eh]

	 ================> DF-SCS-MP2 Energies <==================
	-----------------------------------------------------------
	 SCS Same-Spin Scale       =       0.3333333333333333 [-]
	 SCS Opposite-Spin Scale   =       1.2000000000000000 [-]
	 SCS Same-Spin Energy      =      -0.1710111248987834 [Eh]
	 SCS Opposite-Spin Energy  =      -1.9418678709159138 [Eh]
	 SCS Correlation Energy    =      -2.1128789958146972 [Eh]
	 SCS Total Energy          =    -514.9853629553101655 [Eh]
	-----------------------------------------------------------

  Dipole Moment: [D]
     X:     0.0134      Y:     3.6350      Z:    -1.9960     Total:     4.1469

*** Psi4 exiting successfully. Buy a developer a beer!
