                               Psi4 1.3.2 release

  ==> Input File <==

--------------------------------------------------------------------------
#psi4
#
memory 32 gb

molecule  {
0 1
  O       -1.9705880     1.6613530    -0.1848000
  O        1.6688240    -1.2224340     0.6437850
  O       -3.2913740    -0.0479250     0.4948630
  N        0.2348786     0.2576327    -0.2251152
  C       -0.9510770    -0.4970410     0.1176100
  C       -1.1968270    -1.6816620    -0.8184860
  C        2.5789920     0.8068070    -0.3378900
  C        1.4682490    -0.1481810     0.0706060
  C       -2.1908320     0.3658730     0.1844680
  C        3.9506640     0.3320720     0.1153760
  H       -0.7495514    -0.8726602     1.1290630
  H        0.0750270     1.1966100    -0.6451490
  H       -1.3515420    -1.3283180    -1.8408860
  H       -0.3238960    -2.3346980    -0.7915570
  H       -2.0788080    -2.2361410    -0.4923840
  H        2.5479870     0.9167430    -1.4288930
  H        2.3554820     1.7990610     0.0733550
  H        4.1782080    -0.6474400    -0.3069900
  H        4.7194550     1.0404130    -0.2050590
  H        3.9903360     0.2413970     1.2016820
  H       -2.8462050     2.0977190    -0.1239210
units angstrom
no_reorient  #important for SAPT in psi4, default
symmetry c1  #important for SAPT in psi4, default
}

set PROPERTIES_ORIGIN ["COM"]
properties('MP2/aug-cc-pvtz', properties = ['dipole'])
--------------------------------------------------------------------------

    Molecular point group: c1
  Charge       = 0
  Multiplicity = 1
  Basis Set: AUG-CC-PVTZ
    Blend: AUG-CC-PVTZ
  Basis Set: (AUG-CC-PVTZ AUX)
    Blend: AUG-CC-PVTZ-JKFIT

    Orbital Energies [Eh]
    ---------------------

    Doubly Occupied:

       1A    -20.638236     2A    -20.566489     3A    -20.517481
       4A    -15.594531     5A    -11.408044     6A    -11.350189
       7A    -11.298499     8A    -11.246122     9A    -11.228676
      10A    -11.218494    11A     -1.480240    12A     -1.380551
      13A     -1.375446    14A     -1.248053    15A     -1.077143
      16A     -1.036593    17A     -0.930549    18A     -0.885428
      19A     -0.817325    20A     -0.794551    21A     -0.732408
      22A     -0.715327    23A     -0.681768    24A     -0.667473
      25A     -0.641947    26A     -0.633150    27A     -0.612590
      28A     -0.599889    29A     -0.581088    30A     -0.548445
      31A     -0.545307    32A     -0.524042    33A     -0.519764
      34A     -0.518457    35A     -0.498287    36A     -0.488264
      37A     -0.470155    38A     -0.425559    39A     -0.399002

  @DF-RHF Final Energy:  -512.88367559731228

   => Energetics <=

    Nuclear Repulsion Energy =            548.4958052332646048
    One-Electron Energy =               -1788.9678395149730932
    Two-Electron Energy =                 727.5883586843963258
    Total Energy =                       -512.8836755973122763
  Basis Set: (AUG-CC-PVTZ AUX)
    Blend: AUG-CC-PVTZ-RI
    Molecular point group: c1

    Geometry (in Angstrom), charge = 0, multiplicity = 1:

       Center              X                  Y                   Z               Mass
    ------------   -----------------  -----------------  -----------------  -----------------
         O           -1.972834437163     1.662265149140    -0.189122182701    15.994914619570
         O            1.666577562837    -1.221521850860     0.639462817299    15.994914619570
         O           -3.293620437163    -0.047012850860     0.490540817299    15.994914619570
         N            0.232632162837     0.258544849140    -0.229437382701    14.003074004430
         C           -0.953323437163    -0.496128850860     0.113287817299    12.000000000000
         C           -1.199073437163    -1.680749850860    -0.822808182701    12.000000000000
         C            2.576745562837     0.807719149140    -0.342212182701    12.000000000000
         C            1.466002562837    -0.147268850860     0.066283817299    12.000000000000
         C           -2.193078437163     0.366785149140     0.180145817299    12.000000000000
         C            3.948417562837     0.332984149140     0.111053817299    12.000000000000
         H           -0.751797837163    -0.871748050860     1.124740817299     1.007825032230
         H            0.072780562837     1.197522149140    -0.649471182701     1.007825032230
         H           -1.353788437163    -1.327405850860    -1.845208182701     1.007825032230
         H           -0.326142437163    -2.333785850860    -0.795879182701     1.007825032230
         H           -2.081054437163    -2.235228850860    -0.496706182701     1.007825032230
         H            2.545740562837     0.917655149140    -1.433215182701     1.007825032230
         H            2.353235562837     1.799973149140     0.069032817299     1.007825032230
         H            4.175961562837    -0.646527850860    -0.311312182701     1.007825032230
         H            4.717208562837     1.041325149140    -0.209381182701     1.007825032230
         H            3.988089562837     0.242309149140     1.197359817299     1.007825032230
         H           -2.848451437163     2.098631149140    -0.128243182701     1.007825032230

  Basis Set: AUG-CC-PVTZ
    Blend: AUG-CC-PVTZ
  Basis Set: (AUG-CC-PVTZ AUX)
    Blend: AUG-CC-PVTZ-JKFIT
	 Reference Energy          =    -512.8836755973122763 [Eh]
	 Singles Energy            =      -0.0000000000000000 [Eh]
	 Same-Spin Energy          =      -0.5115172445730478 [Eh]
	 Opposite-Spin Energy      =      -1.6150277336569041 [Eh]
	 Correlation Energy        =      -2.1265449782299521 [Eh]
	 Total Energy              =    -515.0102205755422347 [Eh]

	 ================> DF-SCS-MP2 Energies <==================
	-----------------------------------------------------------
	 SCS Same-Spin Scale       =       0.3333333333333333 [-]
	 SCS Opposite-Spin Scale   =       1.2000000000000000 [-]
	 SCS Same-Spin Energy      =      -0.1705057481910159 [Eh]
	 SCS Opposite-Spin Energy  =      -1.9380332803882849 [Eh]
	 SCS Correlation Energy    =      -2.1085390285793011 [Eh]
	 SCS Total Energy          =    -514.9922146258916200 [Eh]
	-----------------------------------------------------------

  Dipole Moment: [D]
     X:    -0.2897      Y:     3.4240      Z:    -1.9744     Total:     3.9631

*** Psi4 exiting successfully. Buy a developer a beer!
