                               Psi4 1.4a3.dev225

  ==> Input File <==

--------------------------------------------------------------------------
#psi4
#
memory 32 gb

molecule  {
0 1
  O       -2.1439760    -1.5096120     0.4578230
  O        1.6019480     1.2946100    -0.5777250
  O       -3.1849820    -0.0999640    -0.9818910
  N        0.1649120    -0.2715720     0.2333030
  C       -1.0051050     0.5087660    -0.1211110
  C       -1.3212480     1.5963590     0.9125160
  C        2.5597860    -0.6480590     0.5035240
  C        1.4183570     0.2162400    -0.0039080
  C       -2.2000017    -0.3812670    -0.2898438
  C        3.7806550    -0.5458820    -0.4040570
  H       -0.8075500     0.9861290    -1.0847450
  H        0.0342290    -1.1271740     0.7572540
  H       -1.5188550     1.1449870     1.8886910
  H       -0.4592110     2.2615650     0.9886780
  H       -2.1947650     2.1753270     0.6002850
  H        2.8115640    -0.2961200     1.5118980
  H        2.2315720    -1.6889350     0.6045970
  H        4.0689510     0.4992230    -0.5227640
  H        4.6219880    -1.1034150     0.0157220
  H        3.5611410    -0.9492480    -1.3958190
  H       -2.9864200    -1.9858630     0.3018850
units angstrom
no_reorient  #important for SAPT in psi4, default
symmetry c1  #important for SAPT in psi4, default
}

set PROPERTIES_ORIGIN ["COM"]
properties('MP2/aug-cc-pvtz', properties = ['dipole'])
--------------------------------------------------------------------------

    Molecular point group: c1
  Charge       = 0
  Multiplicity = 1
  Basis Set: AUG-CC-PVTZ
    Blend: AUG-CC-PVTZ
  Basis Set: (AUG-CC-PVTZ AUX)
    Blend: AUG-CC-PVTZ-JKFIT

    Orbital Energies [Eh]
    ---------------------

    Doubly Occupied:

       1A    -20.637772     2A    -20.561438     3A    -20.523504
       4A    -15.596587     5A    -11.405555     6A    -11.357562
       7A    -11.297033     8A    -11.248248     9A    -11.234164
      10A    -11.222227    11A     -1.477670    12A     -1.380233
      13A     -1.362321    14A     -1.247396    15A     -1.077626
      16A     -1.038604    17A     -0.931162    18A     -0.887300
      19A     -0.825307    20A     -0.795711    21A     -0.729073
      22A     -0.713568    23A     -0.681073    24A     -0.662226
      25A     -0.641153    26A     -0.629993    27A     -0.606820
      28A     -0.601886    29A     -0.594442    30A     -0.552507
      31A     -0.542187    32A     -0.534263    33A     -0.524013
      34A     -0.514463    35A     -0.495656    36A     -0.484273
      37A     -0.468436    38A     -0.428089    39A     -0.401303

  @DF-RHF Final Energy:  -512.88414018410754

   => Energetics <=

    Nuclear Repulsion Energy =            547.8271477087971562
    One-Electron Energy =               -1787.5968857276748167
    Two-Electron Energy =                 726.8855978347701239
    Total Energy =                       -512.8841401841075367
  Basis Set: (AUG-CC-PVTZ AUX)
    Blend: AUG-CC-PVTZ-RI
    Molecular point group: c1

    Geometry (in Angstrom), charge = 0, multiplicity = 1:

       Center              X                  Y                   Z               Mass
    ------------   -----------------  -----------------  -----------------  -----------------
         O           -2.081396131192    -1.509811962445     0.481923251476    15.994914619570
         O            1.664527868808     1.294410037555    -0.553624748524    15.994914619570
         O           -3.122402131192    -0.100163962445    -0.957790748524    15.994914619570
         N            0.227491868808    -0.271771962445     0.257403251476    14.003074004430
         C           -0.942525131192     0.508566037555    -0.097010748524    12.000000000000
         C           -1.258668131192     1.596159037555     0.936616251476    12.000000000000
         C            2.622365868808    -0.648258962445     0.527624251476    12.000000000000
         C            1.480936868808     0.216040037555     0.020192251476    12.000000000000
         C           -2.137421831192    -0.381466962445    -0.265743548524    12.000000000000
         C            3.843234868808    -0.546081962445    -0.379956748524    12.000000000000
         H           -0.744970131192     0.985929037555    -1.060644748524     1.007825032230
         H            0.096808868808    -1.127373962445     0.781354251476     1.007825032230
         H           -1.456275131192     1.144787037555     1.912791251476     1.007825032230
         H           -0.396631131192     2.261365037555     1.012778251476     1.007825032230
         H           -2.132185131192     2.175127037555     0.624385251476     1.007825032230
         H            2.874143868808    -0.296319962445     1.535998251476     1.007825032230
         H            2.294151868808    -1.689134962445     0.628697251476     1.007825032230
         H            4.131530868808     0.499023037555    -0.498663748524     1.007825032230
         H            4.684567868808    -1.103614962445     0.039822251476     1.007825032230
         H            3.623720868808    -0.949447962445    -1.371718748524     1.007825032230
         H           -2.923840131192    -1.986062962445     0.325985251476     1.007825032230

  Basis Set: AUG-CC-PVTZ
    Blend: AUG-CC-PVTZ
  Basis Set: (AUG-CC-PVTZ AUX)
    Blend: AUG-CC-PVTZ-JKFIT
	 Reference Energy          =    -512.8841401841075367 [Eh]
	 Singles Energy            =      -0.0000000000000000 [Eh]
	 Same-Spin Energy          =      -0.5115867366583565 [Eh]
	 Opposite-Spin Energy      =      -1.6158221329967186 [Eh]
	 Correlation Energy        =      -2.1274088696550750 [Eh]
	 Total Energy              =    -515.0115490537625647 [Eh]

	 ================> DF-SCS-MP2 Energies <==================
	-----------------------------------------------------------
	 SCS Same-Spin Scale       =       0.3333333333333333 [-]
	 SCS Opposite-Spin Scale   =       1.2000000000000000 [-]
	 SCS Same-Spin Energy      =      -0.1705289122194522 [Eh]
	 SCS Opposite-Spin Energy  =      -1.9389865595960623 [Eh]
	 SCS Correlation Energy    =      -2.1095154718155142 [Eh]
	 SCS Total Energy          =    -514.9936556559230212 [Eh]
	-----------------------------------------------------------

  Dipole Moment: [D]
     X:    -0.1122      Y:    -3.0846      Z:     2.7387     Total:     4.1265

*** Psi4 exiting successfully. Buy a developer a beer!
