                               Psi4 1.3.2 release

  ==> Input File <==

--------------------------------------------------------------------------
#psi4
#
memory 32 gb

molecule  {
0 1
  O       -1.9705880     1.6613530    -0.1848000
  O        1.6688240    -1.2224340     0.6437850
  O       -3.2913740    -0.0479250     0.4948630
  N        0.2140730     0.2683100    -0.2698780
  C       -1.1121331    -0.6028337     0.1711716
  C       -1.1968270    -1.6816620    -0.8184860
  C        2.5789920     0.8068070    -0.3378900
  C        1.4682490    -0.1481810     0.0706060
  C       -2.1908320     0.3658730     0.1844680
  C        3.9506640     0.3320720     0.1153760
  H       -0.7838570    -0.8897150     1.1288390
  H        0.0750270     1.1966100    -0.6451490
  H       -1.3515420    -1.3283180    -1.8408860
  H       -0.3238960    -2.3346980    -0.7915570
  H       -2.0788080    -2.2361410    -0.4923840
  H        2.5479870     0.9167430    -1.4288930
  H        2.3554820     1.7990610     0.0733550
  H        4.1782080    -0.6474400    -0.3069900
  H        4.7194550     1.0404130    -0.2050590
  H        3.9903360     0.2413970     1.2016820
  H       -2.8462050     2.0977190    -0.1239210
units angstrom
no_reorient  #important for SAPT in psi4, default
symmetry c1  #important for SAPT in psi4, default
}

set PROPERTIES_ORIGIN ["COM"]
properties('MP2/aug-cc-pvtz', properties = ['dipole'])
--------------------------------------------------------------------------

    Molecular point group: c1
  Charge       = 0
  Multiplicity = 1
  Basis Set: AUG-CC-PVTZ
    Blend: AUG-CC-PVTZ
  Basis Set: (AUG-CC-PVTZ AUX)
    Blend: AUG-CC-PVTZ-JKFIT

    Orbital Energies [Eh]
    ---------------------

    Doubly Occupied:

       1A    -20.644073     2A    -20.568529     3A    -20.514274
       4A    -15.577655     5A    -11.410092     6A    -11.345690
       7A    -11.308352     8A    -11.240370     9A    -11.232546
      10A    -11.214630    11A     -1.485328    12A     -1.381923
      13A     -1.367769    14A     -1.208532    15A     -1.086911
      16A     -1.038944    17A     -0.939354    18A     -0.878006
      19A     -0.822765    20A     -0.776406    21A     -0.730296
      22A     -0.718181    23A     -0.674926    24A     -0.668131
      25A     -0.637856    26A     -0.631636    27A     -0.619101
      28A     -0.595418    29A     -0.586515    30A     -0.557039
      31A     -0.542251    32A     -0.528287    33A     -0.514275
      34A     -0.502562    35A     -0.495739    36A     -0.487687
      37A     -0.473680    38A     -0.416298    39A     -0.394432

  @DF-RHF Final Energy:  -512.85302175877348

   => Energetics <=

    Nuclear Repulsion Energy =            546.4441958858759563
    One-Electron Energy =               -1784.9615139754441770
    Two-Electron Energy =                 725.6642963307946275
    Total Energy =                       -512.8530217587734796
  Basis Set: (AUG-CC-PVTZ AUX)
    Blend: AUG-CC-PVTZ-RI
    Molecular point group: c1

    Geometry (in Angstrom), charge = 0, multiplicity = 1:

       Center              X                  Y                   Z               Mass
    ------------   -----------------  -----------------  -----------------  -----------------
         O           -1.957265891032     1.670103814023    -0.189230380295    15.994914619570
         O            1.682146108968    -1.213683185977     0.639354619705    15.994914619570
         O           -3.278051891032    -0.039174185977     0.490432619705    15.994914619570
         N            0.227395108968     0.277060814023    -0.274308380295    14.003074004430
         C           -1.098810991032    -0.594082885977     0.166741219705    12.000000000000
         C           -1.183504891032    -1.672911185977    -0.822916380295    12.000000000000
         C            2.592314108968     0.815557814023    -0.342320380295    12.000000000000
         C            1.481571108968    -0.139430185977     0.066175619705    12.000000000000
         C           -2.177509891032     0.374623814023     0.180037619705    12.000000000000
         C            3.963986108968     0.340822814023     0.110945619705    12.000000000000
         H           -0.770534891032    -0.880964185977     1.124408619705     1.007825032230
         H            0.088349108968     1.205360814023    -0.649579380295     1.007825032230
         H           -1.338219891032    -1.319567185977    -1.845316380295     1.007825032230
         H           -0.310573891032    -2.325947185977    -0.795987380295     1.007825032230
         H           -2.065485891032    -2.227390185977    -0.496814380295     1.007825032230
         H            2.561309108968     0.925493814023    -1.433323380295     1.007825032230
         H            2.368804108968     1.807811814023     0.068924619705     1.007825032230
         H            4.191530108968    -0.638689185977    -0.311420380295     1.007825032230
         H            4.732777108968     1.049163814023    -0.209489380295     1.007825032230
         H            4.003658108968     0.250147814023     1.197251619705     1.007825032230
         H           -2.832882891032     2.106469814023    -0.128351380295     1.007825032230

  Basis Set: AUG-CC-PVTZ
    Blend: AUG-CC-PVTZ
  Basis Set: (AUG-CC-PVTZ AUX)
    Blend: AUG-CC-PVTZ-JKFIT
	 Reference Energy          =    -512.8530217587734796 [Eh]
	 Singles Energy            =      -0.0000000000000000 [Eh]
	 Same-Spin Energy          =      -0.5120141934371170 [Eh]
	 Opposite-Spin Energy      =      -1.6175518085603806 [Eh]
	 Correlation Energy        =      -2.1295660019974978 [Eh]
	 Total Energy              =    -514.9825877607710254 [Eh]

	 ================> DF-SCS-MP2 Energies <==================
	-----------------------------------------------------------
	 SCS Same-Spin Scale       =       0.3333333333333333 [-]
	 SCS Opposite-Spin Scale   =       1.2000000000000000 [-]
	 SCS Same-Spin Energy      =      -0.1706713978123723 [Eh]
	 SCS Opposite-Spin Energy  =      -1.9410621702724566 [Eh]
	 SCS Correlation Energy    =      -2.1117335680848290 [Eh]
	 SCS Total Energy          =    -514.9647553268582669 [Eh]
	-----------------------------------------------------------

  Dipole Moment: [D]
     X:    -0.7478      Y:     3.1464      Z:    -1.8537     Total:     3.7276

*** Psi4 exiting successfully. Buy a developer a beer!
