                               Psi4 1.3.2 release

  ==> Input File <==

--------------------------------------------------------------------------
#psi4
#
memory 32 gb

molecule  {
0 1
  O       -1.9705880     1.6613530    -0.1848000
  O        1.6688240    -1.2224340     0.6437850
  O       -3.2913740    -0.0479250     0.4948630
  N        0.2140730     0.2683100    -0.2698780
  C       -0.9510770    -0.4970410     0.1176100
  C       -1.1968270    -1.6816620    -0.8184860
  C        2.5789920     0.8068070    -0.3378900
  C        1.4400440    -0.2107462     0.0904717
  C       -2.1908320     0.3658730     0.1844680
  C        3.9506640     0.3320720     0.1153760
  H       -0.7838570    -0.8897150     1.1288390
  H        0.0232938     1.1859769    -0.6485517
  H       -1.3515420    -1.3283180    -1.8408860
  H       -0.3238960    -2.3346980    -0.7915570
  H       -2.0788080    -2.2361410    -0.4923840
  H        2.5479870     0.9167430    -1.4288930
  H        2.3554820     1.7990610     0.0733550
  H        4.1782080    -0.6474400    -0.3069900
  H        4.7194550     1.0404130    -0.2050590
  H        3.9903360     0.2413970     1.2016820
  H       -2.8462050     2.0977190    -0.1239210
units angstrom
no_reorient  #important for SAPT in psi4, default
symmetry c1  #important for SAPT in psi4, default
}

set PROPERTIES_ORIGIN ["COM"]
properties('MP2/aug-cc-pvtz', properties = ['dipole'])
--------------------------------------------------------------------------

    Molecular point group: c1
  Charge       = 0
  Multiplicity = 1
  Basis Set: AUG-CC-PVTZ
    Blend: AUG-CC-PVTZ
  Basis Set: (AUG-CC-PVTZ AUX)
    Blend: AUG-CC-PVTZ-JKFIT

    Orbital Energies [Eh]
    ---------------------

    Doubly Occupied:

       1A    -20.637516     2A    -20.564700     3A    -20.533647
       4A    -15.587722     5A    -11.405577     6A    -11.352892
       7A    -11.294702     8A    -11.241764     9A    -11.227462
      10A    -11.215839    11A     -1.479393    12A     -1.419015
      13A     -1.374320    14A     -1.251457    15A     -1.066488
      16A     -1.029490    17A     -0.928056    18A     -0.875003
      19A     -0.817735    20A     -0.797494    21A     -0.728771
      22A     -0.715552    23A     -0.684844    24A     -0.666526
      25A     -0.639385    26A     -0.638590    27A     -0.612124
      28A     -0.610207    29A     -0.584697    30A     -0.549163
      31A     -0.546757    32A     -0.526023    33A     -0.524422
      34A     -0.516571    35A     -0.496311    36A     -0.494455
      37A     -0.469525    38A     -0.419874    39A     -0.404157

  @DF-RHF Final Energy:  -512.88221401441933

   => Energetics <=

    Nuclear Repulsion Energy =            548.6492283483891015
    One-Electron Energy =               -1789.2064321768368700
    Two-Electron Energy =                 727.6749898140283221
    Total Energy =                       -512.8822140144193327
  Basis Set: (AUG-CC-PVTZ AUX)
    Blend: AUG-CC-PVTZ-RI
    Molecular point group: c1

    Geometry (in Angstrom), charge = 0, multiplicity = 1:

       Center              X                  Y                   Z               Mass
    ------------   -----------------  -----------------  -----------------  -----------------
         O           -1.967895475390     1.666602055820    -0.186419535992    15.994914619570
         O            1.671516524610    -1.217184944180     0.642165464008    15.994914619570
         O           -3.288681475390    -0.042675944180     0.493243464008    15.994914619570
         N            0.216765524610     0.273559055820    -0.271497535992    14.003074004430
         C           -0.948384475390    -0.491791944180     0.115990464008    12.000000000000
         C           -1.194134475390    -1.676412944180    -0.820105535992    12.000000000000
         C            2.581684524610     0.812056055820    -0.339509535992    12.000000000000
         C            1.442736524610    -0.205497144180     0.088852164008    12.000000000000
         C           -2.188139475390     0.371122055820     0.182848464008    12.000000000000
         C            3.953356524610     0.337321055820     0.113756464008    12.000000000000
         H           -0.781164475390    -0.884465944180     1.127219464008     1.007825032230
         H            0.025986324610     1.191225955820    -0.650171235992     1.007825032230
         H           -1.348849475390    -1.323068944180    -1.842505535992     1.007825032230
         H           -0.321203475390    -2.329448944180    -0.793176535992     1.007825032230
         H           -2.076115475390    -2.230891944180    -0.494003535992     1.007825032230
         H            2.550679524610     0.921992055820    -1.430512535992     1.007825032230
         H            2.358174524610     1.804310055820     0.071735464008     1.007825032230
         H            4.180900524610    -0.642190944180    -0.308609535992     1.007825032230
         H            4.722147524610     1.045662055820    -0.206678535992     1.007825032230
         H            3.993028524610     0.246646055820     1.200062464008     1.007825032230
         H           -2.843512475390     2.102968055820    -0.125540535992     1.007825032230

  Basis Set: AUG-CC-PVTZ
    Blend: AUG-CC-PVTZ
  Basis Set: (AUG-CC-PVTZ AUX)
    Blend: AUG-CC-PVTZ-JKFIT
	 Reference Energy          =    -512.8822140144193327 [Eh]
	 Singles Energy            =      -0.0000000000000000 [Eh]
	 Same-Spin Energy          =      -0.5101779325850937 [Eh]
	 Opposite-Spin Energy      =      -1.6126875055618928 [Eh]
	 Correlation Energy        =      -2.1228654381469862 [Eh]
	 Total Energy              =    -515.0050794525662923 [Eh]

	 ================> DF-SCS-MP2 Energies <==================
	-----------------------------------------------------------
	 SCS Same-Spin Scale       =       0.3333333333333333 [-]
	 SCS Opposite-Spin Scale   =       1.2000000000000000 [-]
	 SCS Same-Spin Energy      =      -0.1700593108616979 [Eh]
	 SCS Opposite-Spin Energy  =      -1.9352250066742713 [Eh]
	 SCS Correlation Energy    =      -2.1052843175359692 [Eh]
	 SCS Total Energy          =    -514.9874983319552939 [Eh]
	-----------------------------------------------------------

  Dipole Moment: [D]
     X:    -0.2449      Y:     3.0623      Z:    -1.7126     Total:     3.5172

*** Psi4 exiting successfully. Buy a developer a beer!
