                               Psi4 1.3.2 release

  ==> Input File <==

--------------------------------------------------------------------------
#psi4
#
memory 32 gb

molecule  {
0 1
  O       -1.9705880     1.6613530    -0.1848000
  O        1.6688240    -1.2224340     0.6437850
  O       -3.2913740    -0.0479250     0.4948630
  N        0.2121023     0.2761264    -0.2601596
  C       -0.9510770    -0.4970410     0.1176100
  C       -1.2075463    -1.6850509    -0.8112880
  C        2.5789920     0.8068070    -0.3378900
  C        1.4682490    -0.1481810     0.0706060
  C       -2.1908320     0.3658730     0.1844680
  C        3.9506640     0.3320720     0.1153760
  H       -0.7838570    -0.8897150     1.1288390
  H        0.0750270     1.1966100    -0.6451490
  H       -1.3515420    -1.3283180    -1.8408860
  H       -0.3238960    -2.3346980    -0.7915570
  H       -2.0788080    -2.2361410    -0.4923840
  H        2.5479870     0.9167430    -1.4288930
  H        2.3554820     1.7990610     0.0733550
  H        4.1782080    -0.6474400    -0.3069900
  H        4.7194550     1.0404130    -0.2050590
  H        3.9903360     0.2413970     1.2016820
  H       -2.8462050     2.0977190    -0.1239210
units angstrom
no_reorient  #important for SAPT in psi4, default
symmetry c1  #important for SAPT in psi4, default
}

set PROPERTIES_ORIGIN ["COM"]
properties('MP2/aug-cc-pvtz', properties = ['dipole'])
--------------------------------------------------------------------------

    Molecular point group: c1
  Charge       = 0
  Multiplicity = 1
  Basis Set: AUG-CC-PVTZ
    Blend: AUG-CC-PVTZ
  Basis Set: (AUG-CC-PVTZ AUX)
    Blend: AUG-CC-PVTZ-JKFIT

    Orbital Energies [Eh]
    ---------------------

    Doubly Occupied:

       1A    -20.636287     2A    -20.564215     3A    -20.525022
       4A    -15.591608     5A    -11.405289     6A    -11.356325
       7A    -11.297177     8A    -11.247340     9A    -11.227164
      10A    -11.219651    11A     -1.478373    12A     -1.380608
      13A     -1.373547    14A     -1.246152    15A     -1.075548
      16A     -1.035985    17A     -0.928358    18A     -0.885807
      19A     -0.817247    20A     -0.792882    21A     -0.730863
      22A     -0.714612    23A     -0.682688    24A     -0.665901
      25A     -0.641372    26A     -0.633717    27A     -0.609897
      28A     -0.603555    29A     -0.581997    30A     -0.548867
      31A     -0.543376    32A     -0.525764    33A     -0.520606
      34A     -0.519055    35A     -0.497797    36A     -0.488327
      37A     -0.467939    38A     -0.428406    39A     -0.400281

  @DF-RHF Final Energy:  -512.88597129473715

   => Energetics <=

    Nuclear Repulsion Energy =            547.9868734562522832
    One-Electron Energy =               -1787.9664812062533201
    Two-Electron Energy =                 727.0936364552637770
    Total Energy =                       -512.8859712947371463
  Basis Set: (AUG-CC-PVTZ AUX)
    Blend: AUG-CC-PVTZ-RI
    Molecular point group: c1

    Geometry (in Angstrom), charge = 0, multiplicity = 1:

       Center              X                  Y                   Z               Mass
    ------------   -----------------  -----------------  -----------------  -----------------
         O           -1.969511000766     1.660878865289    -0.186333403339    15.994914619570
         O            1.669900999234    -1.222908134711     0.642251596661    15.994914619570
         O           -3.290297000766    -0.048399134711     0.493329596661    15.994914619570
         N            0.213179299234     0.275652265289    -0.261693003339    14.003074004430
         C           -0.950000000766    -0.497515134711     0.116076596661    12.000000000000
         C           -1.206469300766    -1.685525034711    -0.812821403339    12.000000000000
         C            2.580068999234     0.806332865289    -0.339423403339    12.000000000000
         C            1.469325999234    -0.148655134711     0.069072596661    12.000000000000
         C           -2.189755000766     0.365398865289     0.182934596661    12.000000000000
         C            3.951740999234     0.331597865289     0.113842596661    12.000000000000
         H           -0.782780000766    -0.890189134711     1.127305596661     1.007825032230
         H            0.076103999234     1.196135865289    -0.646682403339     1.007825032230
         H           -1.350465000766    -1.328792134711    -1.842419403339     1.007825032230
         H           -0.322819000766    -2.335172134711    -0.793090403339     1.007825032230
         H           -2.077731000766    -2.236615134711    -0.493917403339     1.007825032230
         H            2.549063999234     0.916268865289    -1.430426403339     1.007825032230
         H            2.356558999234     1.798586865289     0.071821596661     1.007825032230
         H            4.179284999234    -0.647914134711    -0.308523403339     1.007825032230
         H            4.720531999234     1.039938865289    -0.206592403339     1.007825032230
         H            3.991412999234     0.240922865289     1.200148596661     1.007825032230
         H           -2.845128000766     2.097244865289    -0.125454403339     1.007825032230

  Basis Set: AUG-CC-PVTZ
    Blend: AUG-CC-PVTZ
  Basis Set: (AUG-CC-PVTZ AUX)
    Blend: AUG-CC-PVTZ-JKFIT
	 Reference Energy          =    -512.8859712947371463 [Eh]
	 Singles Energy            =      -0.0000000000000000 [Eh]
	 Same-Spin Energy          =      -0.5112940706479818 [Eh]
	 Opposite-Spin Energy      =      -1.6148658136667948 [Eh]
	 Correlation Energy        =      -2.1261598843147764 [Eh]
	 Total Energy              =    -515.0121311790519485 [Eh]

	 ================> DF-SCS-MP2 Energies <==================
	-----------------------------------------------------------
	 SCS Same-Spin Scale       =       0.3333333333333333 [-]
	 SCS Opposite-Spin Scale   =       1.2000000000000000 [-]
	 SCS Same-Spin Energy      =      -0.1704313568826606 [Eh]
	 SCS Opposite-Spin Energy  =      -1.9378389764001538 [Eh]
	 SCS Correlation Energy    =      -2.1082703332828143 [Eh]
	 SCS Total Energy          =    -514.9942416280199495 [Eh]
	-----------------------------------------------------------

  Dipole Moment: [D]
     X:    -0.0754      Y:     3.3476      Z:    -1.8732     Total:     3.8368

*** Psi4 exiting successfully. Buy a developer a beer!
