                               Psi4 1.3.2 release

  ==> Input File <==

--------------------------------------------------------------------------
#psi4
#
memory 32 gb

molecule  {
0 1
  O       -1.9705880     1.6613530    -0.1848000
  O        1.6688240    -1.2224340     0.6437850
  O       -3.2913740    -0.0479250     0.4948630
  N        0.2140730     0.2683100    -0.2698780
  C       -0.9510770    -0.4970410     0.1176100
  C       -1.1968270    -1.6816620    -0.8184860
  C        2.5789920     0.8068070    -0.3378900
  C        1.4682490    -0.1481810     0.0706060
  C       -2.2728275     0.4229448     0.1888899
  C        3.9506640     0.3320720     0.1153760
  H       -0.7838570    -0.8897150     1.1288390
  H        0.0750270     1.1966100    -0.6451490
  H       -1.3515420    -1.3283180    -1.8408860
  H       -0.3238960    -2.3346980    -0.7915570
  H       -2.0788080    -2.2361410    -0.4923840
  H        2.5479870     0.9167430    -1.4288930
  H        2.3554820     1.7990610     0.0733550
  H        4.1782080    -0.6474400    -0.3069900
  H        4.7194550     1.0404130    -0.2050590
  H        3.9903360     0.2413970     1.2016820
  H       -2.8462050     2.0977190    -0.1239210
units angstrom
no_reorient  #important for SAPT in psi4, default
symmetry c1  #important for SAPT in psi4, default
}

set PROPERTIES_ORIGIN ["COM"]
properties('MP2/aug-cc-pvtz', properties = ['dipole'])
--------------------------------------------------------------------------

    Molecular point group: c1
  Charge       = 0
  Multiplicity = 1
  Basis Set: AUG-CC-PVTZ
    Blend: AUG-CC-PVTZ
  Basis Set: (AUG-CC-PVTZ AUX)
    Blend: AUG-CC-PVTZ-JKFIT

    Orbital Energies [Eh]
    ---------------------

    Doubly Occupied:

       1A    -20.646589     2A    -20.570421     3A    -20.520214
       4A    -15.586041     5A    -11.399852     6A    -11.351492
       7A    -11.290067     8A    -11.244422     9A    -11.219782
      10A    -11.217378    11A     -1.506048    12A     -1.412262
      13A     -1.375883    14A     -1.237912    15A     -1.065743
      16A     -1.024139    17A     -0.916520    18A     -0.880898
      19A     -0.815047    20A     -0.791647    21A     -0.736289
      22A     -0.723369    23A     -0.681095    24A     -0.672685
      25A     -0.648748    26A     -0.637608    27A     -0.611724
      28A     -0.599959    29A     -0.576242    30A     -0.546716
      31A     -0.542004    32A     -0.522069    33A     -0.520657
      34A     -0.517662    35A     -0.508339    36A     -0.487600
      37A     -0.454874    38A     -0.423251    39A     -0.393506

  @DF-RHF Final Energy:  -512.87924123962478

   => Energetics <=

    Nuclear Repulsion Energy =            547.6843288714446771
    One-Electron Energy =               -1787.3736349275104658
    Two-Electron Energy =                 726.8100648164410131
    Total Energy =                       -512.8792412396247755
  Basis Set: (AUG-CC-PVTZ AUX)
    Blend: AUG-CC-PVTZ-RI
    Molecular point group: c1

    Geometry (in Angstrom), charge = 0, multiplicity = 1:

       Center              X                  Y                   Z               Mass
    ------------   -----------------  -----------------  -----------------  -----------------
         O           -1.963805504597     1.656632237872    -0.185165717888    15.994914619570
         O            1.675606495403    -1.227154762128     0.643419282112    15.994914619570
         O           -3.284591504597    -0.052645762128     0.494497282112    15.994914619570
         N            0.220855495403     0.263589237872    -0.270243717888    14.003074004430
         C           -0.944294504597    -0.501761762128     0.117244282112    12.000000000000
         C           -1.190044504597    -1.686382762128    -0.818851717888    12.000000000000
         C            2.585774495403     0.802086237872    -0.338255717888    12.000000000000
         C            1.475031495403    -0.152901762128     0.070240282112    12.000000000000
         C           -2.266045004597     0.418224037872     0.188524182112    12.000000000000
         C            3.957446495403     0.327351237872     0.115010282112    12.000000000000
         H           -0.777074504597    -0.894435762128     1.128473282112     1.007825032230
         H            0.081809495403     1.191889237872    -0.645514717888     1.007825032230
         H           -1.344759504597    -1.333038762128    -1.841251717888     1.007825032230
         H           -0.317113504597    -2.339418762128    -0.791922717888     1.007825032230
         H           -2.072025504597    -2.240861762128    -0.492749717888     1.007825032230
         H            2.554769495403     0.912022237872    -1.429258717888     1.007825032230
         H            2.362264495403     1.794340237872     0.072989282112     1.007825032230
         H            4.184990495403    -0.652160762128    -0.307355717888     1.007825032230
         H            4.726237495403     1.035692237872    -0.205424717888     1.007825032230
         H            3.997118495403     0.236676237872     1.201316282112     1.007825032230
         H           -2.839422504597     2.092998237872    -0.124286717888     1.007825032230

  Basis Set: AUG-CC-PVTZ
    Blend: AUG-CC-PVTZ
  Basis Set: (AUG-CC-PVTZ AUX)
    Blend: AUG-CC-PVTZ-JKFIT
	 Reference Energy          =    -512.8792412396247755 [Eh]
	 Singles Energy            =      -0.0000000000000000 [Eh]
	 Same-Spin Energy          =      -0.5100497909649684 [Eh]
	 Opposite-Spin Energy      =      -1.6122881467795929 [Eh]
	 Correlation Energy        =      -2.1223379377445610 [Eh]
	 Total Energy              =    -515.0015791773693081 [Eh]

	 ================> DF-SCS-MP2 Energies <==================
	-----------------------------------------------------------
	 SCS Same-Spin Scale       =       0.3333333333333333 [-]
	 SCS Opposite-Spin Scale   =       1.2000000000000000 [-]
	 SCS Same-Spin Energy      =      -0.1700165969883228 [Eh]
	 SCS Opposite-Spin Energy  =      -1.9347457761355114 [Eh]
	 SCS Correlation Energy    =      -2.1047623731238341 [Eh]
	 SCS Total Energy          =    -514.9840036127486655 [Eh]
	-----------------------------------------------------------

  Dipole Moment: [D]
     X:    -0.6393      Y:     3.7413      Z:    -1.8114     Total:     4.2056

*** Psi4 exiting successfully. Buy a developer a beer!
