                               Psi4 1.3.2 release

  ==> Input File <==

--------------------------------------------------------------------------
#psi4
#
memory 32 gb

molecule  {
0 1
  O       -1.9705880     1.6613530    -0.1848000
  O        1.6688240    -1.2224340     0.6437850
  O       -3.2913740    -0.0479250     0.4948630
  N        0.2140730     0.2683100    -0.2698780
  C       -0.9657981    -0.4799960     0.1061885
  C       -1.1968270    -1.6816620    -0.8184860
  C        2.5789920     0.8068070    -0.3378900
  C        1.4773427    -0.1291224     0.0595894
  C       -2.1908320     0.3658730     0.1844680
  C        3.9506640     0.3320720     0.1153760
  H       -0.7838570    -0.8897150     1.1288390
  H        0.0750270     1.1966100    -0.6451490
  H       -1.3515420    -1.3283180    -1.8408860
  H       -0.3238960    -2.3346980    -0.7915570
  H       -2.0788080    -2.2361410    -0.4923840
  H        2.5479870     0.9167430    -1.4288930
  H        2.3554820     1.7990610     0.0733550
  H        4.1782080    -0.6474400    -0.3069900
  H        4.7194550     1.0404130    -0.2050590
  H        3.9903360     0.2413970     1.2016820
  H       -2.8462050     2.0977190    -0.1239210
units angstrom
no_reorient  #important for SAPT in psi4, default
symmetry c1  #important for SAPT in psi4, default
}

set PROPERTIES_ORIGIN ["COM"]
properties('MP2/aug-cc-pvtz', properties = ['dipole'])
--------------------------------------------------------------------------

    Molecular point group: c1
  Charge       = 0
  Multiplicity = 1
  Basis Set: AUG-CC-PVTZ
    Blend: AUG-CC-PVTZ
  Basis Set: (AUG-CC-PVTZ AUX)
    Blend: AUG-CC-PVTZ-JKFIT

    Orbital Energies [Eh]
    ---------------------

    Doubly Occupied:

       1A    -20.636717     2A    -20.564883     3A    -20.521836
       4A    -15.593304     5A    -11.406065     6A    -11.357889
       7A    -11.297910     8A    -11.248695     9A    -11.227419
      10A    -11.220774    11A     -1.479503    12A     -1.374573
      13A     -1.368820    14A     -1.243961    15A     -1.079561
      16A     -1.038364    17A     -0.930930    18A     -0.890957
      19A     -0.815020    20A     -0.792363    21A     -0.733444
      22A     -0.715004    23A     -0.683217    24A     -0.666711
      25A     -0.643176    26A     -0.631558    27A     -0.611404
      28A     -0.598618    29A     -0.577694    30A     -0.548521
      31A     -0.544408    32A     -0.525549    33A     -0.520008
      34A     -0.518716    35A     -0.498322    36A     -0.484334
      37A     -0.470014    38A     -0.429211    39A     -0.397834

  @DF-RHF Final Energy:  -512.88213695444983

   => Energetics <=

    Nuclear Repulsion Energy =            548.0117226106813177
    One-Electron Energy =               -1788.0131478413502464
    Two-Electron Energy =                 727.1192882762190948
    Total Energy =                       -512.8821369544498339
  Basis Set: (AUG-CC-PVTZ AUX)
    Blend: AUG-CC-PVTZ-RI
    Molecular point group: c1

    Geometry (in Angstrom), charge = 0, multiplicity = 1:

       Center              X                  Y                   Z               Mass
    ------------   -----------------  -----------------  -----------------  -----------------
         O           -1.970122404073     1.658366653310    -0.182943953566    15.994914619570
         O            1.669289595927    -1.225420346690     0.645641046434    15.994914619570
         O           -3.290908404073    -0.050911346690     0.496719046434    15.994914619570
         N            0.214538595927     0.265323653310    -0.268021953566    14.003074004430
         C           -0.965332504073    -0.482982346690     0.108044546434    12.000000000000
         C           -1.196361404073    -1.684648346690    -0.816629953566    12.000000000000
         C            2.579457595927     0.803820653310    -0.336033953566    12.000000000000
         C            1.477808295927    -0.132108746690     0.061445446434    12.000000000000
         C           -2.190366404073     0.362886653310     0.186324046434    12.000000000000
         C            3.951129595927     0.329085653310     0.117232046434    12.000000000000
         H           -0.783391404073    -0.892701346690     1.130695046434     1.007825032230
         H            0.075492595927     1.193623653310    -0.643292953566     1.007825032230
         H           -1.351076404073    -1.331304346690    -1.839029953566     1.007825032230
         H           -0.323430404073    -2.337684346690    -0.789700953566     1.007825032230
         H           -2.078342404073    -2.239127346690    -0.490527953566     1.007825032230
         H            2.548452595927     0.913756653310    -1.427036953566     1.007825032230
         H            2.355947595927     1.796074653310     0.075211046434     1.007825032230
         H            4.178673595927    -0.650426346690    -0.305133953566     1.007825032230
         H            4.719920595927     1.037426653310    -0.203202953566     1.007825032230
         H            3.990801595927     0.238410653310     1.203538046434     1.007825032230
         H           -2.845739404073     2.094732653310    -0.122064953566     1.007825032230

  Basis Set: AUG-CC-PVTZ
    Blend: AUG-CC-PVTZ
  Basis Set: (AUG-CC-PVTZ AUX)
    Blend: AUG-CC-PVTZ-JKFIT
	 Reference Energy          =    -512.8821369544498339 [Eh]
	 Singles Energy            =      -0.0000000000000000 [Eh]
	 Same-Spin Energy          =      -0.5120848337244102 [Eh]
	 Opposite-Spin Energy      =      -1.6162855199676902 [Eh]
	 Correlation Energy        =      -2.1283703536921004 [Eh]
	 Total Energy              =    -515.0105073081418823 [Eh]

	 ================> DF-SCS-MP2 Energies <==================
	-----------------------------------------------------------
	 SCS Same-Spin Scale       =       0.3333333333333333 [-]
	 SCS Opposite-Spin Scale   =       1.2000000000000000 [-]
	 SCS Same-Spin Energy      =      -0.1706949445748034 [Eh]
	 SCS Opposite-Spin Energy  =      -1.9395426239612281 [Eh]
	 SCS Correlation Energy    =      -2.1102375685360313 [Eh]
	 SCS Total Energy          =    -514.9923745229858696 [Eh]
	-----------------------------------------------------------

  Dipole Moment: [D]
     X:    -0.0536      Y:     3.4563      Z:    -1.9174     Total:     3.9529

*** Psi4 exiting successfully. Buy a developer a beer!
