                               Psi4 1.3.2 release

  ==> Input File <==

--------------------------------------------------------------------------
#psi4
#
memory 32 gb

molecule  {
0 1
  O       -1.9705880     1.6613530    -0.1848000
  O        1.6688240    -1.2224340     0.6437850
  O       -3.2913740    -0.0479250     0.4948630
  N        0.2140730     0.2683100    -0.2698780
  C       -1.0234021    -0.4690039     0.0976908
  C       -1.1968270    -1.6816620    -0.8184860
  C        2.5789920     0.8068070    -0.3378900
  C        1.4682490    -0.1481810     0.0706060
  C       -2.1908320     0.3658730     0.1844680
  C        3.9506640     0.3320720     0.1153760
  H       -0.7838570    -0.8897150     1.1288390
  H        0.0750270     1.1966100    -0.6451490
  H       -1.3515420    -1.3283180    -1.8408860
  H       -0.3502030    -2.3689089    -0.8289340
  H       -2.0788080    -2.2361410    -0.4923840
  H        2.5479870     0.9167430    -1.4288930
  H        2.3554820     1.7990610     0.0733550
  H        4.1782080    -0.6474400    -0.3069900
  H        4.7194550     1.0404130    -0.2050590
  H        3.9903360     0.2413970     1.2016820
  H       -2.8462050     2.0977190    -0.1239210
units angstrom
no_reorient  #important for SAPT in psi4, default
symmetry c1  #important for SAPT in psi4, default
}

set PROPERTIES_ORIGIN ["COM"]
properties('MP2/aug-cc-pvtz', properties = ['dipole'])
--------------------------------------------------------------------------

    Molecular point group: c1
  Charge       = 0
  Multiplicity = 1
  Basis Set: AUG-CC-PVTZ
    Blend: AUG-CC-PVTZ
  Basis Set: (AUG-CC-PVTZ AUX)
    Blend: AUG-CC-PVTZ-JKFIT

    Orbital Energies [Eh]
    ---------------------

    Doubly Occupied:

       1A    -20.637951     2A    -20.565334     3A    -20.522725
       4A    -15.590519     5A    -11.406005     6A    -11.355221
       7A    -11.299708     8A    -11.246581     9A    -11.230226
      10A    -11.218958    11A     -1.481842    12A     -1.377658
      13A     -1.375975    14A     -1.238046    15A     -1.079809
      16A     -1.039439    17A     -0.937434    18A     -0.887482
      19A     -0.812563    20A     -0.790397    21A     -0.733929
      22A     -0.716060    23A     -0.680799    24A     -0.668821
      25A     -0.640869    26A     -0.629922    27A     -0.613954
      28A     -0.599773    29A     -0.576081    30A     -0.556180
      31A     -0.543889    32A     -0.519994    33A     -0.519350
      34A     -0.516587    35A     -0.497748    36A     -0.485755
      37A     -0.474676    38A     -0.426688    39A     -0.398473

  @DF-RHF Final Energy:  -512.87676949346701

   => Energetics <=

    Nuclear Repulsion Energy =            548.0083619413561564
    One-Electron Energy =               -1787.9834228703484769
    Two-Electron Energy =                 727.0982914355251978
    Total Energy =                       -512.8767694934670089
  Basis Set: (AUG-CC-PVTZ AUX)
    Blend: AUG-CC-PVTZ-RI
    Molecular point group: c1

    Geometry (in Angstrom), charge = 0, multiplicity = 1:

       Center              X                  Y                   Z               Mass
    ------------   -----------------  -----------------  -----------------  -----------------
         O           -1.964422651796     1.659271548040    -0.182892650909    15.994914619570
         O            1.674989348204    -1.224515451960     0.645692349091    15.994914619570
         O           -3.285208651796    -0.050006451960     0.496770349091    15.994914619570
         N            0.220238348204     0.266228548040    -0.267970650909    14.003074004430
         C           -1.017236751796    -0.471085351960     0.099598149091    12.000000000000
         C           -1.190661651796    -1.683743451960    -0.816578650909    12.000000000000
         C            2.585157348204     0.804725548040    -0.335982650909    12.000000000000
         C            1.474414348204    -0.150262451960     0.072513349091    12.000000000000
         C           -2.184666651796     0.363791548040     0.186375349091    12.000000000000
         C            3.956829348204     0.329990548040     0.117283349091    12.000000000000
         H           -0.777691651796    -0.891796451960     1.130746349091     1.007825032230
         H            0.081192348204     1.194528548040    -0.643241650909     1.007825032230
         H           -1.345376651796    -1.330399451960    -1.838978650909     1.007825032230
         H           -0.344037651796    -2.370990351960    -0.827026650909     1.007825032230
         H           -2.072642651796    -2.238222451960    -0.490476650909     1.007825032230
         H            2.554152348204     0.914661548040    -1.426985650909     1.007825032230
         H            2.361647348204     1.796979548040     0.075262349091     1.007825032230
         H            4.184373348204    -0.649521451960    -0.305082650909     1.007825032230
         H            4.725620348204     1.038331548040    -0.203151650909     1.007825032230
         H            3.996501348204     0.239315548040     1.203589349091     1.007825032230
         H           -2.840039651796     2.095637548040    -0.122013650909     1.007825032230

  Basis Set: AUG-CC-PVTZ
    Blend: AUG-CC-PVTZ
  Basis Set: (AUG-CC-PVTZ AUX)
    Blend: AUG-CC-PVTZ-JKFIT
	 Reference Energy          =    -512.8767694934670089 [Eh]
	 Singles Energy            =      -0.0000000000000000 [Eh]
	 Same-Spin Energy          =      -0.5119475543948213 [Eh]
	 Opposite-Spin Energy      =      -1.6162024383463629 [Eh]
	 Correlation Energy        =      -2.1281499927411840 [Eh]
	 Total Energy              =    -515.0049194862082231 [Eh]

	 ================> DF-SCS-MP2 Energies <==================
	-----------------------------------------------------------
	 SCS Same-Spin Scale       =       0.3333333333333333 [-]
	 SCS Opposite-Spin Scale   =       1.2000000000000000 [-]
	 SCS Same-Spin Energy      =      -0.1706491847982738 [Eh]
	 SCS Opposite-Spin Energy  =      -1.9394429260156354 [Eh]
	 SCS Correlation Energy    =      -2.1100921108139090 [Eh]
	 SCS Total Energy          =    -514.9868616042808753 [Eh]
	-----------------------------------------------------------

  Dipole Moment: [D]
     X:    -0.1698      Y:     3.2916      Z:    -1.8854     Total:     3.7971

*** Psi4 exiting successfully. Buy a developer a beer!
