                               Psi4 1.3.2 release

  ==> Input File <==

--------------------------------------------------------------------------
#psi4
#
memory 32 gb

molecule  {
0 1
  O       -1.9705880     1.6613530    -0.1848000
  O        1.6688240    -1.2224340     0.6437850
  O       -3.2913740    -0.0479250     0.4948630
  N        0.2211211     0.2578615    -0.2691165
  C       -0.9510770    -0.4970410     0.1176100
  C       -1.1968270    -1.6816620    -0.8184860
  C        2.5789920     0.8068070    -0.3378900
  C        1.4682490    -0.1481810     0.0706060
  C       -2.1979107     0.3553255     0.1880368
  C        3.9506640     0.3320720     0.1153760
  H       -0.7838570    -0.8897150     1.1288390
  H        0.0750270     1.1966100    -0.6451490
  H       -1.3515420    -1.3283180    -1.8408860
  H       -0.3238960    -2.3346980    -0.7915570
  H       -2.0788080    -2.2361410    -0.4923840
  H        2.5479870     0.9167430    -1.4288930
  H        2.3554820     1.7990610     0.0733550
  H        4.1782080    -0.6474400    -0.3069900
  H        4.7194550     1.0404130    -0.2050590
  H        3.9903360     0.2413970     1.2016820
  H       -2.8462050     2.0977190    -0.1239210
units angstrom
no_reorient  #important for SAPT in psi4, default
symmetry c1  #important for SAPT in psi4, default
}

set PROPERTIES_ORIGIN ["COM"]
properties('MP2/aug-cc-pvtz', properties = ['dipole'])
--------------------------------------------------------------------------

    Molecular point group: c1
  Charge       = 0
  Multiplicity = 1
  Basis Set: AUG-CC-PVTZ
    Blend: AUG-CC-PVTZ
  Basis Set: (AUG-CC-PVTZ AUX)
    Blend: AUG-CC-PVTZ-JKFIT

    Orbital Energies [Eh]
    ---------------------

    Doubly Occupied:

       1A    -20.633593     2A    -20.567749     3A    -20.522448
       4A    -15.592697     5A    -11.405904     6A    -11.354185
       7A    -11.297556     8A    -11.246862     9A    -11.227184
      10A    -11.219192    11A     -1.477079    12A     -1.380740
      13A     -1.377937    14A     -1.246236    15A     -1.076042
      16A     -1.036179    17A     -0.927552    18A     -0.885354
      19A     -0.813903    20A     -0.792407    21A     -0.731175
      22A     -0.714584    23A     -0.682597    24A     -0.666051
      25A     -0.641284    26A     -0.634385    27A     -0.612276
      28A     -0.601517    29A     -0.580294    30A     -0.547642
      31A     -0.545217    32A     -0.523648    33A     -0.521477
      34A     -0.519468    35A     -0.500210    36A     -0.489358
      37A     -0.469469    38A     -0.427502    39A     -0.399998

  @DF-RHF Final Energy:  -512.88607651299162

   => Energetics <=

    Nuclear Repulsion Energy =            548.1258332969131288
    One-Electron Energy =               -1788.2459269290791326
    Two-Electron Energy =                 727.2340171191744957
    Total Energy =                       -512.8860765129916217
  Basis Set: (AUG-CC-PVTZ AUX)
    Blend: AUG-CC-PVTZ-RI
    Molecular point group: c1

    Geometry (in Angstrom), charge = 0, multiplicity = 1:

       Center              X                  Y                   Z               Mass
    ------------   -----------------  -----------------  -----------------  -----------------
         O           -1.970682666599     1.663233995759    -0.185168655293    15.994914619570
         O            1.668729333401    -1.220553004241     0.643416344707    15.994914619570
         O           -3.291468666599    -0.046044004241     0.494494344707    15.994914619570
         N            0.221026433401     0.259742495759    -0.269485155293    14.003074004430
         C           -0.951171666599    -0.495160004241     0.117241344707    12.000000000000
         C           -1.196921666599    -1.679781004241    -0.818854655293    12.000000000000
         C            2.578897333401     0.808687995759    -0.338258655293    12.000000000000
         C            1.468154333401    -0.146300004241     0.070237344707    12.000000000000
         C           -2.198005366599     0.357206495759     0.187668144707    12.000000000000
         C            3.950569333401     0.333952995759     0.115007344707    12.000000000000
         H           -0.783951666599    -0.887834004241     1.128470344707     1.007825032230
         H            0.074932333401     1.198490995759    -0.645517655293     1.007825032230
         H           -1.351636666599    -1.326437004241    -1.841254655293     1.007825032230
         H           -0.323990666599    -2.332817004241    -0.791925655293     1.007825032230
         H           -2.078902666599    -2.234260004241    -0.492752655293     1.007825032230
         H            2.547892333401     0.918623995759    -1.429261655293     1.007825032230
         H            2.355387333401     1.800941995759     0.072986344707     1.007825032230
         H            4.178113333401    -0.645559004241    -0.307358655293     1.007825032230
         H            4.719360333401     1.042293995759    -0.205427655293     1.007825032230
         H            3.990241333401     0.243277995759     1.201313344707     1.007825032230
         H           -2.846299666599     2.099599995759    -0.124289655293     1.007825032230

  Basis Set: AUG-CC-PVTZ
    Blend: AUG-CC-PVTZ
  Basis Set: (AUG-CC-PVTZ AUX)
    Blend: AUG-CC-PVTZ-JKFIT
	 Reference Energy          =    -512.8860765129916217 [Eh]
	 Singles Energy            =      -0.0000000000000000 [Eh]
	 Same-Spin Energy          =      -0.5112426491759291 [Eh]
	 Opposite-Spin Energy      =      -1.6147670770643940 [Eh]
	 Correlation Energy        =      -2.1260097262403232 [Eh]
	 Total Energy              =    -515.0120862392319623 [Eh]

	 ================> DF-SCS-MP2 Energies <==================
	-----------------------------------------------------------
	 SCS Same-Spin Scale       =       0.3333333333333333 [-]
	 SCS Opposite-Spin Scale   =       1.2000000000000000 [-]
	 SCS Same-Spin Energy      =      -0.1704142163919763 [Eh]
	 SCS Opposite-Spin Energy  =      -1.9377204924772728 [Eh]
	 SCS Correlation Energy    =      -2.1081347088692493 [Eh]
	 SCS Total Energy          =    -514.9942112218608372 [Eh]
	-----------------------------------------------------------

  Dipole Moment: [D]
     X:    -0.1987      Y:     3.3120      Z:    -1.8396     Total:     3.7938

*** Psi4 exiting successfully. Buy a developer a beer!
