                               Psi4 1.3.2 release

  ==> Input File <==

--------------------------------------------------------------------------
#psi4
#
memory 32 gb

molecule  {
0 1
  O       -1.9705880     1.6613530    -0.1848000
  O        1.6049826    -1.2323390     0.6439204
  O       -3.2913740    -0.0479250     0.4948630
  N        0.2140730     0.2683100    -0.2698780
  C       -0.9510770    -0.4970410     0.1176100
  C       -1.1968270    -1.6816620    -0.8184860
  C        2.5233905     0.8554880    -0.3675103
  C        1.4682490    -0.1481810     0.0706060
  C       -2.1908320     0.3658730     0.1844680
  C        3.9506640     0.3320720     0.1153760
  H       -0.7838570    -0.8897150     1.1288390
  H        0.0750270     1.1966100    -0.6451490
  H       -1.3515420    -1.3283180    -1.8408860
  H       -0.3238960    -2.3346980    -0.7915570
  H       -2.0788080    -2.2361410    -0.4923840
  H        2.5479870     0.9167430    -1.4288930
  H        2.3554820     1.7990610     0.0733550
  H        4.1782080    -0.6474400    -0.3069900
  H        4.7194550     1.0404130    -0.2050590
  H        3.9903360     0.2413970     1.2016820
  H       -2.8462050     2.0977190    -0.1239210
units angstrom
no_reorient  #important for SAPT in psi4, default
symmetry c1  #important for SAPT in psi4, default
}

set PROPERTIES_ORIGIN ["COM"]
properties('MP2/aug-cc-pvtz', properties = ['dipole'])
--------------------------------------------------------------------------

    Molecular point group: c1
  Charge       = 0
  Multiplicity = 1
  Basis Set: AUG-CC-PVTZ
    Blend: AUG-CC-PVTZ
  Basis Set: (AUG-CC-PVTZ AUX)
    Blend: AUG-CC-PVTZ-JKFIT

    Orbital Energies [Eh]
    ---------------------

    Doubly Occupied:

       1A    -20.635135     2A    -20.562946     3A    -20.525822
       4A    -15.587492     5A    -11.403884     6A    -11.356814
       7A    -11.294171     8A    -11.247293     9A    -11.224945
      10A    -11.224894    11A     -1.477131    12A     -1.382277
      13A     -1.372302    14A     -1.242394    15A     -1.074642
      16A     -1.028926    17A     -0.926198    18A     -0.887663
      19A     -0.815342    20A     -0.793574    21A     -0.732120
      22A     -0.713246    23A     -0.681660    24A     -0.664748
      25A     -0.649341    26A     -0.633658    27A     -0.608642
      28A     -0.602581    29A     -0.579443    30A     -0.544884
      31A     -0.541860    32A     -0.526782    33A     -0.523352
      34A     -0.506117    35A     -0.502531    36A     -0.490259
      37A     -0.466433    38A     -0.430468    39A     -0.397765

  @DF-RHF Final Energy:  -512.87870639019366

   => Energetics <=

    Nuclear Repulsion Energy =            548.2649895855503246
    One-Electron Energy =               -1788.5679170313621853
    Two-Electron Energy =                 727.4242210556180908
    Total Energy =                       -512.8787063901936563
  Basis Set: (AUG-CC-PVTZ AUX)
    Blend: AUG-CC-PVTZ-RI
    Molecular point group: c1

    Geometry (in Angstrom), charge = 0, multiplicity = 1:

       Center              X                  Y                   Z               Mass
    ------------   -----------------  -----------------  -----------------  -----------------
         O           -1.958949980791     1.658418356819    -0.182364795685    15.994914619570
         O            1.616620619209    -1.235273643181     0.646355604315    15.994914619570
         O           -3.279735980791    -0.050859643181     0.497298204315    15.994914619570
         N            0.225711019209     0.265375356819    -0.267442795685    14.003074004430
         C           -0.939438980791    -0.499975643181     0.120045204315    12.000000000000
         C           -1.185188980791    -1.684596643181    -0.816050795685    12.000000000000
         C            2.535028519209     0.852553356819    -0.365075095685    12.000000000000
         C            1.479887019209    -0.151115643181     0.073041204315    12.000000000000
         C           -2.179193980791     0.362938356819     0.186903204315    12.000000000000
         C            3.962302019209     0.329137356819     0.117811204315    12.000000000000
         H           -0.772218980791    -0.892649643181     1.131274204315     1.007825032230
         H            0.086665019209     1.193675356819    -0.642713795685     1.007825032230
         H           -1.339903980791    -1.331252643181    -1.838450795685     1.007825032230
         H           -0.312257980791    -2.337632643181    -0.789121795685     1.007825032230
         H           -2.067169980791    -2.239075643181    -0.489948795685     1.007825032230
         H            2.559625019209     0.913808356819    -1.426457795685     1.007825032230
         H            2.367120019209     1.796126356819     0.075790204315     1.007825032230
         H            4.189846019209    -0.650374643181    -0.304554795685     1.007825032230
         H            4.731093019209     1.037478356819    -0.202623795685     1.007825032230
         H            4.001974019209     0.238462356819     1.204117204315     1.007825032230
         H           -2.834566980791     2.094784356819    -0.121485795685     1.007825032230

  Basis Set: AUG-CC-PVTZ
    Blend: AUG-CC-PVTZ
  Basis Set: (AUG-CC-PVTZ AUX)
    Blend: AUG-CC-PVTZ-JKFIT
	 Reference Energy          =    -512.8787063901936563 [Eh]
	 Singles Energy            =      -0.0000000000000000 [Eh]
	 Same-Spin Energy          =      -0.5113692332754687 [Eh]
	 Opposite-Spin Energy      =      -1.6154670694200666 [Eh]
	 Correlation Energy        =      -2.1268363026955353 [Eh]
	 Total Energy              =    -515.0055426928892075 [Eh]

	 ================> DF-SCS-MP2 Energies <==================
	-----------------------------------------------------------
	 SCS Same-Spin Scale       =       0.3333333333333333 [-]
	 SCS Opposite-Spin Scale   =       1.2000000000000000 [-]
	 SCS Same-Spin Energy      =      -0.1704564110918229 [Eh]
	 SCS Opposite-Spin Energy  =      -1.9385604833040797 [Eh]
	 SCS Correlation Energy    =      -2.1090168943959027 [Eh]
	 SCS Total Energy          =    -514.9877232845896060 [Eh]
	-----------------------------------------------------------

  Dipole Moment: [D]
     X:     0.1026      Y:     3.4120      Z:    -1.8634     Total:     3.8891

*** Psi4 exiting successfully. Buy a developer a beer!
