                               Psi4 1.3.2 release

  ==> Input File <==

--------------------------------------------------------------------------
#psi4
#
memory 32 gb

molecule  {
0 1
  O       -2.0169620     1.6701921    -0.1783759
  O        1.6688240    -1.2224340     0.6437850
  O       -3.3070960    -0.0091059     0.4879677
  N        0.2140730     0.2683100    -0.2698780
  C       -0.9510770    -0.4970410     0.1176100
  C       -1.1968270    -1.6816620    -0.8184860
  C        2.5789920     0.8068070    -0.3378900
  C        1.4682490    -0.1481810     0.0706060
  C       -2.1908320     0.3658730     0.1844680
  C        3.9506640     0.3320720     0.1153760
  H       -0.7838570    -0.8897150     1.1288390
  H        0.0750270     1.1966100    -0.6451490
  H       -1.3515420    -1.3283180    -1.8408860
  H       -0.3238960    -2.3346980    -0.7915570
  H       -2.0788080    -2.2361410    -0.4923840
  H        2.5479870     0.9167430    -1.4288930
  H        2.3554820     1.7990610     0.0733550
  H        4.1782080    -0.6474400    -0.3069900
  H        4.7194550     1.0404130    -0.2050590
  H        3.9903360     0.2413970     1.2016820
  H       -2.8462050     2.0977190    -0.1239210
units angstrom
no_reorient  #important for SAPT in psi4, default
symmetry c1  #important for SAPT in psi4, default
}

set PROPERTIES_ORIGIN ["COM"]
properties('MP2/aug-cc-pvtz', properties = ['dipole'])
--------------------------------------------------------------------------

    Molecular point group: c1
  Charge       = 0
  Multiplicity = 1
  Basis Set: AUG-CC-PVTZ
    Blend: AUG-CC-PVTZ
  Basis Set: (AUG-CC-PVTZ AUX)
    Blend: AUG-CC-PVTZ-JKFIT

    Orbital Energies [Eh]
    ---------------------

    Doubly Occupied:

       1A    -20.626439     2A    -20.561545     3A    -20.526249
       4A    -15.594034     5A    -11.405386     6A    -11.357599
       7A    -11.301575     8A    -11.248305     9A    -11.229023
      10A    -11.220379    11A     -1.482975    12A     -1.382218
      13A     -1.370601    14A     -1.248566    15A     -1.077676
      16A     -1.037682    17A     -0.932216    18A     -0.888376
      19A     -0.824717    20A     -0.793785    21A     -0.733114
      22A     -0.713984    23A     -0.684210    24A     -0.666581
      25A     -0.642182    26A     -0.633465    27A     -0.610483
      28A     -0.604302    29A     -0.582916    30A     -0.549193
      31A     -0.545312    32A     -0.525729    33A     -0.522258
      34A     -0.520743    35A     -0.496770    36A     -0.488046
      37A     -0.468140    38A     -0.429812    39A     -0.402266

  @DF-RHF Final Energy:  -512.88690345657858

   => Energetics <=

    Nuclear Repulsion Energy =            547.5790864000136935
    One-Electron Energy =               -1787.0742732742394310
    Two-Electron Energy =                 726.6082834176471579
    Total Energy =                       -512.8869034565785796
  Basis Set: (AUG-CC-PVTZ AUX)
    Blend: AUG-CC-PVTZ-RI
    Molecular point group: c1

    Geometry (in Angstrom), charge = 0, multiplicity = 1:

       Center              X                  Y                   Z               Mass
    ------------   -----------------  -----------------  -----------------  -----------------
         O           -2.010115577049     1.664937628890    -0.178323902457    15.994914619570
         O            1.675670422951    -1.227688471110     0.643836997543    15.994914619570
         O           -3.300249577049    -0.014360371110     0.488019697543    15.994914619570
         N            0.220919422951     0.263055528890    -0.269826002457    14.003074004430
         C           -0.944230577049    -0.502295471110     0.117661997543    12.000000000000
         C           -1.189980577049    -1.686916471110    -0.818434002457    12.000000000000
         C            2.585838422951     0.801552528890    -0.337838002457    12.000000000000
         C            1.475095422951    -0.153435471110     0.070657997543    12.000000000000
         C           -2.183985577049     0.360618528890     0.184519997543    12.000000000000
         C            3.957510422951     0.326817528890     0.115427997543    12.000000000000
         H           -0.777010577049    -0.894969471110     1.128890997543     1.007825032230
         H            0.081873422951     1.191355528890    -0.645097002457     1.007825032230
         H           -1.344695577049    -1.333572471110    -1.840834002457     1.007825032230
         H           -0.317049577049    -2.339952471110    -0.791505002457     1.007825032230
         H           -2.071961577049    -2.241395471110    -0.492332002457     1.007825032230
         H            2.554833422951     0.911488528890    -1.428841002457     1.007825032230
         H            2.362328422951     1.793806528890     0.073406997543     1.007825032230
         H            4.185054422951    -0.652694471110    -0.306938002457     1.007825032230
         H            4.726301422951     1.035158528890    -0.205007002457     1.007825032230
         H            3.997182422951     0.236142528890     1.201733997543     1.007825032230
         H           -2.839358577049     2.092464528890    -0.123869002457     1.007825032230

  Basis Set: AUG-CC-PVTZ
    Blend: AUG-CC-PVTZ
  Basis Set: (AUG-CC-PVTZ AUX)
    Blend: AUG-CC-PVTZ-JKFIT
	 Reference Energy          =    -512.8869034565785796 [Eh]
	 Singles Energy            =      -0.0000000000000000 [Eh]
	 Same-Spin Energy          =      -0.5102779198500049 [Eh]
	 Opposite-Spin Energy      =      -1.6128498266703668 [Eh]
	 Correlation Energy        =      -2.1231277465203720 [Eh]
	 Total Energy              =    -515.0100312030989471 [Eh]

	 ================> DF-SCS-MP2 Energies <==================
	-----------------------------------------------------------
	 SCS Same-Spin Scale       =       0.3333333333333333 [-]
	 SCS Opposite-Spin Scale   =       1.2000000000000000 [-]
	 SCS Same-Spin Energy      =      -0.1700926399500016 [Eh]
	 SCS Opposite-Spin Energy  =      -1.9354197920044400 [Eh]
	 SCS Correlation Energy    =      -2.1055124319544416 [Eh]
	 SCS Total Energy          =    -514.9924158885330598 [Eh]
	-----------------------------------------------------------

  Dipole Moment: [D]
     X:     0.0979      Y:     3.1981      Z:    -1.8619     Total:     3.7019

*** Psi4 exiting successfully. Buy a developer a beer!
