                               Psi4 1.3.2 release

  ==> Input File <==

--------------------------------------------------------------------------
#psi4
#
memory 32 gb

molecule  {
0 1
  O       -1.9705880     1.6613530    -0.1848000
  O        1.6688240    -1.2224340     0.6437850
  O       -3.2913740    -0.0479250     0.4948630
  N        0.2140730     0.2683100    -0.2698780
  C       -0.9510770    -0.4970410     0.1176100
  C       -1.1968270    -1.6816620    -0.8184860
  C        2.5789920     0.8068070    -0.3378900
  C        1.4682490    -0.1481810     0.0706060
  C       -2.2368691     0.3763810     0.1908009
  C        3.9506640     0.3320720     0.1153760
  H       -0.7838570    -0.8897150     1.1288390
  H        0.0750270     1.1966100    -0.6451490
  H       -1.3515420    -1.3283180    -1.8408860
  H       -0.3238960    -2.3346980    -0.7915570
  H       -2.0788080    -2.2361410    -0.4923840
  H        2.5479870     0.9167430    -1.4288930
  H        2.3554820     1.7990610     0.0733550
  H        4.1782080    -0.6474400    -0.3069900
  H        4.7194550     1.0404130    -0.2050590
  H        3.9903360     0.2413970     1.2016820
  H       -2.8596721     2.0679416    -0.1137938
units angstrom
no_reorient  #important for SAPT in psi4, default
symmetry c1  #important for SAPT in psi4, default
}

set PROPERTIES_ORIGIN ["COM"]
properties('MP2/aug-cc-pvtz', properties = ['dipole'])
--------------------------------------------------------------------------

    Molecular point group: c1
  Charge       = 0
  Multiplicity = 1
  Basis Set: AUG-CC-PVTZ
    Blend: AUG-CC-PVTZ
  Basis Set: (AUG-CC-PVTZ AUX)
    Blend: AUG-CC-PVTZ-JKFIT

    Orbital Energies [Eh]
    ---------------------

    Doubly Occupied:

       1A    -20.636593     2A    -20.571220     3A    -20.522602
       4A    -15.589229     5A    -11.401938     6A    -11.353980
       7A    -11.294424     8A    -11.245893     9A    -11.223986
      10A    -11.218513    11A     -1.490439    12A     -1.396233
      13A     -1.378338    14A     -1.242119    15A     -1.070677
      16A     -1.030999    17A     -0.920913    18A     -0.882154
      19A     -0.811313    20A     -0.791178    21A     -0.731700
      22A     -0.720736    23A     -0.681541    24A     -0.668016
      25A     -0.643983    26A     -0.638330    27A     -0.613600
      28A     -0.601669    29A     -0.578958    30A     -0.546671
      31A     -0.544658    32A     -0.522912    33A     -0.521482
      34A     -0.518838    35A     -0.506869    36A     -0.489359
      37A     -0.464781    38A     -0.426216    39A     -0.397406

  @DF-RHF Final Energy:  -512.88541115098678

   => Energetics <=

    Nuclear Repulsion Energy =            547.9193888754284671
    One-Electron Energy =               -1787.8286672511917459
    Two-Electron Energy =                 727.0238672247764953
    Total Energy =                       -512.8854111509867835
  Basis Set: (AUG-CC-PVTZ AUX)
    Blend: AUG-CC-PVTZ-RI
    Molecular point group: c1

    Geometry (in Angstrom), charge = 0, multiplicity = 1:

       Center              X                  Y                   Z               Mass
    ------------   -----------------  -----------------  -----------------  -----------------
         O           -1.966686300791     1.660690693850    -0.185394142485    15.994914619570
         O            1.672725699209    -1.223096306150     0.643190857515    15.994914619570
         O           -3.287472300791    -0.048587306150     0.494268857515    15.994914619570
         N            0.217974699209     0.267647693850    -0.270472142485    14.003074004430
         C           -0.947175300791    -0.497703306150     0.117015857515    12.000000000000
         C           -1.192925300791    -1.682324306150    -0.819080142485    12.000000000000
         C            2.582893699209     0.806144693850    -0.338484142485    12.000000000000
         C            1.472150699209    -0.148843306150     0.070011857515    12.000000000000
         C           -2.232967400791     0.375718693850     0.190206757515    12.000000000000
         C            3.954565699209     0.331409693850     0.114781857515    12.000000000000
         H           -0.779955300791    -0.890377306150     1.128244857515     1.007825032230
         H            0.078928699209     1.195947693850    -0.645743142485     1.007825032230
         H           -1.347640300791    -1.328980306150    -1.841480142485     1.007825032230
         H           -0.319994300791    -2.335360306150    -0.792151142485     1.007825032230
         H           -2.074906300791    -2.236803306150    -0.492978142485     1.007825032230
         H            2.551888699209     0.916080693850    -1.429487142485     1.007825032230
         H            2.359383699209     1.798398693850     0.072760857515     1.007825032230
         H            4.182109699209    -0.648102306150    -0.307584142485     1.007825032230
         H            4.723356699209     1.039750693850    -0.205653142485     1.007825032230
         H            3.994237699209     0.240734693850     1.201087857515     1.007825032230
         H           -2.855770400791     2.067279293850    -0.114387942485     1.007825032230

  Basis Set: AUG-CC-PVTZ
    Blend: AUG-CC-PVTZ
  Basis Set: (AUG-CC-PVTZ AUX)
    Blend: AUG-CC-PVTZ-JKFIT
	 Reference Energy          =    -512.8854111509867835 [Eh]
	 Singles Energy            =      -0.0000000000000000 [Eh]
	 Same-Spin Energy          =      -0.5105332205910291 [Eh]
	 Opposite-Spin Energy      =      -1.6133791222739671 [Eh]
	 Correlation Energy        =      -2.1239123428649962 [Eh]
	 Total Energy              =    -515.0093234938517526 [Eh]

	 ================> DF-SCS-MP2 Energies <==================
	-----------------------------------------------------------
	 SCS Same-Spin Scale       =       0.3333333333333333 [-]
	 SCS Opposite-Spin Scale   =       1.2000000000000000 [-]
	 SCS Same-Spin Energy      =      -0.1701777401970097 [Eh]
	 SCS Opposite-Spin Energy  =      -1.9360549467287604 [Eh]
	 SCS Correlation Energy    =      -2.1062326869257699 [Eh]
	 SCS Total Energy          =    -514.9916438379125339 [Eh]
	-----------------------------------------------------------

  Dipole Moment: [D]
     X:    -0.4020      Y:     3.3668      Z:    -1.7834     Total:     3.8311

*** Psi4 exiting successfully. Buy a developer a beer!
