                               Psi4 1.3.2 release

  ==> Input File <==

--------------------------------------------------------------------------
#psi4
#
memory 32 gb

molecule  {
0 1
  O       -1.9705880     1.6613530    -0.1848000
  O        1.6688240    -1.2224340     0.6437850
  O       -3.2913740    -0.0479250     0.4948630
  N        0.2140730     0.2683100    -0.2698780
  C       -0.9510770    -0.4970410     0.1176100
  C       -1.1909276    -1.7145762    -0.7768594
  C        2.5789920     0.8068070    -0.3378900
  C        1.4682490    -0.1481810     0.0706060
  C       -2.1908320     0.3658730     0.1844680
  C        3.9506640     0.3320720     0.1153760
  H       -0.7885232    -0.9251782     1.1151140
  H        0.0750270     1.1966100    -0.6451490
  H       -1.3515420    -1.3283180    -1.8408860
  H       -0.3238960    -2.3346980    -0.7915570
  H       -2.0788080    -2.2361410    -0.4923840
  H        2.5479870     0.9167430    -1.4288930
  H        2.3554820     1.7990610     0.0733550
  H        4.1782080    -0.6474400    -0.3069900
  H        4.7194550     1.0404130    -0.2050590
  H        3.9903360     0.2413970     1.2016820
  H       -2.8462050     2.0977190    -0.1239210
units angstrom
no_reorient  #important for SAPT in psi4, default
symmetry c1  #important for SAPT in psi4, default
}

set PROPERTIES_ORIGIN ["COM"]
properties('MP2/aug-cc-pvtz', properties = ['dipole'])
--------------------------------------------------------------------------

    Molecular point group: c1
  Charge       = 0
  Multiplicity = 1
  Basis Set: AUG-CC-PVTZ
    Blend: AUG-CC-PVTZ
  Basis Set: (AUG-CC-PVTZ AUX)
    Blend: AUG-CC-PVTZ-JKFIT

    Orbital Energies [Eh]
    ---------------------

    Doubly Occupied:

       1A    -20.637003     2A    -20.564933     3A    -20.525087
       4A    -15.592657     5A    -11.406572     6A    -11.356350
       7A    -11.297117     8A    -11.247525     9A    -11.227428
      10A    -11.219768    11A     -1.478977    12A     -1.380995
      13A     -1.374165    14A     -1.246224    15A     -1.075827
      16A     -1.036273    17A     -0.928946    18A     -0.886157
      19A     -0.816250    20A     -0.793080    21A     -0.731758
      22A     -0.715138    23A     -0.683034    24A     -0.666239
      25A     -0.641767    26A     -0.634281    27A     -0.611456
      28A     -0.603283    29A     -0.581508    30A     -0.557096
      31A     -0.542911    32A     -0.526092    33A     -0.520414
      34A     -0.512392    35A     -0.498679    36A     -0.486203
      37A     -0.467948    38A     -0.428864    39A     -0.400206

  @DF-RHF Final Energy:  -512.88275964231514

   => Energetics <=

    Nuclear Repulsion Energy =            547.9040013500831492
    One-Electron Energy =               -1787.7723158007752318
    Two-Electron Energy =                 726.9855548083770600
    Total Energy =                       -512.8827596423151363
  Basis Set: (AUG-CC-PVTZ AUX)
    Blend: AUG-CC-PVTZ-RI
    Molecular point group: c1

    Geometry (in Angstrom), charge = 0, multiplicity = 1:

       Center              X                  Y                   Z               Mass
    ------------   -----------------  -----------------  -----------------  -----------------
         O           -1.971043444267     1.664321923976    -0.188147811991    15.994914619570
         O            1.668368555733    -1.219465076024     0.640437188009    15.994914619570
         O           -3.291829444267    -0.044956076024     0.491515188009    15.994914619570
         N            0.213617555733     0.271278923976    -0.273225811991    14.003074004430
         C           -0.951532444267    -0.494072076024     0.114262188009    12.000000000000
         C           -1.191383044267    -1.711607276024    -0.780207211991    12.000000000000
         C            2.578536555733     0.809775923976    -0.341237811991    12.000000000000
         C            1.467793555733    -0.145212076024     0.067258188009    12.000000000000
         C           -2.191287444267     0.368841923976     0.181120188009    12.000000000000
         C            3.950208555733     0.335040923976     0.112028188009    12.000000000000
         H           -0.788978644267    -0.922209276024     1.111766188009     1.007825032230
         H            0.074571555733     1.199578923976    -0.648496811991     1.007825032230
         H           -1.351997444267    -1.325349076024    -1.844233811991     1.007825032230
         H           -0.324351444267    -2.331729076024    -0.794904811991     1.007825032230
         H           -2.079263444267    -2.233172076024    -0.495731811991     1.007825032230
         H            2.547531555733     0.919711923976    -1.432240811991     1.007825032230
         H            2.355026555733     1.802029923976     0.070007188009     1.007825032230
         H            4.177752555733    -0.644471076024    -0.310337811991     1.007825032230
         H            4.718999555733     1.043381923976    -0.208406811991     1.007825032230
         H            3.989880555733     0.244365923976     1.198334188009     1.007825032230
         H           -2.846660444267     2.100687923976    -0.127268811991     1.007825032230

  Basis Set: AUG-CC-PVTZ
    Blend: AUG-CC-PVTZ
  Basis Set: (AUG-CC-PVTZ AUX)
    Blend: AUG-CC-PVTZ-JKFIT
	 Reference Energy          =    -512.8827596423151363 [Eh]
	 Singles Energy            =      -0.0000000000000000 [Eh]
	 Same-Spin Energy          =      -0.5113292541378457 [Eh]
	 Opposite-Spin Energy      =      -1.6150095592918094 [Eh]
	 Correlation Energy        =      -2.1263388134296553 [Eh]
	 Total Energy              =    -515.0090984557448337 [Eh]

	 ================> DF-SCS-MP2 Energies <==================
	-----------------------------------------------------------
	 SCS Same-Spin Scale       =       0.3333333333333333 [-]
	 SCS Opposite-Spin Scale   =       1.2000000000000000 [-]
	 SCS Same-Spin Energy      =      -0.1704430847126152 [Eh]
	 SCS Opposite-Spin Energy  =      -1.9380114711501712 [Eh]
	 SCS Correlation Energy    =      -2.1084545558627865 [Eh]
	 SCS Total Energy          =    -514.9912141981778859 [Eh]
	-----------------------------------------------------------

  Dipole Moment: [D]
     X:    -0.0726      Y:     3.3542      Z:    -1.8308     Total:     3.8220

*** Psi4 exiting successfully. Buy a developer a beer!
