                               Psi4 1.3.2 release

  ==> Input File <==

--------------------------------------------------------------------------
#psi4
#
memory 32 gb

molecule  {
0 1
  O       -1.9705880     1.6613530    -0.1848000
  O        1.6688240    -1.2224340     0.6437850
  O       -3.2913740    -0.0479250     0.4948630
  N        0.2140730     0.2683100    -0.2698780
  C       -0.9510770    -0.4970410     0.1176100
  C       -1.1982553    -1.6732063    -0.8287164
  C        2.5789920     0.8068070    -0.3378900
  C        1.4682490    -0.1481810     0.0706060
  C       -2.1908320     0.3658730     0.1844680
  C        3.9506640     0.3320720     0.1153760
  H       -0.7827221    -0.8807727     1.1320784
  H        0.0750270     1.1966100    -0.6451490
  H       -1.3515420    -1.3283180    -1.8408860
  H       -0.3238960    -2.3346980    -0.7915570
  H       -2.0788080    -2.2361410    -0.4923840
  H        2.5479870     0.9167430    -1.4288930
  H        2.3554820     1.7990610     0.0733550
  H        4.1782080    -0.6474400    -0.3069900
  H        4.7194550     1.0404130    -0.2050590
  H        3.9903360     0.2413970     1.2016820
  H       -2.8462050     2.0977190    -0.1239210
units angstrom
no_reorient  #important for SAPT in psi4, default
symmetry c1  #important for SAPT in psi4, default
}

set PROPERTIES_ORIGIN ["COM"]
properties('MP2/aug-cc-pvtz', properties = ['dipole'])
--------------------------------------------------------------------------

    Molecular point group: c1
  Charge       = 0
  Multiplicity = 1
  Basis Set: AUG-CC-PVTZ
    Blend: AUG-CC-PVTZ
  Basis Set: (AUG-CC-PVTZ AUX)
    Blend: AUG-CC-PVTZ-JKFIT

    Orbital Energies [Eh]
    ---------------------

    Doubly Occupied:

       1A    -20.636545     2A    -20.564528     3A    -20.524505
       4A    -15.591378     5A    -11.405566     6A    -11.355810
       7A    -11.297273     8A    -11.247203     9A    -11.226874
      10A    -11.219533    11A     -1.478614    12A     -1.380471
      13A     -1.373781    14A     -1.246094    15A     -1.075489
      16A     -1.035681    17A     -0.928222    18A     -0.885875
      19A     -0.817210    20A     -0.792553    21A     -0.730911
      22A     -0.714706    23A     -0.682749    24A     -0.666042
      25A     -0.641379    26A     -0.633976    27A     -0.610719
      28A     -0.602559    29A     -0.581398    30A     -0.546204
      31A     -0.543800    32A     -0.524195    33A     -0.522228
      34A     -0.519937    35A     -0.497518    36A     -0.488911
      37A     -0.468401    38A     -0.428070    39A     -0.400118

  @DF-RHF Final Energy:  -512.88578924471881

   => Energetics <=

    Nuclear Repulsion Energy =            548.0692208851230589
    One-Electron Energy =               -1788.1359768679126319
    Two-Electron Energy =                 727.1809667380707651
    Total Energy =                       -512.8857892447188078
  Basis Set: (AUG-CC-PVTZ AUX)
    Blend: AUG-CC-PVTZ-RI
    Molecular point group: c1

    Geometry (in Angstrom), charge = 0, multiplicity = 1:

       Center              X                  Y                   Z               Mass
    ------------   -----------------  -----------------  -----------------  -----------------
         O           -1.970477622916     1.660591467982    -0.183976235427    15.994914619570
         O            1.668934377084    -1.223195532018     0.644608764573    15.994914619570
         O           -3.291263622916    -0.048686532018     0.495686764573    15.994914619570
         N            0.214183377084     0.267548467982    -0.269054235427    14.003074004430
         C           -0.950966622916    -0.497802532018     0.118433764573    12.000000000000
         C           -1.198144922916    -1.673967832018    -0.827892635427    12.000000000000
         C            2.579102377084     0.806045467982    -0.337066235427    12.000000000000
         C            1.468359377084    -0.148942532018     0.071429764573    12.000000000000
         C           -2.190721622916     0.365111467982     0.185291764573    12.000000000000
         C            3.950774377084     0.331310467982     0.116199764573    12.000000000000
         H           -0.782611722916    -0.881534232018     1.132902164573     1.007825032230
         H            0.075137377084     1.195848467982    -0.644325235427     1.007825032230
         H           -1.351431622916    -1.329079532018    -1.840062235427     1.007825032230
         H           -0.323785622916    -2.335459532018    -0.790733235427     1.007825032230
         H           -2.078697622916    -2.236902532018    -0.491560235427     1.007825032230
         H            2.548097377084     0.915981467982    -1.428069235427     1.007825032230
         H            2.355592377084     1.798299467982     0.074178764573     1.007825032230
         H            4.178318377084    -0.648201532018    -0.306166235427     1.007825032230
         H            4.719565377084     1.039651467982    -0.204235235427     1.007825032230
         H            3.990446377084     0.240635467982     1.202505764573     1.007825032230
         H           -2.846094622916     2.096957467982    -0.123097235427     1.007825032230

  Basis Set: AUG-CC-PVTZ
    Blend: AUG-CC-PVTZ
  Basis Set: (AUG-CC-PVTZ AUX)
    Blend: AUG-CC-PVTZ-JKFIT
	 Reference Energy          =    -512.8857892447188078 [Eh]
	 Singles Energy            =      -0.0000000000000000 [Eh]
	 Same-Spin Energy          =      -0.5113436161657585 [Eh]
	 Opposite-Spin Energy      =      -1.6149697023585439 [Eh]
	 Correlation Energy        =      -2.1263133185243026 [Eh]
	 Total Energy              =    -515.0121025632431611 [Eh]

	 ================> DF-SCS-MP2 Energies <==================
	-----------------------------------------------------------
	 SCS Same-Spin Scale       =       0.3333333333333333 [-]
	 SCS Opposite-Spin Scale   =       1.2000000000000000 [-]
	 SCS Same-Spin Energy      =      -0.1704478720552528 [Eh]
	 SCS Opposite-Spin Energy  =      -1.9379636428302525 [Eh]
	 SCS Correlation Energy    =      -2.1084115148855052 [Eh]
	 SCS Total Energy          =    -514.9942007596042686 [Eh]
	-----------------------------------------------------------

  Dipole Moment: [D]
     X:    -0.0971      Y:     3.3723      Z:    -1.8654     Total:     3.8551

*** Psi4 exiting successfully. Buy a developer a beer!
