                               Psi4 1.3.2 release

  ==> Input File <==

--------------------------------------------------------------------------
#psi4
#
memory 32 gb

molecule  {
0 1
  O       -1.9705880     1.6613530    -0.1848000
  O        1.6475960    -1.2260643     0.6440048
  O       -3.2913740    -0.0479250     0.4948630
  N        0.2140730     0.2683100    -0.2698780
  C       -0.9510770    -0.4970410     0.1176100
  C       -1.1968270    -1.6816620    -0.8184860
  C        2.5607891     0.8233316    -0.3478919
  C        1.4682490    -0.1481810     0.0706060
  C       -2.1908320     0.3658730     0.1844680
  C        3.9506640     0.3320720     0.1153760
  H       -0.7838570    -0.8897150     1.1288390
  H        0.0750270     1.1966100    -0.6451490
  H       -1.3515420    -1.3283180    -1.8408860
  H       -0.3238960    -2.3346980    -0.7915570
  H       -2.0788080    -2.2361410    -0.4923840
  H        2.5479870     0.9167430    -1.4288930
  H        2.3554820     1.7990610     0.0733550
  H        4.1782080    -0.6474400    -0.3069900
  H        4.7194550     1.0404130    -0.2050590
  H        3.9903360     0.2413970     1.2016820
  H       -2.8462050     2.0977190    -0.1239210
units angstrom
no_reorient  #important for SAPT in psi4, default
symmetry c1  #important for SAPT in psi4, default
}

set PROPERTIES_ORIGIN ["COM"]
properties('MP2/aug-cc-pvtz', properties = ['dipole'])
--------------------------------------------------------------------------

    Molecular point group: c1
  Charge       = 0
  Multiplicity = 1
  Basis Set: AUG-CC-PVTZ
    Blend: AUG-CC-PVTZ
  Basis Set: (AUG-CC-PVTZ AUX)
    Blend: AUG-CC-PVTZ-JKFIT

    Orbital Energies [Eh]
    ---------------------

    Doubly Occupied:

       1A    -20.636135     2A    -20.564053     3A    -20.525024
       4A    -15.590242     5A    -11.405135     6A    -11.356125
       7A    -11.296181     8A    -11.247073     9A    -11.226209
      10A    -11.221358    11A     -1.478166    12A     -1.381041
      13A     -1.373338    14A     -1.244847    15A     -1.075095
      16A     -1.033319    17A     -0.927580    18A     -0.886496
      19A     -0.816384    20A     -0.792941    21A     -0.731414
      22A     -0.714282    23A     -0.682428    24A     -0.665586
      25A     -0.643743    26A     -0.633820    27A     -0.609959
      28A     -0.602666    29A     -0.580362    30A     -0.546265
      31A     -0.543381    32A     -0.523480    33A     -0.521476
      34A     -0.516374    35A     -0.500616    36A     -0.489959
      37A     -0.467798    38A     -0.429244    39A     -0.399358

  @DF-RHF Final Energy:  -512.88530174535447

   => Energetics <=

    Nuclear Repulsion Energy =            548.0923291052062041
    One-Electron Energy =               -1788.1973499407502004
    Two-Electron Energy =                 727.2197190901896420
    Total Energy =                       -512.8853017453544680
  Basis Set: (AUG-CC-PVTZ AUX)
    Blend: AUG-CC-PVTZ-RI
    Molecular point group: c1

    Geometry (in Angstrom), charge = 0, multiplicity = 1:

       Center              X                  Y                   Z               Mass
    ------------   -----------------  -----------------  -----------------  -----------------
         O           -1.966741740352     1.660386412565    -0.183996865836    15.994914619570
         O            1.651442259648    -1.227030887435     0.644807934164    15.994914619570
         O           -3.287527740352    -0.048891587435     0.495666134164    15.994914619570
         N            0.217919259648     0.267343412565    -0.269074865836    14.003074004430
         C           -0.947230740352    -0.498007587435     0.118413134164    12.000000000000
         C           -1.192980740352    -1.682628587435    -0.817682865836    12.000000000000
         C            2.564635359648     0.822365012565    -0.347088765836    12.000000000000
         C            1.472095259648    -0.149147587435     0.071409134164    12.000000000000
         C           -2.186985740352     0.364906412565     0.185271134164    12.000000000000
         C            3.954510259648     0.331105412565     0.116179134164    12.000000000000
         H           -0.780010740352    -0.890681587435     1.129642134164     1.007825032230
         H            0.078873259648     1.195643412565    -0.644345865836     1.007825032230
         H           -1.347695740352    -1.329284587435    -1.840082865836     1.007825032230
         H           -0.320049740352    -2.335664587435    -0.790753865836     1.007825032230
         H           -2.074961740352    -2.237107587435    -0.491580865836     1.007825032230
         H            2.551833259648     0.915776412565    -1.428089865836     1.007825032230
         H            2.359328259648     1.798094412565     0.074158134164     1.007825032230
         H            4.182054259648    -0.648406587435    -0.306186865836     1.007825032230
         H            4.723301259648     1.039446412565    -0.204255865836     1.007825032230
         H            3.994182259648     0.240430412565     1.202485134164     1.007825032230
         H           -2.842358740352     2.096752412565    -0.123117865836     1.007825032230

  Basis Set: AUG-CC-PVTZ
    Blend: AUG-CC-PVTZ
  Basis Set: (AUG-CC-PVTZ AUX)
    Blend: AUG-CC-PVTZ-JKFIT
	 Reference Energy          =    -512.8853017453544680 [Eh]
	 Singles Energy            =      -0.0000000000000000 [Eh]
	 Same-Spin Energy          =      -0.5112732613038231 [Eh]
	 Opposite-Spin Energy      =      -1.6149817195151779 [Eh]
	 Correlation Energy        =      -2.1262549808190010 [Eh]
	 Total Energy              =    -515.0115567261734668 [Eh]

	 ================> DF-SCS-MP2 Energies <==================
	-----------------------------------------------------------
	 SCS Same-Spin Scale       =       0.3333333333333333 [-]
	 SCS Opposite-Spin Scale   =       1.2000000000000000 [-]
	 SCS Same-Spin Energy      =      -0.1704244204346077 [Eh]
	 SCS Opposite-Spin Energy  =      -1.9379780634182133 [Eh]
	 SCS Correlation Energy    =      -2.1084024838528208 [Eh]
	 SCS Total Energy          =    -514.9937042292073102 [Eh]
	-----------------------------------------------------------

  Dipole Moment: [D]
     X:    -0.0292      Y:     3.3857      Z:    -1.8625     Total:     3.8643

*** Psi4 exiting successfully. Buy a developer a beer!
