                               Psi4 1.3.2 release

  ==> Input File <==

--------------------------------------------------------------------------
#psi4
#
memory 32 gb

molecule  {
0 1
  O       -1.9705880     1.6613530    -0.1848000
  O        1.6688240    -1.2224340     0.6437850
  O       -3.2913740    -0.0479250     0.4948630
  N        0.2447411     0.2519484    -0.2025738
  C       -0.9510770    -0.4970410     0.1176100
  C       -1.1968270    -1.6816620    -0.8184860
  C        2.5789920     0.8068070    -0.3378900
  C        1.4682490    -0.1481810     0.0706060
  C       -2.1908320     0.3658730     0.1844680
  C        3.9506640     0.3320720     0.1153760
  H       -0.7324881    -0.8639598     1.1287129
  H        0.0750270     1.1966100    -0.6451490
  H       -1.3515420    -1.3283180    -1.8408860
  H       -0.3238960    -2.3346980    -0.7915570
  H       -2.0788080    -2.2361410    -0.4923840
  H        2.5479870     0.9167430    -1.4288930
  H        2.3554820     1.7990610     0.0733550
  H        4.1782080    -0.6474400    -0.3069900
  H        4.7194550     1.0404130    -0.2050590
  H        3.9903360     0.2413970     1.2016820
  H       -2.8462050     2.0977190    -0.1239210
units angstrom
no_reorient  #important for SAPT in psi4, default
symmetry c1  #important for SAPT in psi4, default
}

set PROPERTIES_ORIGIN ["COM"]
properties('MP2/aug-cc-pvtz', properties = ['dipole'])
--------------------------------------------------------------------------

    Molecular point group: c1
  Charge       = 0
  Multiplicity = 1
  Basis Set: AUG-CC-PVTZ
    Blend: AUG-CC-PVTZ
  Basis Set: (AUG-CC-PVTZ AUX)
    Blend: AUG-CC-PVTZ-JKFIT

    Orbital Energies [Eh]
    ---------------------

    Doubly Occupied:

       1A    -20.638998     2A    -20.567399     3A    -20.514025
       4A    -15.596005     5A    -11.409159     6A    -11.347368
       7A    -11.299193     8A    -11.245637     9A    -11.229593
      10A    -11.218000    11A     -1.480987    12A     -1.380983
      13A     -1.376216    14A     -1.248894    15A     -1.078094
      16A     -1.037041    17A     -0.931689    18A     -0.885327
      19A     -0.818123    20A     -0.794537    21A     -0.733242
      22A     -0.715546    23A     -0.681267    24A     -0.668095
      25A     -0.642342    26A     -0.632645    27A     -0.613486
      28A     -0.599285    29A     -0.580347    30A     -0.548994
      31A     -0.545692    32A     -0.524577    33A     -0.518641
      34A     -0.517282    35A     -0.498493    36A     -0.488136
      37A     -0.470965    38A     -0.424130    39A     -0.398381

  @DF-RHF Final Energy:  -512.88045222599112

   => Energetics <=

    Nuclear Repulsion Energy =            548.7256343150612565
    One-Electron Energy =               -1789.4145402468484463
    Two-Electron Energy =                 727.8084537057961825
    Total Energy =                       -512.8804522259911209
  Basis Set: (AUG-CC-PVTZ AUX)
    Blend: AUG-CC-PVTZ-RI
    Molecular point group: c1

    Geometry (in Angstrom), charge = 0, multiplicity = 1:

       Center              X                  Y                   Z               Mass
    ------------   -----------------  -----------------  -----------------  -----------------
         O           -1.973904940854     1.662753377525    -0.191295530682    15.994914619570
         O            1.665507059146    -1.221033622475     0.637289469318    15.994914619570
         O           -3.294690940854    -0.046524622475     0.488367469318    15.994914619570
         N            0.241424159146     0.253348777525    -0.209069330682    14.003074004430
         C           -0.954393940854    -0.495640622475     0.111114469318    12.000000000000
         C           -1.200143940854    -1.680261622475    -0.824981530682    12.000000000000
         C            2.575675059146     0.808207377525    -0.344385530682    12.000000000000
         C            1.464932059146    -0.146780622475     0.064110469318    12.000000000000
         C           -2.194148940854     0.367273377525     0.177972469318    12.000000000000
         C            3.947347059146     0.333472377525     0.108880469318    12.000000000000
         H           -0.735805040854    -0.862559422475     1.122217369318     1.007825032230
         H            0.071710059146     1.198010377525    -0.651644530682     1.007825032230
         H           -1.354858940854    -1.326917622475    -1.847381530682     1.007825032230
         H           -0.327212940854    -2.333297622475    -0.798052530682     1.007825032230
         H           -2.082124940854    -2.234740622475    -0.498879530682     1.007825032230
         H            2.544670059146     0.918143377525    -1.435388530682     1.007825032230
         H            2.352165059146     1.800461377525     0.066859469318     1.007825032230
         H            4.174891059146    -0.646039622475    -0.313485530682     1.007825032230
         H            4.716138059146     1.041813377525    -0.211554530682     1.007825032230
         H            3.987019059146     0.242797377525     1.195186469318     1.007825032230
         H           -2.849521940854     2.099119377525    -0.130416530682     1.007825032230

  Basis Set: AUG-CC-PVTZ
    Blend: AUG-CC-PVTZ
  Basis Set: (AUG-CC-PVTZ AUX)
    Blend: AUG-CC-PVTZ-JKFIT
	 Reference Energy          =    -512.8804522259911209 [Eh]
	 Singles Energy            =      -0.0000000000000000 [Eh]
	 Same-Spin Energy          =      -0.5116680968019167 [Eh]
	 Opposite-Spin Energy      =      -1.6152106403939699 [Eh]
	 Correlation Energy        =      -2.1268787371958866 [Eh]
	 Total Energy              =    -515.0073309631869733 [Eh]

	 ================> DF-SCS-MP2 Energies <==================
	-----------------------------------------------------------
	 SCS Same-Spin Scale       =       0.3333333333333333 [-]
	 SCS Opposite-Spin Scale   =       1.2000000000000000 [-]
	 SCS Same-Spin Energy      =      -0.1705560322673056 [Eh]
	 SCS Opposite-Spin Energy  =      -1.9382527684727637 [Eh]
	 SCS Correlation Energy    =      -2.1088088007400692 [Eh]
	 SCS Total Energy          =    -514.9892610267312421 [Eh]
	-----------------------------------------------------------

  Dipole Moment: [D]
     X:    -0.3803      Y:     3.4500      Z:    -2.0282     Total:     4.0200

*** Psi4 exiting successfully. Buy a developer a beer!
