                               Psi4 1.4a3.dev225

  ==> Input File <==

--------------------------------------------------------------------------
#psi4
#
memory 32 gb

molecule  {
0 1
  O       -2.1439760    -1.5096120     0.4578230
  O        1.6019480     1.2946100    -0.5777250
  O       -3.1849820    -0.0999640    -0.9818910
  N        0.1649120    -0.2715720     0.2333030
  C       -1.0051050     0.5087660    -0.1211110
  C       -1.3212480     1.5963590     0.9125160
  C        2.5597860    -0.6480590     0.5035240
  C        1.3724695     0.1983816     0.0047761
  C       -2.2159370    -0.3767160    -0.3010400
  C        3.7806550    -0.5458820    -0.4040570
  H       -0.8075500     0.9861290    -1.0847450
  H        0.0342290    -1.1271740     0.7572540
  H       -1.5188550     1.1449870     1.8886910
  H       -0.4592110     2.2615650     0.9886780
  H       -2.1947650     2.1753270     0.6002850
  H        2.8115640    -0.2961200     1.5118980
  H        2.2315720    -1.6889350     0.6045970
  H        4.0689510     0.4992230    -0.5227640
  H        4.6219880    -1.1034150     0.0157220
  H        3.5611410    -0.9492480    -1.3958190
  H       -2.9864200    -1.9858630     0.3018850
units angstrom
no_reorient  #important for SAPT in psi4, default
symmetry c1  #important for SAPT in psi4, default
}

set PROPERTIES_ORIGIN ["COM"]
properties('MP2/aug-cc-pvtz', properties = ['dipole'])
--------------------------------------------------------------------------

    Molecular point group: c1
  Charge       = 0
  Multiplicity = 1
  Basis Set: AUG-CC-PVTZ
    Blend: AUG-CC-PVTZ
  Basis Set: (AUG-CC-PVTZ AUX)
    Blend: AUG-CC-PVTZ-JKFIT

    Orbital Energies [Eh]
    ---------------------

    Doubly Occupied:

       1A    -20.637669     2A    -20.568216     3A    -20.513293
       4A    -15.604893     5A    -11.407290     6A    -11.353692
       7A    -11.301028     8A    -11.246893     9A    -11.236507
      10A    -11.219469    11A     -1.479756    12A     -1.375860
      13A     -1.366438    14A     -1.256350    15A     -1.078520
      16A     -1.037690    17A     -0.932750    18A     -0.883505
      19A     -0.826679    20A     -0.806612    21A     -0.732915
      22A     -0.717339    23A     -0.675628    24A     -0.664104
      25A     -0.643494    26A     -0.629008    27A     -0.611839
      28A     -0.602459    29A     -0.587304    30A     -0.555121
      31A     -0.543567    32A     -0.533503    33A     -0.519688
      34A     -0.511849    35A     -0.498822    36A     -0.486510
      37A     -0.470342    38A     -0.419700    39A     -0.402699

  @DF-RHF Final Energy:  -512.88187937929604

   => Energetics <=

    Nuclear Repulsion Energy =            548.0439032182257506
    One-Electron Energy =               -1787.9735600578685535
    Two-Electron Energy =                 727.0477774603467651
    Total Energy =                       -512.8818793792960378
  Basis Set: (AUG-CC-PVTZ AUX)
    Blend: AUG-CC-PVTZ-RI
    Molecular point group: c1

    Geometry (in Angstrom), charge = 0, multiplicity = 1:

       Center              X                  Y                   Z               Mass
    ------------   -----------------  -----------------  -----------------  -----------------
         O           -2.076282367554    -1.508711221323     0.482131043515    15.994914619570
         O            1.669641632446     1.295510778677    -0.553416956485    15.994914619570
         O           -3.117288367554    -0.099063221323    -0.957582956485    15.994914619570
         N            0.232605632446    -0.270671221323     0.257611043515    14.003074004430
         C           -0.937411367554     0.509666778677    -0.096802956485    12.000000000000
         C           -1.253554367554     1.597259778677     0.936824043515    12.000000000000
         C            2.627479632446    -0.647158221323     0.527832043515    12.000000000000
         C            1.440163132446     0.199282378677     0.029084143515    12.000000000000
         C           -2.148243367554    -0.375815221323    -0.276731956485    12.000000000000
         C            3.848348632446    -0.544981221323    -0.379748956485    12.000000000000
         H           -0.739856367554     0.987029778677    -1.060436956485     1.007825032230
         H            0.101922632446    -1.126273221323     0.781562043515     1.007825032230
         H           -1.451161367554     1.145887778677     1.912999043515     1.007825032230
         H           -0.391517367554     2.262465778677     1.012986043515     1.007825032230
         H           -2.127071367554     2.176227778677     0.624593043515     1.007825032230
         H            2.879257632446    -0.295219221323     1.536206043515     1.007825032230
         H            2.299265632446    -1.688034221323     0.628905043515     1.007825032230
         H            4.136644632446     0.500123778677    -0.498455956485     1.007825032230
         H            4.689681632446    -1.102514221323     0.040030043515     1.007825032230
         H            3.628834632446    -0.948347221323    -1.371510956485     1.007825032230
         H           -2.918726367554    -1.984962221323     0.326193043515     1.007825032230

  Basis Set: AUG-CC-PVTZ
    Blend: AUG-CC-PVTZ
  Basis Set: (AUG-CC-PVTZ AUX)
    Blend: AUG-CC-PVTZ-JKFIT
	 Reference Energy          =    -512.8818793792960378 [Eh]
	 Singles Energy            =      -0.0000000000000000 [Eh]
	 Same-Spin Energy          =      -0.5114924519043840 [Eh]
	 Opposite-Spin Energy      =      -1.6157205808250730 [Eh]
	 Correlation Energy        =      -2.1272130327294567 [Eh]
	 Total Energy              =    -515.0090924120254385 [Eh]

	 ================> DF-SCS-MP2 Energies <==================
	-----------------------------------------------------------
	 SCS Same-Spin Scale       =       0.3333333333333333 [-]
	 SCS Opposite-Spin Scale   =       1.2000000000000000 [-]
	 SCS Same-Spin Energy      =      -0.1704974839681280 [Eh]
	 SCS Opposite-Spin Energy  =      -1.9388646969900876 [Eh]
	 SCS Correlation Energy    =      -2.1093621809582155 [Eh]
	 SCS Total Energy          =    -514.9912415602542524 [Eh]
	-----------------------------------------------------------

  Dipole Moment: [D]
     X:    -0.6439      Y:    -3.1728      Z:     2.7325     Total:     4.2365

*** Psi4 exiting successfully. Buy a developer a beer!
