                               Psi4 1.3.2 release

  ==> Input File <==

--------------------------------------------------------------------------
#psi4
#
memory 32 gb

molecule  {
0 1
  O       -1.9020663     1.6445101    -0.1961056
  O        1.6688240    -1.2224340     0.6437850
  O       -3.2913740    -0.0479250     0.4948630
  N        0.2140730     0.2683100    -0.2698780
  C       -0.9107633    -0.4335735     0.0928576
  C       -1.1968270    -1.6816620    -0.8184860
  C        2.5789920     0.8068070    -0.3378900
  C        1.4682490    -0.1481810     0.0706060
  C       -2.1908320     0.3658730     0.1844680
  C        3.9506640     0.3320720     0.1153760
  H       -0.7838570    -0.8897150     1.1288390
  H        0.0750270     1.1966100    -0.6451490
  H       -1.3515420    -1.3283180    -1.8408860
  H       -0.3238960    -2.3346980    -0.7915570
  H       -2.0788080    -2.2361410    -0.4923840
  H        2.5479870     0.9167430    -1.4288930
  H        2.3554820     1.7990610     0.0733550
  H        4.1782080    -0.6474400    -0.3069900
  H        4.7194550     1.0404130    -0.2050590
  H        3.9903360     0.2413970     1.2016820
  H       -2.8462050     2.0977190    -0.1239210
units angstrom
no_reorient  #important for SAPT in psi4, default
symmetry c1  #important for SAPT in psi4, default
}

set PROPERTIES_ORIGIN ["COM"]
properties('MP2/aug-cc-pvtz', properties = ['dipole'])
--------------------------------------------------------------------------

    Molecular point group: c1
  Charge       = 0
  Multiplicity = 1
  Basis Set: AUG-CC-PVTZ
    Blend: AUG-CC-PVTZ
  Basis Set: (AUG-CC-PVTZ AUX)
    Blend: AUG-CC-PVTZ-JKFIT

    Orbital Energies [Eh]
    ---------------------

    Doubly Occupied:

       1A    -20.643046     2A    -20.567654     3A    -20.527084
       4A    -15.592336     5A    -11.406183     6A    -11.358326
       7A    -11.292688     8A    -11.248862     9A    -11.225084
      10A    -11.220614    11A     -1.472650    12A     -1.384530
      13A     -1.373214    14A     -1.262009    15A     -1.073425
      16A     -1.029969    17A     -0.924762    18A     -0.886915
      19A     -0.806786    20A     -0.799498    21A     -0.735743
      22A     -0.710286    23A     -0.686386    24A     -0.664404
      25A     -0.642529    26A     -0.634930    27A     -0.606010
      28A     -0.600858    29A     -0.581952    30A     -0.545754
      31A     -0.538067    32A     -0.529222    33A     -0.521424
      34A     -0.515198    35A     -0.500075    36A     -0.486354
      37A     -0.465414    38A     -0.430886    39A     -0.393971

  @DF-RHF Final Energy:  -512.86654172429746

   => Energetics <=

    Nuclear Repulsion Energy =            549.4050933000794430
    One-Electron Energy =               -1790.7730781388515879
    Two-Electron Energy =                 728.5014431144746823
    Total Energy =                       -512.8665417242974627
  Basis Set: (AUG-CC-PVTZ AUX)
    Blend: AUG-CC-PVTZ-RI
    Molecular point group: c1

    Geometry (in Angstrom), charge = 0, multiplicity = 1:

       Center              X                  Y                   Z               Mass
    ------------   -----------------  -----------------  -----------------  -----------------
         O           -1.912955551623     1.641117298012    -0.192811640086    15.994914619570
         O            1.657934748377    -1.225826801988     0.647078959914    15.994914619570
         O           -3.302263251623    -0.051317801988     0.498156959914    15.994914619570
         N            0.203183748377     0.264917198012    -0.266584040086    14.003074004430
         C           -0.921652551623    -0.436966301988     0.096151559914    12.000000000000
         C           -1.207716251623    -1.685054801988    -0.815192040086    12.000000000000
         C            2.568102748377     0.803414198012    -0.334596040086    12.000000000000
         C            1.457359748377    -0.151573801988     0.073899959914    12.000000000000
         C           -2.201721251623     0.362480198012     0.187761959914    12.000000000000
         C            3.939774748377     0.328679198012     0.118669959914    12.000000000000
         H           -0.794746251623    -0.893107801988     1.132132959914     1.007825032230
         H            0.064137748377     1.193217198012    -0.641855040086     1.007825032230
         H           -1.362431251623    -1.331710801988    -1.837592040086     1.007825032230
         H           -0.334785251623    -2.338090801988    -0.788263040086     1.007825032230
         H           -2.089697251623    -2.239533801988    -0.489090040086     1.007825032230
         H            2.537097748377     0.913350198012    -1.425599040086     1.007825032230
         H            2.344592748377     1.795668198012     0.076648959914     1.007825032230
         H            4.167318748377    -0.650832801988    -0.303696040086     1.007825032230
         H            4.708565748377     1.037020198012    -0.201765040086     1.007825032230
         H            3.979446748377     0.238004198012     1.204975959914     1.007825032230
         H           -2.857094251623     2.094326198012    -0.120627040086     1.007825032230

  Basis Set: AUG-CC-PVTZ
    Blend: AUG-CC-PVTZ
  Basis Set: (AUG-CC-PVTZ AUX)
    Blend: AUG-CC-PVTZ-JKFIT
	 Reference Energy          =    -512.8665417242974627 [Eh]
	 Singles Energy            =      -0.0000000000000000 [Eh]
	 Same-Spin Energy          =      -0.5138774563663120 [Eh]
	 Opposite-Spin Energy      =      -1.6192214341995421 [Eh]
	 Correlation Energy        =      -2.1330988905658543 [Eh]
	 Total Energy              =    -514.9996406148633241 [Eh]

	 ================> DF-SCS-MP2 Energies <==================
	-----------------------------------------------------------
	 SCS Same-Spin Scale       =       0.3333333333333333 [-]
	 SCS Opposite-Spin Scale   =       1.2000000000000000 [-]
	 SCS Same-Spin Energy      =      -0.1712924854554373 [Eh]
	 SCS Opposite-Spin Energy  =      -1.9430657210394504 [Eh]
	 SCS Correlation Energy    =      -2.1143582064948876 [Eh]
	 SCS Total Energy          =    -514.9808999307923614 [Eh]
	-----------------------------------------------------------

  Dipole Moment: [D]
     X:     0.0036      Y:     3.5406      Z:    -1.8487     Total:     3.9942

*** Psi4 exiting successfully. Buy a developer a beer!
