                               Psi4 1.3.2 release

  ==> Input File <==

--------------------------------------------------------------------------
#psi4
#
memory 32 gb

molecule  {
0 1
  O       -1.9705880     1.6613530    -0.1848000
  O        1.6688240    -1.2224340     0.6437850
  O       -3.2913740    -0.0479250     0.4948630
  N        0.2550122     0.2047727    -0.2648687
  C       -0.9510770    -0.4970410     0.1176100
  C       -1.1968270    -1.6816620    -0.8184860
  C        2.5789920     0.8068070    -0.3378900
  C        1.4682490    -0.1481810     0.0706060
  C       -2.2318697     0.3016307     0.2057949
  C        3.9506640     0.3320720     0.1153760
  H       -0.7838570    -0.8897150     1.1288390
  H        0.0750270     1.1966100    -0.6451490
  H       -1.3515420    -1.3283180    -1.8408860
  H       -0.3238960    -2.3346980    -0.7915570
  H       -2.0788080    -2.2361410    -0.4923840
  H        2.5479870     0.9167430    -1.4288930
  H        2.3554820     1.7990610     0.0733550
  H        4.1782080    -0.6474400    -0.3069900
  H        4.7194550     1.0404130    -0.2050590
  H        3.9903360     0.2413970     1.2016820
  H       -2.8462050     2.0977190    -0.1239210
units angstrom
no_reorient  #important for SAPT in psi4, default
symmetry c1  #important for SAPT in psi4, default
}

set PROPERTIES_ORIGIN ["COM"]
properties('MP2/aug-cc-pvtz', properties = ['dipole'])
--------------------------------------------------------------------------

    Molecular point group: c1
  Charge       = 0
  Multiplicity = 1
  Basis Set: AUG-CC-PVTZ
    Blend: AUG-CC-PVTZ
  Basis Set: (AUG-CC-PVTZ AUX)
    Blend: AUG-CC-PVTZ-JKFIT

    Orbital Energies [Eh]
    ---------------------

    Doubly Occupied:

       1A    -20.617278     2A    -20.583218     3A    -20.511749
       4A    -15.597852     5A    -11.406620     6A    -11.345585
       7A    -11.300594     8A    -11.245063     9A    -11.229215
      10A    -11.217365    11A     -1.489680    12A     -1.384155
      13A     -1.378503    14A     -1.247080    15A     -1.079676
      16A     -1.038327    17A     -0.925026    18A     -0.883468
      19A     -0.801878    20A     -0.792116    21A     -0.732293
      22A     -0.716498    23A     -0.681585    24A     -0.668170
      25A     -0.642639    26A     -0.639233    27A     -0.615518
      28A     -0.597925    29A     -0.576111    30A     -0.549537
      31A     -0.547809    32A     -0.523699    33A     -0.520479
      34A     -0.516123    35A     -0.510920    36A     -0.489823
      37A     -0.470501    38A     -0.423189    39A     -0.398792

  @DF-RHF Final Energy:  -512.87130131741606

   => Energetics <=

    Nuclear Repulsion Energy =            548.6867387810204946
    One-Electron Energy =               -1789.3254955235092893
    Two-Electron Energy =                 727.7674554250727397
    Total Energy =                       -512.8713013174160551
  Basis Set: (AUG-CC-PVTZ AUX)
    Blend: AUG-CC-PVTZ-RI
    Molecular point group: c1

    Geometry (in Angstrom), charge = 0, multiplicity = 1:

       Center              X                  Y                   Z               Mass
    ------------   -----------------  -----------------  -----------------  -----------------
         O           -1.971144993623     1.672799769204    -0.187047556119    15.994914619570
         O            1.668267006377    -1.210987230796     0.641537443881    15.994914619570
         O           -3.291930993623    -0.036478230796     0.492615443881    15.994914619570
         N            0.254455206377     0.216219469204    -0.267116256119    14.003074004430
         C           -0.951633993623    -0.485594230796     0.115362443881    12.000000000000
         C           -1.197383993623    -1.670215230796    -0.820733556119    12.000000000000
         C            2.578435006377     0.818253769204    -0.340137556119    12.000000000000
         C            1.467692006377    -0.136734230796     0.068358443881    12.000000000000
         C           -2.232426693623     0.313077469204     0.203547343881    12.000000000000
         C            3.950107006377     0.343518769204     0.113128443881    12.000000000000
         H           -0.784413993623    -0.878268230796     1.126591443881     1.007825032230
         H            0.074470006377     1.208056769204    -0.647396556119     1.007825032230
         H           -1.352098993623    -1.316871230796    -1.843133556119     1.007825032230
         H           -0.324452993623    -2.323251230796    -0.793804556119     1.007825032230
         H           -2.079364993623    -2.224694230796    -0.494631556119     1.007825032230
         H            2.547430006377     0.928189769204    -1.431140556119     1.007825032230
         H            2.354925006377     1.810507769204     0.071107443881     1.007825032230
         H            4.177651006377    -0.635993230796    -0.309237556119     1.007825032230
         H            4.718898006377     1.051859769204    -0.207306556119     1.007825032230
         H            3.989779006377     0.252843769204     1.199434443881     1.007825032230
         H           -2.846761993623     2.109165769204    -0.126168556119     1.007825032230

  Basis Set: AUG-CC-PVTZ
    Blend: AUG-CC-PVTZ
  Basis Set: (AUG-CC-PVTZ AUX)
    Blend: AUG-CC-PVTZ-JKFIT
	 Reference Energy          =    -512.8713013174160551 [Eh]
	 Singles Energy            =      -0.0000000000000000 [Eh]
	 Same-Spin Energy          =      -0.5111328035081524 [Eh]
	 Opposite-Spin Energy      =      -1.6145657530620046 [Eh]
	 Correlation Energy        =      -2.1256985565701569 [Eh]
	 Total Energy              =    -514.9969998739861694 [Eh]

	 ================> DF-SCS-MP2 Energies <==================
	-----------------------------------------------------------
	 SCS Same-Spin Scale       =       0.3333333333333333 [-]
	 SCS Opposite-Spin Scale   =       1.2000000000000000 [-]
	 SCS Same-Spin Energy      =      -0.1703776011693841 [Eh]
	 SCS Opposite-Spin Energy  =      -1.9374789036744053 [Eh]
	 SCS Correlation Energy    =      -2.1078565048437894 [Eh]
	 SCS Total Energy          =    -514.9791578222598218 [Eh]
	-----------------------------------------------------------

  Dipole Moment: [D]
     X:    -0.7106      Y:     2.9948      Z:    -1.7338     Total:     3.5327

*** Psi4 exiting successfully. Buy a developer a beer!
