                               Psi4 1.3.2 release

  ==> Input File <==

--------------------------------------------------------------------------
#psi4
#
memory 32 gb

molecule  {
0 1
  O       -1.9705880     1.6613530    -0.1848000
  O        1.6793985    -1.2203978     0.6437998
  O       -3.2913740    -0.0479250     0.4948630
  N        0.2186939     0.2782509    -0.2745310
  C       -0.9510770    -0.4970410     0.1176100
  C       -1.1968270    -1.6816620    -0.8184860
  C        2.5789920     0.8068070    -0.3378900
  C        1.4682490    -0.1481810     0.0706060
  C       -2.1908320     0.3658730     0.1844680
  C        3.9506640     0.3320720     0.1153760
  H       -0.7838570    -0.8897150     1.1288390
  H        0.0750270     1.1966100    -0.6451490
  H       -1.3515420    -1.3283180    -1.8408860
  H       -0.3238960    -2.3346980    -0.7915570
  H       -2.0788080    -2.2361410    -0.4923840
  H        2.5479870     0.9167430    -1.4288930
  H        2.3554820     1.7990610     0.0733550
  H        4.1782080    -0.6474400    -0.3069900
  H        4.7194550     1.0404130    -0.2050590
  H        3.9903360     0.2413970     1.2016820
  H       -2.8462050     2.0977190    -0.1239210
units angstrom
no_reorient  #important for SAPT in psi4, default
symmetry c1  #important for SAPT in psi4, default
}

set PROPERTIES_ORIGIN ["COM"]
properties('MP2/aug-cc-pvtz', properties = ['dipole'])
--------------------------------------------------------------------------

    Molecular point group: c1
  Charge       = 0
  Multiplicity = 1
  Basis Set: AUG-CC-PVTZ
    Blend: AUG-CC-PVTZ
  Basis Set: (AUG-CC-PVTZ AUX)
    Blend: AUG-CC-PVTZ-JKFIT

    Orbital Energies [Eh]
    ---------------------

    Doubly Occupied:

       1A    -20.636877     2A    -20.564920     3A    -20.525230
       4A    -15.591821     5A    -11.406055     6A    -11.356030
       7A    -11.298360     8A    -11.246068     9A    -11.227575
      10A    -11.218818    11A     -1.478935    12A     -1.380252
      13A     -1.374144    14A     -1.246098    15A     -1.075337
      16A     -1.035812    17A     -0.928406    18A     -0.885347
      19A     -0.817659    20A     -0.794216    21A     -0.730036
      22A     -0.715430    23A     -0.682022    24A     -0.666486
      25A     -0.641083    26A     -0.634137    27A     -0.611014
      28A     -0.603487    29A     -0.580789    30A     -0.547650
      31A     -0.544680    32A     -0.523514    33A     -0.521435
      34A     -0.519236    35A     -0.497684    36A     -0.488612
      37A     -0.468770    38A     -0.427896    39A     -0.401601

  @DF-RHF Final Energy:  -512.88602798019576

   => Energetics <=

    Nuclear Repulsion Energy =            547.8266318668727308
    One-Electron Energy =               -1787.6382723037738742
    Two-Electron Energy =                 726.9256124567053803
    Total Energy =                       -512.8860279801957631
  Basis Set: (AUG-CC-PVTZ AUX)
    Blend: AUG-CC-PVTZ-RI
    Molecular point group: c1

    Geometry (in Angstrom), charge = 0, multiplicity = 1:

       Center              X                  Y                   Z               Mass
    ------------   -----------------  -----------------  -----------------  -----------------
         O           -1.972199785624     1.660168984458    -0.184352460754    15.994914619570
         O            1.677786714376    -1.221581815542     0.644247339246    15.994914619570
         O           -3.292985785624    -0.049109015542     0.495310539246    15.994914619570
         N            0.217082114376     0.277066884458    -0.274083460754    14.003074004430
         C           -0.952688785624    -0.498225015542     0.118057539246    12.000000000000
         C           -1.198438785624    -1.682846015542    -0.818038460754    12.000000000000
         C            2.577380214376     0.805622984458    -0.337442460754    12.000000000000
         C            1.466637214376    -0.149365015542     0.071053539246    12.000000000000
         C           -2.192443785624     0.364688984458     0.184915539246    12.000000000000
         C            3.949052214376     0.330887984458     0.115823539246    12.000000000000
         H           -0.785468785624    -0.890899015542     1.129286539246     1.007825032230
         H            0.073415214376     1.195425984458    -0.644701460754     1.007825032230
         H           -1.353153785624    -1.329502015542    -1.840438460754     1.007825032230
         H           -0.325507785624    -2.335882015542    -0.791109460754     1.007825032230
         H           -2.080419785624    -2.237325015542    -0.491936460754     1.007825032230
         H            2.546375214376     0.915558984458    -1.428445460754     1.007825032230
         H            2.353870214376     1.797876984458     0.073802539246     1.007825032230
         H            4.176596214376    -0.648624015542    -0.306542460754     1.007825032230
         H            4.717843214376     1.039228984458    -0.204611460754     1.007825032230
         H            3.988724214376     0.240212984458     1.202129539246     1.007825032230
         H           -2.847816785624     2.096534984458    -0.123473460754     1.007825032230

  Basis Set: AUG-CC-PVTZ
    Blend: AUG-CC-PVTZ
  Basis Set: (AUG-CC-PVTZ AUX)
    Blend: AUG-CC-PVTZ-JKFIT
	 Reference Energy          =    -512.8860279801957631 [Eh]
	 Singles Energy            =      -0.0000000000000000 [Eh]
	 Same-Spin Energy          =      -0.5112012425010606 [Eh]
	 Opposite-Spin Energy      =      -1.6148303726843309 [Eh]
	 Correlation Energy        =      -2.1260316151853917 [Eh]
	 Total Energy              =    -515.0120595953811744 [Eh]

	 ================> DF-SCS-MP2 Energies <==================
	-----------------------------------------------------------
	 SCS Same-Spin Scale       =       0.3333333333333333 [-]
	 SCS Opposite-Spin Scale   =       1.2000000000000000 [-]
	 SCS Same-Spin Energy      =      -0.1704004141670202 [Eh]
	 SCS Opposite-Spin Energy  =      -1.9377964472211970 [Eh]
	 SCS Correlation Energy    =      -2.1081968613882172 [Eh]
	 SCS Total Energy          =    -514.9942248415840140 [Eh]
	-----------------------------------------------------------

  Dipole Moment: [D]
     X:    -0.1516      Y:     3.3359      Z:    -1.8526     Total:     3.8188

*** Psi4 exiting successfully. Buy a developer a beer!
