                               Psi4 1.3.2 release

  ==> Input File <==

--------------------------------------------------------------------------
#psi4
#
memory 32 gb

molecule  {
0 1
  O       -1.9705880     1.6613530    -0.1848000
  O        1.6688240    -1.2224340     0.6437850
  O       -3.2913740    -0.0479250     0.4948630
  N        0.2140730     0.2683100    -0.2698780
  C       -0.9271086    -0.5071123     0.1236821
  C       -1.1968270    -1.6816620    -0.8184860
  C        2.5789920     0.8068070    -0.3378900
  C        1.4682490    -0.1481810     0.0706060
  C       -2.1908320     0.3658730     0.1844680
  C        3.9506640     0.3320720     0.1153760
  H       -0.7838570    -0.8897150     1.1288390
  H        0.0750270     1.1966100    -0.6451490
  H       -1.3515420    -1.3283180    -1.8408860
  H       -0.3156553    -2.3228918    -0.7791093
  H       -2.0788080    -2.2361410    -0.4923840
  H        2.5479870     0.9167430    -1.4288930
  H        2.3554820     1.7990610     0.0733550
  H        4.1782080    -0.6474400    -0.3069900
  H        4.7194550     1.0404130    -0.2050590
  H        3.9903360     0.2413970     1.2016820
  H       -2.8462050     2.0977190    -0.1239210
units angstrom
no_reorient  #important for SAPT in psi4, default
symmetry c1  #important for SAPT in psi4, default
}

set PROPERTIES_ORIGIN ["COM"]
properties('MP2/aug-cc-pvtz', properties = ['dipole'])
--------------------------------------------------------------------------

    Molecular point group: c1
  Charge       = 0
  Multiplicity = 1
  Basis Set: AUG-CC-PVTZ
    Blend: AUG-CC-PVTZ
  Basis Set: (AUG-CC-PVTZ AUX)
    Blend: AUG-CC-PVTZ-JKFIT

    Orbital Energies [Eh]
    ---------------------

    Doubly Occupied:

       1A    -20.636029     2A    -20.564130     3A    -20.525330
       4A    -15.592066     5A    -11.405181     6A    -11.356209
       7A    -11.296755     8A    -11.247523     9A    -11.225976
      10A    -11.219811    11A     -1.477521    12A     -1.381757
      13A     -1.372942    14A     -1.248879    15A     -1.074719
      16A     -1.034600    17A     -0.925851    18A     -0.885022
      19A     -0.818631    20A     -0.793339    21A     -0.730185
      22A     -0.714175    23A     -0.683887    24A     -0.665288
      25A     -0.641677    26A     -0.635033    27A     -0.609309
      28A     -0.603871    29A     -0.583393    30A     -0.546787
      31A     -0.541670    32A     -0.525574    33A     -0.522689
      34A     -0.520250    35A     -0.497658    36A     -0.489220
      37A     -0.465564    38A     -0.428730    39A     -0.400498

  @DF-RHF Final Energy:  -512.88552010582362

   => Energetics <=

    Nuclear Repulsion Energy =            548.0536818716293510
    One-Electron Energy =               -1788.1029410433923204
    Two-Electron Energy =                 727.1637390659393532
    Total Energy =                       -512.8855201058236162
  Basis Set: (AUG-CC-PVTZ AUX)
    Blend: AUG-CC-PVTZ-RI
    Molecular point group: c1

    Geometry (in Angstrom), charge = 0, multiplicity = 1:

       Center              X                  Y                   Z               Mass
    ------------   -----------------  -----------------  -----------------  -----------------
         O           -1.972627712062     1.662104060531    -0.185388690491    15.994914619570
         O            1.666784287938    -1.221682939469     0.643196309509    15.994914619570
         O           -3.293413712062    -0.047173939469     0.494274309509    15.994914619570
         N            0.212033287938     0.269061060531    -0.270466690491    14.003074004430
         C           -0.929148312062    -0.506361239469     0.123093409509    12.000000000000
         C           -1.198866712062    -1.680910939469    -0.819074690491    12.000000000000
         C            2.576952287938     0.807558060531    -0.338478690491    12.000000000000
         C            1.466209287938    -0.147429939469     0.070017309509    12.000000000000
         C           -2.192871712062     0.366624060531     0.183879309509    12.000000000000
         C            3.948624287938     0.332823060531     0.114787309509    12.000000000000
         H           -0.785896712062    -0.888963939469     1.128250309509     1.007825032230
         H            0.072987287938     1.197361060531    -0.645737690491     1.007825032230
         H           -1.353581712062    -1.327566939469    -1.841474690491     1.007825032230
         H           -0.317695012062    -2.322140739469    -0.779697990491     1.007825032230
         H           -2.080847712062    -2.235389939469    -0.492972690491     1.007825032230
         H            2.545947287938     0.917494060531    -1.429481690491     1.007825032230
         H            2.353442287938     1.799812060531     0.072766309509     1.007825032230
         H            4.176168287938    -0.646688939469    -0.307578690491     1.007825032230
         H            4.717415287938     1.041164060531    -0.205647690491     1.007825032230
         H            3.988296287938     0.242148060531     1.201093309509     1.007825032230
         H           -2.848244712062     2.098470060531    -0.124509690491     1.007825032230

  Basis Set: AUG-CC-PVTZ
    Blend: AUG-CC-PVTZ
  Basis Set: (AUG-CC-PVTZ AUX)
    Blend: AUG-CC-PVTZ-JKFIT
	 Reference Energy          =    -512.8855201058236162 [Eh]
	 Singles Energy            =      -0.0000000000000000 [Eh]
	 Same-Spin Energy          =      -0.5112713311280741 [Eh]
	 Opposite-Spin Energy      =      -1.6147926289503844 [Eh]
	 Correlation Energy        =      -2.1260639600784588 [Eh]
	 Total Energy              =    -515.0115840659020705 [Eh]

	 ================> DF-SCS-MP2 Energies <==================
	-----------------------------------------------------------
	 SCS Same-Spin Scale       =       0.3333333333333333 [-]
	 SCS Opposite-Spin Scale   =       1.2000000000000000 [-]
	 SCS Same-Spin Energy      =      -0.1704237770426913 [Eh]
	 SCS Opposite-Spin Energy  =      -1.9377511547404613 [Eh]
	 SCS Correlation Energy    =      -2.1081749317831529 [Eh]
	 SCS Total Energy          =    -514.9936950376068125 [Eh]
	-----------------------------------------------------------

  Dipole Moment: [D]
     X:    -0.0602      Y:     3.3888      Z:    -1.8521     Total:     3.8624

*** Psi4 exiting successfully. Buy a developer a beer!
