                               Psi4 1.3.2 release

  ==> Input File <==

--------------------------------------------------------------------------
#psi4
#
memory 32 gb

molecule  {
0 1
  O       -1.9705880     1.6613530    -0.1848000
  O        1.6688240    -1.2224340     0.6437850
  O       -3.2913740    -0.0479250     0.4948630
  N        0.2140730     0.2683100    -0.2698780
  C       -0.9510770    -0.4970410     0.1176100
  C       -1.1996649    -1.6646611    -0.8388748
  C        2.5789920     0.8068070    -0.3378900
  C        1.4682490    -0.1481810     0.0706060
  C       -2.1908320     0.3658730     0.1844680
  C        3.9506640     0.3320720     0.1153760
  H       -0.7815999    -0.8718013     1.1352405
  H        0.0750270     1.1966100    -0.6451490
  H       -1.3515420    -1.3283180    -1.8408860
  H       -0.3238960    -2.3346980    -0.7915570
  H       -2.0788080    -2.2361410    -0.4923840
  H        2.5479870     0.9167430    -1.4288930
  H        2.3554820     1.7990610     0.0733550
  H        4.1782080    -0.6474400    -0.3069900
  H        4.7194550     1.0404130    -0.2050590
  H        3.9903360     0.2413970     1.2016820
  H       -2.8462050     2.0977190    -0.1239210
units angstrom
no_reorient  #important for SAPT in psi4, default
symmetry c1  #important for SAPT in psi4, default
}

set PROPERTIES_ORIGIN ["COM"]
properties('MP2/aug-cc-pvtz', properties = ['dipole'])
--------------------------------------------------------------------------

    Molecular point group: c1
  Charge       = 0
  Multiplicity = 1
  Basis Set: AUG-CC-PVTZ
    Blend: AUG-CC-PVTZ
  Basis Set: (AUG-CC-PVTZ AUX)
    Blend: AUG-CC-PVTZ-JKFIT

    Orbital Energies [Eh]
    ---------------------

    Doubly Occupied:

       1A    -20.636465     2A    -20.564454     3A    -20.524404
       4A    -15.591141     5A    -11.405383     6A    -11.355715
       7A    -11.297395     8A    -11.247147     9A    -11.226968
      10A    -11.219493    11A     -1.478553    12A     -1.380383
      13A     -1.373715    14A     -1.246101    15A     -1.075470
      16A     -1.035618    17A     -0.928220    18A     -0.885833
      19A     -0.817519    20A     -0.792462    21A     -0.730779
      22A     -0.714630    23A     -0.682678    24A     -0.665993
      25A     -0.641323    26A     -0.634117    27A     -0.610885
      28A     -0.602341    29A     -0.582116    30A     -0.546307
      31A     -0.542099    32A     -0.524636    33A     -0.522176
      34A     -0.519939    35A     -0.497171    36A     -0.489240
      37A     -0.468311    38A     -0.427915    39A     -0.400064

  @DF-RHF Final Energy:  -512.88506148682472

   => Energetics <=

    Nuclear Repulsion Energy =            548.1054762818812378
    One-Electron Energy =               -1788.2107570579235016
    Two-Electron Energy =                 727.2202192892175390
    Total Energy =                       -512.8850614868247249
  Basis Set: (AUG-CC-PVTZ AUX)
    Blend: AUG-CC-PVTZ-RI
    Molecular point group: c1

    Geometry (in Angstrom), charge = 0, multiplicity = 1:

       Center              X                  Y                   Z               Mass
    ------------   -----------------  -----------------  -----------------  -----------------
         O           -1.970368821681     1.659822315111    -0.183157935498    15.994914619570
         O            1.669043178319    -1.223964684889     0.645427064502    15.994914619570
         O           -3.291154821681    -0.049455684889     0.496505064502    15.994914619570
         N            0.214292178319     0.266779315111    -0.268235935498    14.003074004430
         C           -0.950857821681    -0.498571684889     0.119252064502    12.000000000000
         C           -1.199445721681    -1.666191784889    -0.837232735498    12.000000000000
         C            2.579211178319     0.805276315111    -0.336247935498    12.000000000000
         C            1.468468178319    -0.149711684889     0.072248064502    12.000000000000
         C           -2.190612821681     0.364342315111     0.186110064502    12.000000000000
         C            3.950883178319     0.330541315111     0.117018064502    12.000000000000
         H           -0.781380721681    -0.873331984889     1.136882564502     1.007825032230
         H            0.075246178319     1.195079315111    -0.643506935498     1.007825032230
         H           -1.351322821681    -1.329848684889    -1.839243935498     1.007825032230
         H           -0.323676821681    -2.336228684889    -0.789914935498     1.007825032230
         H           -2.078588821681    -2.237671684889    -0.490741935498     1.007825032230
         H            2.548206178319     0.915212315111    -1.427250935498     1.007825032230
         H            2.355701178319     1.797530315111     0.074997064502     1.007825032230
         H            4.178427178319    -0.648970684889    -0.305347935498     1.007825032230
         H            4.719674178319     1.038882315111    -0.203416935498     1.007825032230
         H            3.990555178319     0.239866315111     1.203324064502     1.007825032230
         H           -2.845985821681     2.096188315111    -0.122278935498     1.007825032230

  Basis Set: AUG-CC-PVTZ
    Blend: AUG-CC-PVTZ
  Basis Set: (AUG-CC-PVTZ AUX)
    Blend: AUG-CC-PVTZ-JKFIT
	 Reference Energy          =    -512.8850614868247249 [Eh]
	 Singles Energy            =      -0.0000000000000000 [Eh]
	 Same-Spin Energy          =      -0.5113737093052106 [Eh]
	 Opposite-Spin Energy      =      -1.6150295078554056 [Eh]
	 Correlation Energy        =      -2.1264032171606164 [Eh]
	 Total Energy              =    -515.0114647039853253 [Eh]

	 ================> DF-SCS-MP2 Energies <==================
	-----------------------------------------------------------
	 SCS Same-Spin Scale       =       0.3333333333333333 [-]
	 SCS Opposite-Spin Scale   =       1.2000000000000000 [-]
	 SCS Same-Spin Energy      =      -0.1704579031017369 [Eh]
	 SCS Opposite-Spin Energy  =      -1.9380354094264867 [Eh]
	 SCS Correlation Energy    =      -2.1084933125282235 [Eh]
	 SCS Total Energy          =    -514.9935547993529781 [Eh]
	-----------------------------------------------------------

  Dipole Moment: [D]
     X:    -0.1013      Y:     3.3763      Z:    -1.8703     Total:     3.8610

*** Psi4 exiting successfully. Buy a developer a beer!
