                               Psi4 1.4a3.dev225

  ==> Input File <==

--------------------------------------------------------------------------
#psi4
#
memory 32 gb

molecule  {
0 1
  O       -2.1439760    -1.5096120     0.4578230
  O        1.6019480     1.2946100    -0.5777250
  O       -3.1849820    -0.0999640    -0.9818910
  N        0.1649120    -0.2715720     0.2333030
  C       -1.0051050     0.5087660    -0.1211110
  C       -1.3212480     1.5963590     0.9125160
  C        2.5597860    -0.6480590     0.5035240
  C        1.4183570     0.2162400    -0.0039080
  C       -2.1758649    -0.3474113    -0.2950853
  C        3.7806550    -0.5458820    -0.4040570
  H       -0.8075500     0.9861290    -1.0847450
  H        0.0342290    -1.1271740     0.7572540
  H       -1.5188550     1.1449870     1.8886910
  H       -0.4592110     2.2615650     0.9886780
  H       -2.1947650     2.1753270     0.6002850
  H        2.8115640    -0.2961200     1.5118980
  H        2.2315720    -1.6889350     0.6045970
  H        4.0689510     0.4992230    -0.5227640
  H        4.6219880    -1.1034150     0.0157220
  H        3.5611410    -0.9492480    -1.3958190
  H       -2.9864200    -1.9858630     0.3018850
units angstrom
no_reorient  #important for SAPT in psi4, default
symmetry c1  #important for SAPT in psi4, default
}

set PROPERTIES_ORIGIN ["COM"]
properties('MP2/aug-cc-pvtz', properties = ['dipole'])
--------------------------------------------------------------------------

    Molecular point group: c1
  Charge       = 0
  Multiplicity = 1
  Basis Set: AUG-CC-PVTZ
    Blend: AUG-CC-PVTZ
  Basis Set: (AUG-CC-PVTZ AUX)
    Blend: AUG-CC-PVTZ-JKFIT

    Orbital Energies [Eh]
    ---------------------

    Doubly Occupied:

       1A    -20.629805     2A    -20.562855     3A    -20.524995
       4A    -15.598643     5A    -11.408149     6A    -11.359094
       7A    -11.298481     8A    -11.249184     9A    -11.237285
      10A    -11.222937    11A     -1.463074    12A     -1.381786
      13A     -1.353858    14A     -1.250400    15A     -1.083321
      16A     -1.042651    17A     -0.935587    18A     -0.888659
      19A     -0.822835    20A     -0.795151    21A     -0.730341
      22A     -0.707305    23A     -0.681190    24A     -0.659854
      25A     -0.637965    26A     -0.630721    27A     -0.607434
      28A     -0.601530    29A     -0.594451    30A     -0.554023
      31A     -0.544062    32A     -0.535722    33A     -0.525209
      34A     -0.515576    35A     -0.496115    36A     -0.482199
      37A     -0.469738    38A     -0.429670    39A     -0.403857

  @DF-RHF Final Energy:  -512.87886112380545

   => Energetics <=

    Nuclear Repulsion Energy =            547.9557098374759789
    One-Electron Energy =               -1787.8377207915218605
    Two-Electron Energy =                 727.0031498302404316
    Total Energy =                       -512.8788611238054500
  Basis Set: (AUG-CC-PVTZ AUX)
    Blend: AUG-CC-PVTZ-RI
    Molecular point group: c1

    Geometry (in Angstrom), charge = 0, multiplicity = 1:

       Center              X                  Y                   Z               Mass
    ------------   -----------------  -----------------  -----------------  -----------------
         O           -2.083392642029    -1.512612386360     0.482356809842    15.994914619570
         O            1.662531357971     1.291609613640    -0.553191190158    15.994914619570
         O           -3.124398642029    -0.102964386360    -0.957357190158    15.994914619570
         N            0.225495357971    -0.274572386360     0.257836809842    14.003074004430
         C           -0.944521642029     0.505765613640    -0.096577190158    12.000000000000
         C           -1.260664642029     1.593358613640     0.937049809842    12.000000000000
         C            2.620369357971    -0.651059386360     0.528057809842    12.000000000000
         C            1.478940357971     0.213239613640     0.020625809842    12.000000000000
         C           -2.115281542029    -0.350411686360    -0.270551490158    12.000000000000
         C            3.841238357971    -0.548882386360    -0.379523190158    12.000000000000
         H           -0.746966642029     0.983128613640    -1.060211190158     1.007825032230
         H            0.094812357971    -1.130174386360     0.781787809842     1.007825032230
         H           -1.458271642029     1.141986613640     1.913224809842     1.007825032230
         H           -0.398627642029     2.258564613640     1.013211809842     1.007825032230
         H           -2.134181642029     2.172326613640     0.624818809842     1.007825032230
         H            2.872147357971    -0.299120386360     1.536431809842     1.007825032230
         H            2.292155357971    -1.691935386360     0.629130809842     1.007825032230
         H            4.129534357971     0.496222613640    -0.498230190158     1.007825032230
         H            4.682571357971    -1.106415386360     0.040255809842     1.007825032230
         H            3.621724357971    -0.952248386360    -1.371285190158     1.007825032230
         H           -2.925836642029    -1.988863386360     0.326418809842     1.007825032230

  Basis Set: AUG-CC-PVTZ
    Blend: AUG-CC-PVTZ
  Basis Set: (AUG-CC-PVTZ AUX)
    Blend: AUG-CC-PVTZ-JKFIT
	 Reference Energy          =    -512.8788611238054500 [Eh]
	 Singles Energy            =      -0.0000000000000000 [Eh]
	 Same-Spin Energy          =      -0.5123026734620972 [Eh]
	 Opposite-Spin Energy      =      -1.6173454254673008 [Eh]
	 Correlation Energy        =      -2.1296480989293980 [Eh]
	 Total Energy              =    -515.0085092227348014 [Eh]

	 ================> DF-SCS-MP2 Energies <==================
	-----------------------------------------------------------
	 SCS Same-Spin Scale       =       0.3333333333333333 [-]
	 SCS Opposite-Spin Scale   =       1.2000000000000000 [-]
	 SCS Same-Spin Energy      =      -0.1707675578206991 [Eh]
	 SCS Opposite-Spin Energy  =      -1.9408145105607608 [Eh]
	 SCS Correlation Energy    =      -2.1115820683814599 [Eh]
	 SCS Total Energy          =    -514.9904431921869445 [Eh]
	-----------------------------------------------------------

  Dipole Moment: [D]
     X:     0.0344      Y:    -2.8526      Z:     2.6890     Total:     3.9204

*** Psi4 exiting successfully. Buy a developer a beer!
