                               Psi4 1.3.2 release

  ==> Input File <==

--------------------------------------------------------------------------
#psi4
#
memory 32 gb

molecule  {
0 1
  O       -1.9705880     1.6613530    -0.1848000
  O        1.6688240    -1.2224340     0.6437850
  O       -3.2913740    -0.0479250     0.4948630
  N        0.2280800     0.2473555    -0.2683256
  C       -0.9510770    -0.4970410     0.1176100
  C       -1.1968270    -1.6816620    -0.8184860
  C        2.5789920     0.8068070    -0.3378900
  C        1.4682490    -0.1481810     0.0706060
  C       -2.2048945     0.3447131     0.1916002
  C        3.9506640     0.3320720     0.1153760
  H       -0.7838570    -0.8897150     1.1288390
  H        0.0750270     1.1966100    -0.6451490
  H       -1.3515420    -1.3283180    -1.8408860
  H       -0.3238960    -2.3346980    -0.7915570
  H       -2.0788080    -2.2361410    -0.4923840
  H        2.5479870     0.9167430    -1.4288930
  H        2.3554820     1.7990610     0.0733550
  H        4.1782080    -0.6474400    -0.3069900
  H        4.7194550     1.0404130    -0.2050590
  H        3.9903360     0.2413970     1.2016820
  H       -2.8462050     2.0977190    -0.1239210
units angstrom
no_reorient  #important for SAPT in psi4, default
symmetry c1  #important for SAPT in psi4, default
}

set PROPERTIES_ORIGIN ["COM"]
properties('MP2/aug-cc-pvtz', properties = ['dipole'])
--------------------------------------------------------------------------

    Molecular point group: c1
  Charge       = 0
  Multiplicity = 1
  Basis Set: AUG-CC-PVTZ
    Blend: AUG-CC-PVTZ
  Basis Set: (AUG-CC-PVTZ AUX)
    Blend: AUG-CC-PVTZ-JKFIT

    Orbital Energies [Eh]
    ---------------------

    Doubly Occupied:

       1A    -20.630489     2A    -20.570871     3A    -20.520288
       4A    -15.593759     5A    -11.406047     6A    -11.352458
       7A    -11.298004     8A    -11.246475     9A    -11.227542
      10A    -11.218814    11A     -1.476789    12A     -1.382510
      13A     -1.379345    14A     -1.246392    15A     -1.076628
      16A     -1.036606    17A     -0.926907    18A     -0.884851
      19A     -0.810962    20A     -0.792323    21A     -0.731273
      22A     -0.714609    23A     -0.682388    24A     -0.666149
      25A     -0.641225    26A     -0.635211    27A     -0.613434
      28A     -0.600413    29A     -0.579577    30A     -0.547956
      31A     -0.545926    32A     -0.522923    33A     -0.521805
      34A     -0.518993    35A     -0.502790    36A     -0.489718
      37A     -0.470231    38A     -0.426722    39A     -0.399808

  @DF-RHF Final Energy:  -512.88510552721630

   => Energetics <=

    Nuclear Repulsion Energy =            548.2246442884359112
    One-Electron Energy =               -1788.4410827328094911
    Two-Electron Energy =                 727.3313329171572832
    Total Energy =                       -512.8851055272162967
  Basis Set: (AUG-CC-PVTZ AUX)
    Blend: AUG-CC-PVTZ-RI
    Molecular point group: c1

    Geometry (in Angstrom), charge = 0, multiplicity = 1:

       Center              X                  Y                   Z               Mass
    ------------   -----------------  -----------------  -----------------  -----------------
         O           -1.970776690350     1.665125894359    -0.185539747776    15.994914619570
         O            1.668635309650    -1.218661105641     0.643045252224    15.994914619570
         O           -3.291562690350    -0.044152105641     0.494123252224    15.994914619570
         N            0.227891309650     0.251128394359    -0.269065347776    14.003074004430
         C           -0.951265690350    -0.493268105641     0.116870252224    12.000000000000
         C           -1.197015690350    -1.677889105641    -0.819225747776    12.000000000000
         C            2.578803309650     0.810579894359    -0.338629747776    12.000000000000
         C            1.468060309650    -0.144408105641     0.069866252224    12.000000000000
         C           -2.205083190350     0.348485994359     0.190860452224    12.000000000000
         C            3.950475309650     0.335844894359     0.114636252224    12.000000000000
         H           -0.784045690350    -0.885942105641     1.128099252224     1.007825032230
         H            0.074838309650     1.200382894359    -0.645888747776     1.007825032230
         H           -1.351730690350    -1.324545105641    -1.841625747776     1.007825032230
         H           -0.324084690350    -2.330925105641    -0.792296747776     1.007825032230
         H           -2.078996690350    -2.232368105641    -0.493123747776     1.007825032230
         H            2.547798309650     0.920515894359    -1.429632747776     1.007825032230
         H            2.355293309650     1.802833894359     0.072615252224     1.007825032230
         H            4.178019309650    -0.643667105641    -0.307729747776     1.007825032230
         H            4.719266309650     1.044185894359    -0.205798747776     1.007825032230
         H            3.990147309650     0.245169894359     1.200942252224     1.007825032230
         H           -2.846393690350     2.101491894359    -0.124660747776     1.007825032230

  Basis Set: AUG-CC-PVTZ
    Blend: AUG-CC-PVTZ
  Basis Set: (AUG-CC-PVTZ AUX)
    Blend: AUG-CC-PVTZ-JKFIT
	 Reference Energy          =    -512.8851055272162967 [Eh]
	 Singles Energy            =      -0.0000000000000000 [Eh]
	 Same-Spin Energy          =      -0.5111818979184345 [Eh]
	 Opposite-Spin Energy      =      -1.6146431819099809 [Eh]
	 Correlation Energy        =      -2.1258250798284153 [Eh]
	 Total Energy              =    -515.0109306070446564 [Eh]

	 ================> DF-SCS-MP2 Energies <==================
	-----------------------------------------------------------
	 SCS Same-Spin Scale       =       0.3333333333333333 [-]
	 SCS Opposite-Spin Scale   =       1.2000000000000000 [-]
	 SCS Same-Spin Energy      =      -0.1703939659728115 [Eh]
	 SCS Opposite-Spin Energy  =      -1.9375718182919770 [Eh]
	 SCS Correlation Energy    =      -2.1079657842647883 [Eh]
	 SCS Total Energy          =    -514.9930713114811169 [Eh]
	-----------------------------------------------------------

  Dipole Moment: [D]
     X:    -0.3036      Y:     3.2533      Z:    -1.8190     Total:     3.7397

*** Psi4 exiting successfully. Buy a developer a beer!
