                               Psi4 1.3.2 release

  ==> Input File <==

--------------------------------------------------------------------------
#psi4
#
memory 32 gb

molecule  {
0 1
  O       -1.9705880     1.6613530    -0.1848000
  O        1.6688240    -1.2224340     0.6437850
  O       -3.2913740    -0.0479250     0.4948630
  N        0.2140730     0.2683100    -0.2698780
  C       -0.9510770    -0.4970410     0.1176100
  C       -1.1968270    -1.6816620    -0.8184860
  C        2.5789920     0.8068070    -0.3378900
  C        1.4682490    -0.1481810     0.0706060
  C       -2.1908320     0.3658730     0.1844680
  C        3.9586923     0.3318589     0.0900807
  H       -0.7838570    -0.8897150     1.1288390
  H        0.0750270     1.1966100    -0.6451490
  H       -1.3515420    -1.3283180    -1.8408860
  H       -0.3238960    -2.3346980    -0.7915570
  H       -2.0788080    -2.2361410    -0.4923840
  H        2.5662468     0.9110619    -1.4298164
  H        2.3554820     1.7990610     0.0733550
  H        4.1782080    -0.6474400    -0.3069900
  H        4.7194550     1.0404130    -0.2050590
  H        3.9903360     0.2413970     1.2016820
  H       -2.8462050     2.0977190    -0.1239210
units angstrom
no_reorient  #important for SAPT in psi4, default
symmetry c1  #important for SAPT in psi4, default
}

set PROPERTIES_ORIGIN ["COM"]
properties('MP2/aug-cc-pvtz', properties = ['dipole'])
--------------------------------------------------------------------------

    Molecular point group: c1
  Charge       = 0
  Multiplicity = 1
  Basis Set: AUG-CC-PVTZ
    Blend: AUG-CC-PVTZ
  Basis Set: (AUG-CC-PVTZ AUX)
    Blend: AUG-CC-PVTZ-JKFIT

    Orbital Energies [Eh]
    ---------------------

    Doubly Occupied:

       1A    -20.636667     2A    -20.564652     3A    -20.524778
       4A    -15.591821     5A    -11.405813     6A    -11.356330
       7A    -11.297280     8A    -11.247205     9A    -11.226908
      10A    -11.219472    11A     -1.478721    12A     -1.380674
      13A     -1.373895    14A     -1.246221    15A     -1.075516
      16A     -1.035943    17A     -0.928334    18A     -0.885794
      19A     -0.816995    20A     -0.792702    21A     -0.731163
      22A     -0.714830    23A     -0.683089    24A     -0.666185
      25A     -0.641341    26A     -0.634115    27A     -0.610804
      28A     -0.602468    29A     -0.581960    30A     -0.547811
      31A     -0.544547    32A     -0.527637    33A     -0.522144
      34A     -0.516429    35A     -0.496370    36A     -0.487410
      37A     -0.468506    38A     -0.428562    39A     -0.400212

  @DF-RHF Final Energy:  -512.88521335538326

   => Energetics <=

    Nuclear Repulsion Energy =            547.9299897803321073
    One-Electron Energy =               -1787.8477957537875227
    Two-Electron Energy =                 727.0325926180721581
    Total Energy =                       -512.8852133553832573
  Basis Set: (AUG-CC-PVTZ AUX)
    Blend: AUG-CC-PVTZ-RI
    Molecular point group: c1

    Geometry (in Angstrom), charge = 0, multiplicity = 1:

       Center              X                  Y                   Z               Mass
    ------------   -----------------  -----------------  -----------------  -----------------
         O           -1.971378805755     1.661410108924    -0.182701201236    15.994914619570
         O            1.668033194245    -1.222376891076     0.645883798764    15.994914619570
         O           -3.292164805755    -0.047867891076     0.496961798764    15.994914619570
         N            0.213282194245     0.268367108924    -0.267779201236    14.003074004430
         C           -0.951867805755    -0.496983891076     0.119708798764    12.000000000000
         C           -1.197617805755    -1.681604891076    -0.816387201236    12.000000000000
         C            2.578201194245     0.806864108924    -0.335791201236    12.000000000000
         C            1.467458194245    -0.148123891076     0.072704798764    12.000000000000
         C           -2.191622805755     0.365930108924     0.186566798764    12.000000000000
         C            3.957901494245     0.331916008924     0.092179498764    12.000000000000
         H           -0.784647805755    -0.889657891076     1.130937798764     1.007825032230
         H            0.074236194245     1.196667108924    -0.643050201236     1.007825032230
         H           -1.352332805755    -1.328260891076    -1.838787201236     1.007825032230
         H           -0.324686805755    -2.334640891076    -0.789458201236     1.007825032230
         H           -2.079598805755    -2.236083891076    -0.490285201236     1.007825032230
         H            2.565455994245     0.911119008924    -1.427717601236     1.007825032230
         H            2.354691194245     1.799118108924     0.075453798764     1.007825032230
         H            4.177417194245    -0.647382891076    -0.304891201236     1.007825032230
         H            4.718664194245     1.040470108924    -0.202960201236     1.007825032230
         H            3.989545194245     0.241454108924     1.203780798764     1.007825032230
         H           -2.846995805755     2.097776108924    -0.121822201236     1.007825032230

  Basis Set: AUG-CC-PVTZ
    Blend: AUG-CC-PVTZ
  Basis Set: (AUG-CC-PVTZ AUX)
    Blend: AUG-CC-PVTZ-JKFIT
	 Reference Energy          =    -512.8852133553832573 [Eh]
	 Singles Energy            =      -0.0000000000000000 [Eh]
	 Same-Spin Energy          =      -0.5113307036210706 [Eh]
	 Opposite-Spin Energy      =      -1.6149874444489809 [Eh]
	 Correlation Energy        =      -2.1263181480700517 [Eh]
	 Total Energy              =    -515.0115315034532841 [Eh]

	 ================> DF-SCS-MP2 Energies <==================
	-----------------------------------------------------------
	 SCS Same-Spin Scale       =       0.3333333333333333 [-]
	 SCS Opposite-Spin Scale   =       1.2000000000000000 [-]
	 SCS Same-Spin Energy      =      -0.1704435678736902 [Eh]
	 SCS Opposite-Spin Energy  =      -1.9379849333387771 [Eh]
	 SCS Correlation Energy    =      -2.1084285012124671 [Eh]
	 SCS Total Energy          =    -514.9936418565956728 [Eh]
	-----------------------------------------------------------

  Dipole Moment: [D]
     X:    -0.0938      Y:     3.3668      Z:    -1.8711     Total:     3.8529

*** Psi4 exiting successfully. Buy a developer a beer!
