                               Psi4 1.3.2 release

  ==> Input File <==

--------------------------------------------------------------------------
#psi4
#
memory 32 gb

molecule  {
0 1
  O       -1.9705880     1.6613530    -0.1848000
  O        1.6688240    -1.2224340     0.6437850
  O       -3.2913740    -0.0479250     0.4948630
  N        0.2140730     0.2683100    -0.2698780
  C       -0.9510770    -0.4970410     0.1176100
  C       -1.1968270    -1.6816620    -0.8184860
  C        2.5789920     0.8068070    -0.3378900
  C        1.6143292    -0.0225850     0.0168823
  C       -2.1908320     0.3658730     0.1844680
  C        3.9506640     0.3320720     0.1153760
  H       -0.7838570    -0.8897150     1.1288390
  H        0.0750270     1.1966100    -0.6451490
  H       -1.3515420    -1.3283180    -1.8408860
  H       -0.3238960    -2.3346980    -0.7915570
  H       -2.0788080    -2.2361410    -0.4923840
  H        2.5479870     0.9167430    -1.4288930
  H        2.3554820     1.7990610     0.0733550
  H        4.1782080    -0.6474400    -0.3069900
  H        4.7194550     1.0404130    -0.2050590
  H        3.9903360     0.2413970     1.2016820
  H       -2.8462050     2.0977190    -0.1239210
units angstrom
no_reorient  #important for SAPT in psi4, default
symmetry c1  #important for SAPT in psi4, default
}

set PROPERTIES_ORIGIN ["COM"]
properties('MP2/aug-cc-pvtz', properties = ['dipole'])
--------------------------------------------------------------------------

    Molecular point group: c1
  Charge       = 0
  Multiplicity = 1
  Basis Set: AUG-CC-PVTZ
    Blend: AUG-CC-PVTZ
  Basis Set: (AUG-CC-PVTZ AUX)
    Blend: AUG-CC-PVTZ-JKFIT

    Orbital Energies [Eh]
    ---------------------

    Doubly Occupied:

       1A    -20.631495     2A    -20.560366     3A    -20.518638
       4A    -15.586336     5A    -11.401559     6A    -11.373795
       7A    -11.293342     8A    -11.254024     9A    -11.232973
      10A    -11.220135    11A     -1.473775    12A     -1.369431
      13A     -1.321087    14A     -1.209661    15A     -1.121386
      16A     -1.034058    17A     -0.935288    18A     -0.907863
      19A     -0.810920    20A     -0.768080    21A     -0.730324
      22A     -0.710647    23A     -0.693825    24A     -0.671091
      25A     -0.655955    26A     -0.625469    27A     -0.606787
      28A     -0.589722    29A     -0.564188    30A     -0.546734
      31A     -0.538667    32A     -0.532731    33A     -0.523350
      34A     -0.520909    35A     -0.493550    36A     -0.462841
      37A     -0.461464    38A     -0.426971    39A     -0.381364

  @DF-RHF Final Energy:  -512.81416245056687

   => Energetics <=

    Nuclear Repulsion Energy =            546.5171946275439723
    One-Electron Energy =               -1785.1411184999840316
    Two-Electron Energy =                 725.8097614218733042
    Total Energy =                       -512.8141624505668688
  Basis Set: (AUG-CC-PVTZ AUX)
    Blend: AUG-CC-PVTZ-RI
    Molecular point group: c1

    Geometry (in Angstrom), charge = 0, multiplicity = 1:

       Center              X                  Y                   Z               Mass
    ------------   -----------------  -----------------  -----------------  -----------------
         O           -1.982671120865     1.650964158098    -0.180356119245    15.994914619570
         O            1.656740879135    -1.232822841902     0.648228880755    15.994914619570
         O           -3.303457120865    -0.058313841902     0.499306880755    15.994914619570
         N            0.201989879135     0.257921158098    -0.265434119245    14.003074004430
         C           -0.963160120865    -0.507429841902     0.122053880755    12.000000000000
         C           -1.208910120865    -1.692050841902    -0.814042119245    12.000000000000
         C            2.566908879135     0.796418158098    -0.333446119245    12.000000000000
         C            1.602246079135    -0.032973841902     0.021326180755    12.000000000000
         C           -2.202915120865     0.355484158098     0.188911880755    12.000000000000
         C            3.938580879135     0.321683158098     0.119819880755    12.000000000000
         H           -0.795940120865    -0.900103841902     1.133282880755     1.007825032230
         H            0.062943879135     1.186221158098    -0.640705119245     1.007825032230
         H           -1.363625120865    -1.338706841902    -1.836442119245     1.007825032230
         H           -0.335979120865    -2.345086841902    -0.787113119245     1.007825032230
         H           -2.090891120865    -2.246529841902    -0.487940119245     1.007825032230
         H            2.535903879135     0.906354158098    -1.424449119245     1.007825032230
         H            2.343398879135     1.788672158098     0.077798880755     1.007825032230
         H            4.166124879135    -0.657828841902    -0.302546119245     1.007825032230
         H            4.707371879135     1.030024158098    -0.200615119245     1.007825032230
         H            3.978252879135     0.231008158098     1.206125880755     1.007825032230
         H           -2.858288120865     2.087330158098    -0.119477119245     1.007825032230

  Basis Set: AUG-CC-PVTZ
    Blend: AUG-CC-PVTZ
  Basis Set: (AUG-CC-PVTZ AUX)
    Blend: AUG-CC-PVTZ-JKFIT
	 Reference Energy          =    -512.8141624505668688 [Eh]
	 Singles Energy            =      -0.0000000000000000 [Eh]
	 Same-Spin Energy          =      -0.5169872038664592 [Eh]
	 Opposite-Spin Energy      =      -1.6254989372859305 [Eh]
	 Correlation Energy        =      -2.1424861411523897 [Eh]
	 Total Energy              =    -514.9566485917192722 [Eh]

	 ================> DF-SCS-MP2 Energies <==================
	-----------------------------------------------------------
	 SCS Same-Spin Scale       =       0.3333333333333333 [-]
	 SCS Opposite-Spin Scale   =       1.2000000000000000 [-]
	 SCS Same-Spin Energy      =      -0.1723290679554864 [Eh]
	 SCS Opposite-Spin Energy  =      -1.9505987247431165 [Eh]
	 SCS Correlation Energy    =      -2.1229277926986030 [Eh]
	 SCS Total Energy          =    -514.9370902432655157 [Eh]
	-----------------------------------------------------------

  Dipole Moment: [D]
     X:     0.8614      Y:     3.8728      Z:    -2.0272     Total:     4.4553

*** Psi4 exiting successfully. Buy a developer a beer!
