                               Psi4 1.3.2 release

  ==> Input File <==

--------------------------------------------------------------------------
#psi4
#
memory 32 gb

molecule  {
0 1
  O       -1.9705880     1.6613530    -0.1848000
  O        1.6688240    -1.2224340     0.6437850
  O       -3.2913740    -0.0479250     0.4948630
  N        0.2140730     0.2683100    -0.2698780
  C       -0.9510770    -0.4970410     0.1176100
  C       -1.1968270    -1.6816620    -0.8184860
  C        2.5789920     0.8068070    -0.3378900
  C        1.4682490    -0.1481810     0.0706060
  C       -2.2138876     0.3709305     0.1876912
  C        3.9506640     0.3320720     0.1153760
  H       -0.7838570    -0.8897150     1.1288390
  H        0.0750270     1.1966100    -0.6451490
  H       -1.3515420    -1.3283180    -1.8408860
  H       -0.3238960    -2.3346980    -0.7915570
  H       -2.0788080    -2.2361410    -0.4923840
  H        2.5479870     0.9167430    -1.4288930
  H        2.3554820     1.7990610     0.0733550
  H        4.1782080    -0.6474400    -0.3069900
  H        4.7194550     1.0404130    -0.2050590
  H        3.9903360     0.2413970     1.2016820
  H       -2.8530730     2.0828945    -0.1188473
units angstrom
no_reorient  #important for SAPT in psi4, default
symmetry c1  #important for SAPT in psi4, default
}

set PROPERTIES_ORIGIN ["COM"]
properties('MP2/aug-cc-pvtz', properties = ['dipole'])
--------------------------------------------------------------------------

    Molecular point group: c1
  Charge       = 0
  Multiplicity = 1
  Basis Set: AUG-CC-PVTZ
    Blend: AUG-CC-PVTZ
  Basis Set: (AUG-CC-PVTZ AUX)
    Blend: AUG-CC-PVTZ-JKFIT

    Orbital Energies [Eh]
    ---------------------

    Doubly Occupied:

       1A    -20.636563     2A    -20.567905     3A    -20.523617
       4A    -15.590442     5A    -11.403773     6A    -11.354959
       7A    -11.295913     8A    -11.246586     9A    -11.225412
      10A    -11.219050    11A     -1.483994    12A     -1.385561
      13A     -1.379311    14A     -1.244093    15A     -1.072996
      16A     -1.033421    17A     -0.924532    18A     -0.884136
      19A     -0.814098    20A     -0.791880    21A     -0.730751
      22A     -0.718025    23A     -0.682106    24A     -0.666798
      25A     -0.641971    26A     -0.636706    27A     -0.612404
      28A     -0.602274    29A     -0.579987    30A     -0.546349
      31A     -0.544897    32A     -0.523692    33A     -0.521039
      34A     -0.519300    35A     -0.502249    36A     -0.489504
      37A     -0.467253    38A     -0.427249    39A     -0.398828

  @DF-RHF Final Energy:  -512.88685068833649

   => Energetics <=

    Nuclear Repulsion Energy =            547.9707014433403174
    One-Electron Energy =               -1787.9358543700461723
    Two-Electron Energy =                 727.0783022383692469
    Total Energy =                       -512.8868506883364944
  Basis Set: (AUG-CC-PVTZ AUX)
    Blend: AUG-CC-PVTZ-RI
    Molecular point group: c1

    Geometry (in Angstrom), charge = 0, multiplicity = 1:

       Center              X                  Y                   Z               Mass
    ------------   -----------------  -----------------  -----------------  -----------------
         O           -1.968633093091     1.661037662501    -0.185101812536    15.994914619570
         O            1.670778906909    -1.222749337499     0.643483187464    15.994914619570
         O           -3.289419093091    -0.048240337499     0.494561187464    15.994914619570
         N            0.216027906909     0.267994662501    -0.270179812536    14.003074004430
         C           -0.949122093091    -0.497356337499     0.117308187464    12.000000000000
         C           -1.194872093091    -1.681977337499    -0.818787812536    12.000000000000
         C            2.580946906909     0.806491662501    -0.338191812536    12.000000000000
         C            1.470203906909    -0.148496337499     0.070304187464    12.000000000000
         C           -2.211932693091     0.370615162501     0.187389387464    12.000000000000
         C            3.952618906909     0.331756662501     0.115074187464    12.000000000000
         H           -0.781902093091    -0.890030337499     1.128537187464     1.007825032230
         H            0.076981906909     1.196294662501    -0.645450812536     1.007825032230
         H           -1.349587093091    -1.328633337499    -1.841187812536     1.007825032230
         H           -0.321941093091    -2.335013337499    -0.791858812536     1.007825032230
         H           -2.076853093091    -2.236456337499    -0.492685812536     1.007825032230
         H            2.549941906909     0.916427662501    -1.429194812536     1.007825032230
         H            2.357436906909     1.798745662501     0.073053187464     1.007825032230
         H            4.180162906909    -0.647755337499    -0.307291812536     1.007825032230
         H            4.721409906909     1.040097662501    -0.205360812536     1.007825032230
         H            3.992290906909     0.241081662501     1.201380187464     1.007825032230
         H           -2.851118093091     2.082579162501    -0.119149112536     1.007825032230

  Basis Set: AUG-CC-PVTZ
    Blend: AUG-CC-PVTZ
  Basis Set: (AUG-CC-PVTZ AUX)
    Blend: AUG-CC-PVTZ-JKFIT
	 Reference Energy          =    -512.8868506883364944 [Eh]
	 Singles Energy            =      -0.0000000000000000 [Eh]
	 Same-Spin Energy          =      -0.5108908455292712 [Eh]
	 Opposite-Spin Energy      =      -1.6140904465779333 [Eh]
	 Correlation Energy        =      -2.1249812921072047 [Eh]
	 Total Energy              =    -515.0118319804437306 [Eh]

	 ================> DF-SCS-MP2 Energies <==================
	-----------------------------------------------------------
	 SCS Same-Spin Scale       =       0.3333333333333333 [-]
	 SCS Opposite-Spin Scale   =       1.2000000000000000 [-]
	 SCS Same-Spin Energy      =      -0.1702969485097571 [Eh]
	 SCS Opposite-Spin Energy  =      -1.9369085358935199 [Eh]
	 SCS Correlation Energy    =      -2.1072054844032770 [Eh]
	 SCS Total Energy          =    -514.9940561727397608 [Eh]
	-----------------------------------------------------------

  Dipole Moment: [D]
     X:    -0.2450      Y:     3.3666      Z:    -1.8218     Total:     3.8357

*** Psi4 exiting successfully. Buy a developer a beer!
