                               Psi4 1.3.2 release

  ==> Input File <==

--------------------------------------------------------------------------
#psi4
#
memory 32 gb

molecule  {
0 1
  O       -1.9705880     1.6613530    -0.1848000
  O        1.6688240    -1.2224340     0.6437850
  O       -3.2913740    -0.0479250     0.4948630
  N        0.2140730     0.2683100    -0.2698780
  C       -0.9510770    -0.4970410     0.1176100
  C       -1.1968270    -1.6816620    -0.8184860
  C        2.5789920     0.8068070    -0.3378900
  C        1.4768903    -0.1270637     0.0637739
  C       -2.1908320     0.3658730     0.1844680
  C        3.9506640     0.3320720     0.1153760
  H       -0.7838570    -0.8897150     1.1288390
  H        0.0923631     1.1995902    -0.6437857
  H       -1.3515420    -1.3283180    -1.8408860
  H       -0.3238960    -2.3346980    -0.7915570
  H       -2.0788080    -2.2361410    -0.4923840
  H        2.5479870     0.9167430    -1.4288930
  H        2.3554820     1.7990610     0.0733550
  H        4.1782080    -0.6474400    -0.3069900
  H        4.7194550     1.0404130    -0.2050590
  H        3.9903360     0.2413970     1.2016820
  H       -2.8462050     2.0977190    -0.1239210
units angstrom
no_reorient  #important for SAPT in psi4, default
symmetry c1  #important for SAPT in psi4, default
}

set PROPERTIES_ORIGIN ["COM"]
properties('MP2/aug-cc-pvtz', properties = ['dipole'])
--------------------------------------------------------------------------

    Molecular point group: c1
  Charge       = 0
  Multiplicity = 1
  Basis Set: AUG-CC-PVTZ
    Blend: AUG-CC-PVTZ
  Basis Set: (AUG-CC-PVTZ AUX)
    Blend: AUG-CC-PVTZ-JKFIT

    Orbital Energies [Eh]
    ---------------------

    Doubly Occupied:

       1A    -20.636409     2A    -20.564642     3A    -20.521608
       4A    -15.593145     5A    -11.405887     6A    -11.357086
       7A    -11.298118     8A    -11.248645     9A    -11.226734
      10A    -11.220761    11A     -1.478521    12A     -1.373982
      13A     -1.368934    14A     -1.243734    15A     -1.079029
      16A     -1.037723    17A     -0.928573    18A     -0.889524
      19A     -0.817082    20A     -0.790780    21A     -0.731915
      22A     -0.714651    23A     -0.683208    24A     -0.666334
      25A     -0.643015    26A     -0.633094    27A     -0.610646
      28A     -0.599018    29A     -0.579173    30A     -0.547489
      31A     -0.543694    32A     -0.525824    33A     -0.520863
      34A     -0.519622    35A     -0.498023    36A     -0.485546
      37A     -0.468134    38A     -0.428851    39A     -0.398515

  @DF-RHF Final Energy:  -512.88339281009200

   => Energetics <=

    Nuclear Repulsion Energy =            547.8518425749800826
    One-Electron Energy =               -1787.7133999533120914
    Two-Electron Energy =                 726.9781645682400040
    Total Energy =                       -512.8833928100920048
  Basis Set: (AUG-CC-PVTZ AUX)
    Blend: AUG-CC-PVTZ-RI
    Molecular point group: c1

    Geometry (in Angstrom), charge = 0, multiplicity = 1:

       Center              X                  Y                   Z               Mass
    ------------   -----------------  -----------------  -----------------  -----------------
         O           -1.971423094027     1.659585563728    -0.184244297575    15.994914619570
         O            1.667988905973    -1.224201436272     0.644340702425    15.994914619570
         O           -3.292209094027    -0.049692436272     0.495418702425    15.994914619570
         N            0.213237905973     0.266542563728    -0.269322297575    14.003074004430
         C           -0.951912094027    -0.498808436272     0.118165702425    12.000000000000
         C           -1.197662094027    -1.683429436272    -0.817930297575    12.000000000000
         C            2.578156905973     0.805039563728    -0.337334297575    12.000000000000
         C            1.476055205973    -0.128831136272     0.064329602425    12.000000000000
         C           -2.191667094027     0.364105563728     0.185023702425    12.000000000000
         C            3.949828905973     0.330304563728     0.115931702425    12.000000000000
         H           -0.784692094027    -0.891482436272     1.129394702425     1.007825032230
         H            0.091528005973     1.197822763728    -0.643229997575     1.007825032230
         H           -1.352377094027    -1.330085436272    -1.840330297575     1.007825032230
         H           -0.324731094027    -2.336465436272    -0.791001297575     1.007825032230
         H           -2.079643094027    -2.237908436272    -0.491828297575     1.007825032230
         H            2.547151905973     0.914975563728    -1.428337297575     1.007825032230
         H            2.354646905973     1.797293563728     0.073910702425     1.007825032230
         H            4.177372905973    -0.649207436272    -0.306434297575     1.007825032230
         H            4.718619905973     1.038645563728    -0.204503297575     1.007825032230
         H            3.989500905973     0.239629563728     1.202237702425     1.007825032230
         H           -2.847040094027     2.095951563728    -0.123365297575     1.007825032230

  Basis Set: AUG-CC-PVTZ
    Blend: AUG-CC-PVTZ
  Basis Set: (AUG-CC-PVTZ AUX)
    Blend: AUG-CC-PVTZ-JKFIT
	 Reference Energy          =    -512.8833928100920048 [Eh]
	 Singles Energy            =      -0.0000000000000000 [Eh]
	 Same-Spin Energy          =      -0.5118328835552417 [Eh]
	 Opposite-Spin Energy      =      -1.6159218148681362 [Eh]
	 Correlation Energy        =      -2.1277546984233782 [Eh]
	 Total Energy              =    -515.0111475085153643 [Eh]

	 ================> DF-SCS-MP2 Energies <==================
	-----------------------------------------------------------
	 SCS Same-Spin Scale       =       0.3333333333333333 [-]
	 SCS Opposite-Spin Scale   =       1.2000000000000000 [-]
	 SCS Same-Spin Energy      =      -0.1706109611850806 [Eh]
	 SCS Opposite-Spin Energy  =      -1.9391061778417633 [Eh]
	 SCS Correlation Energy    =      -2.1097171390268441 [Eh]
	 SCS Total Energy          =    -514.9931099491188888 [Eh]
	-----------------------------------------------------------

  Dipole Moment: [D]
     X:    -0.0534      Y:     3.4612      Z:    -1.9064     Total:     3.9518

*** Psi4 exiting successfully. Buy a developer a beer!
