                               Psi4 1.3.2 release

  ==> Input File <==

--------------------------------------------------------------------------
#psi4
#
memory 32 gb

molecule  {
0 1
  O       -1.9705880     1.6613530    -0.1848000
  O        1.6688240    -1.2224340     0.6437850
  O       -3.2913740    -0.0479250     0.4948630
  N        0.2086488     0.2708341    -0.2809971
  C       -0.9510770    -0.4970410     0.1176100
  C       -1.1968270    -1.6816620    -0.8184860
  C        2.5789920     0.8068070    -0.3378900
  C        1.4682490    -0.1481810     0.0706060
  C       -2.1908320     0.3658730     0.1844680
  C        3.9506640     0.3320720     0.1153760
  H       -0.7924669    -0.8939048     1.1285905
  H        0.0750270     1.1966100    -0.6451490
  H       -1.3515420    -1.3283180    -1.8408860
  H       -0.3238960    -2.3346980    -0.7915570
  H       -2.0788080    -2.2361410    -0.4923840
  H        2.5479870     0.9167430    -1.4288930
  H        2.3554820     1.7990610     0.0733550
  H        4.1782080    -0.6474400    -0.3069900
  H        4.7194550     1.0404130    -0.2050590
  H        3.9903360     0.2413970     1.2016820
  H       -2.8462050     2.0977190    -0.1239210
units angstrom
no_reorient  #important for SAPT in psi4, default
symmetry c1  #important for SAPT in psi4, default
}

set PROPERTIES_ORIGIN ["COM"]
properties('MP2/aug-cc-pvtz', properties = ['dipole'])
--------------------------------------------------------------------------

    Molecular point group: c1
  Charge       = 0
  Multiplicity = 1
  Basis Set: AUG-CC-PVTZ
    Blend: AUG-CC-PVTZ
  Basis Set: (AUG-CC-PVTZ AUX)
    Blend: AUG-CC-PVTZ-JKFIT

    Orbital Energies [Eh]
    ---------------------

    Doubly Occupied:

       1A    -20.636215     2A    -20.564123     3A    -20.526424
       4A    -15.590909     5A    -11.405176     6A    -11.357337
       7A    -11.296868     8A    -11.247581     9A    -11.226393
      10A    -11.219864    11A     -1.478278    12A     -1.380734
      13A     -1.373443    14A     -1.245564    15A     -1.075182
      16A     -1.035570    17A     -0.927712    18A     -0.886102
      19A     -0.817016    20A     -0.791855    21A     -0.730797
      22A     -0.714637    23A     -0.683074    24A     -0.665696
      25A     -0.641378    26A     -0.634038    27A     -0.610133
      28A     -0.603752    29A     -0.580637    30A     -0.547021
      31A     -0.544273    32A     -0.524909    33A     -0.521243
      34A     -0.520066    35A     -0.497707    36A     -0.488598
      37A     -0.468017    38A     -0.428827    39A     -0.400432

  @DF-RHF Final Energy:  -512.88582547529040

   => Energetics <=

    Nuclear Repulsion Energy =            547.9185852475008005
    One-Electron Energy =               -1787.8336588462575492
    Two-Electron Energy =                 727.0292481234664592
    Total Energy =                       -512.8858254752904031
  Basis Set: (AUG-CC-PVTZ AUX)
    Blend: AUG-CC-PVTZ-RI
    Molecular point group: c1

    Geometry (in Angstrom), charge = 0, multiplicity = 1:

       Center              X                  Y                   Z               Mass
    ------------   -----------------  -----------------  -----------------  -----------------
         O           -1.970004505901     1.661138486459    -0.183724970555    15.994914619570
         O            1.669407494099    -1.222648513541     0.644860029445    15.994914619570
         O           -3.290790505901    -0.048139513541     0.495938029445    15.994914619570
         N            0.209232294099     0.270619586459    -0.279922070555    14.003074004430
         C           -0.950493505901    -0.497255513541     0.118685029445    12.000000000000
         C           -1.196243505901    -1.681876513541    -0.817410970555    12.000000000000
         C            2.579575494099     0.806592486459    -0.336814970555    12.000000000000
         C            1.468832494099    -0.148395513541     0.071681029445    12.000000000000
         C           -2.190248505901     0.365658486459     0.185543029445    12.000000000000
         C            3.951247494099     0.331857486459     0.116451029445    12.000000000000
         H           -0.791883405901    -0.894119313541     1.129665529445     1.007825032230
         H            0.075610494099     1.196395486459    -0.644073970555     1.007825032230
         H           -1.350958505901    -1.328532513541    -1.839810970555     1.007825032230
         H           -0.323312505901    -2.334912513541    -0.790481970555     1.007825032230
         H           -2.078224505901    -2.236355513541    -0.491308970555     1.007825032230
         H            2.548570494099     0.916528486459    -1.427817970555     1.007825032230
         H            2.356065494099     1.798846486459     0.074430029445     1.007825032230
         H            4.178791494099    -0.647654513541    -0.305914970555     1.007825032230
         H            4.720038494099     1.040198486459    -0.203983970555     1.007825032230
         H            3.990919494099     0.241182486459     1.202757029445     1.007825032230
         H           -2.845621505901     2.097504486459    -0.122845970555     1.007825032230

  Basis Set: AUG-CC-PVTZ
    Blend: AUG-CC-PVTZ
  Basis Set: (AUG-CC-PVTZ AUX)
    Blend: AUG-CC-PVTZ-JKFIT
	 Reference Energy          =    -512.8858254752904031 [Eh]
	 Singles Energy            =      -0.0000000000000000 [Eh]
	 Same-Spin Energy          =      -0.5112954747354146 [Eh]
	 Opposite-Spin Energy      =      -1.6149633969792996 [Eh]
	 Correlation Energy        =      -2.1262588717147142 [Eh]
	 Total Energy              =    -515.0120843470051568 [Eh]

	 ================> DF-SCS-MP2 Energies <==================
	-----------------------------------------------------------
	 SCS Same-Spin Scale       =       0.3333333333333333 [-]
	 SCS Opposite-Spin Scale   =       1.2000000000000000 [-]
	 SCS Same-Spin Energy      =      -0.1704318249118049 [Eh]
	 SCS Opposite-Spin Energy  =      -1.9379560763751593 [Eh]
	 SCS Correlation Energy    =      -2.1083879012869642 [Eh]
	 SCS Total Energy          =    -514.9942133765773633 [Eh]
	-----------------------------------------------------------

  Dipole Moment: [D]
     X:    -0.0405      Y:     3.3539      Z:    -1.8299     Total:     3.8209

*** Psi4 exiting successfully. Buy a developer a beer!
