                               Psi4 1.4a3.dev225

  ==> Input File <==

--------------------------------------------------------------------------
#psi4
#
memory 32 gb

molecule  {
0 1
  O        0.8159840    -1.0007070     0.0023930
  O        0.4905240     1.2598000     0.0069300
  N       -1.2790880    -0.2165130    -0.0579370
  C        0.0892546     0.1378161     0.0009109
  H       -1.5432550    -1.1606730     0.1825210
  H       -1.9348860     0.5218130     0.1496860
  H        1.7343390    -0.6700500     0.0057850
units angstrom
no_reorient  #important for SAPT in psi4, default
symmetry c1  #important for SAPT in psi4, default
}

set PROPERTIES_ORIGIN ["COM"]
properties('MP2/aug-cc-pvtz', properties = ['dipole'])
--------------------------------------------------------------------------

    Molecular point group: c1
  Charge       = 0
  Multiplicity = 1
  Basis Set: AUG-CC-PVTZ
    Blend: AUG-CC-PVTZ
  Basis Set: (AUG-CC-PVTZ AUX)
    Blend: AUG-CC-PVTZ-JKFIT

    Orbital Energies [Eh]
    ---------------------

    Doubly Occupied:

       1A    -20.624731     2A    -20.546484     3A    -15.588325
       4A    -11.417883     5A     -1.480339     6A     -1.378954
       7A     -1.203046     8A     -0.856098     9A     -0.743921
      10A     -0.715171    11A     -0.661960    12A     -0.654015
      13A     -0.615742    14A     -0.510664    15A     -0.474299
      16A     -0.435777

  @DF-RHF Final Energy:  -243.92350306746741

   => Energetics <=

    Nuclear Repulsion Energy =            123.0170329272564089
    One-Electron Energy =                -578.0662513548606967
    Two-Electron Energy =                 211.1257153601368657
    Total Energy =                       -243.9235030674674078
  Basis Set: (AUG-CC-PVTZ AUX)
    Blend: AUG-CC-PVTZ-RI
    Molecular point group: c1

    Geometry (in Angstrom), charge = 0, multiplicity = 1:

       Center              X                  Y                   Z               Mass
    ------------   -----------------  -----------------  -----------------  -----------------
         O            0.778290384887    -1.024421350606     0.007483566168    15.994914619570
         O            0.452830384887     1.236085649394     0.012020566168    15.994914619570
         N           -1.316781615113    -0.240227350606    -0.052846433832    14.003074004430
         C            0.051560984887     0.114101749394     0.006001466168    12.000000000000
         H           -1.580948615113    -1.184387350606     0.187611566168     1.007825032230
         H           -1.972579615113     0.498098649394     0.154776566168     1.007825032230
         H            1.696645384887    -0.693764350606     0.010875566168     1.007825032230

  Basis Set: AUG-CC-PVTZ
    Blend: AUG-CC-PVTZ
  Basis Set: (AUG-CC-PVTZ AUX)
    Blend: AUG-CC-PVTZ-JKFIT
	 Reference Energy          =    -243.9235030674674078 [Eh]
	 Singles Energy            =      -0.0000000000000000 [Eh]
	 Same-Spin Energy          =      -0.2311759743688130 [Eh]
	 Opposite-Spin Energy      =      -0.6871773100320868 [Eh]
	 Correlation Energy        =      -0.9183532844008998 [Eh]
	 Total Energy              =    -244.8418563518683015 [Eh]

	 ================> DF-SCS-MP2 Energies <==================
	-----------------------------------------------------------
	 SCS Same-Spin Scale       =       0.3333333333333333 [-]
	 SCS Opposite-Spin Scale   =       1.2000000000000000 [-]
	 SCS Same-Spin Energy      =      -0.0770586581229377 [Eh]
	 SCS Opposite-Spin Energy  =      -0.8246127720385041 [Eh]
	 SCS Correlation Energy    =      -0.9016714301614418 [Eh]
	 SCS Total Energy          =    -244.8251744976288364 [Eh]
	-----------------------------------------------------------

  Dipole Moment: [D]
     X:    -0.8798      Y:    -1.7130      Z:     0.6623     Total:     2.0364

*** Psi4 exiting successfully. Buy a developer a beer!
