                               Psi4 1.3.2 release

  ==> Input File <==

--------------------------------------------------------------------------
#psi4
#
memory 32 gb

molecule  {
0 1
  O        0.8108760    -1.0055400     0.0000200
  O        0.4978050     1.2581890     0.0000550
  N       -1.2743210    -0.2082740    -0.0000680
  C        0.0409300     0.1256900    -0.0000440
  H       -1.5512496    -1.1767146     0.0000029
  H       -1.9567890     0.5320990     0.0000450
  H        1.7301120    -0.6777840     0.0000950
units angstrom
no_reorient  #important for SAPT in psi4, default
symmetry c1  #important for SAPT in psi4, default
}

set PROPERTIES_ORIGIN ["COM"]
properties('MP2/aug-cc-pvtz', properties = ['dipole'])
--------------------------------------------------------------------------

    Molecular point group: c1
  Charge       = 0
  Multiplicity = 1
  Basis Set: AUG-CC-PVTZ
    Blend: AUG-CC-PVTZ
  Basis Set: (AUG-CC-PVTZ AUX)
    Blend: AUG-CC-PVTZ-JKFIT

    Orbital Energies [Eh]
    ---------------------

    Doubly Occupied:

       1A    -20.616543     2A    -20.534814     3A    -15.599167
       4A    -11.416174     5A     -1.464600     6A     -1.354040
       7A     -1.226304     8A     -0.860987     9A     -0.759834
      10A     -0.707021    11A     -0.668511    12A     -0.646392
      13A     -0.606410    14A     -0.504632    15A     -0.462913
      16A     -0.435365

  @DF-RHF Final Energy:  -243.92572107650585

   => Energetics <=

    Nuclear Repulsion Energy =            122.9793212250375092
    One-Electron Energy =                -578.0826703810389517
    Two-Electron Energy =                 211.1776280794956051
    Total Energy =                       -243.9257210765058517
  Basis Set: (AUG-CC-PVTZ AUX)
    Blend: AUG-CC-PVTZ-RI
    Molecular point group: c1

    Geometry (in Angstrom), charge = 0, multiplicity = 1:

       Center              X                  Y                   Z               Mass
    ------------   -----------------  -----------------  -----------------  -----------------
         O            0.781586312435    -1.026848303842     0.000022238288    15.994914619570
         O            0.468515312435     1.236880696158     0.000057238288    15.994914619570
         N           -1.303610687565    -0.229582303842    -0.000065761712    14.003074004430
         C            0.011640312435     0.104381696158    -0.000041761712    12.000000000000
         H           -1.580539287565    -1.198022903842     0.000005138288     1.007825032230
         H           -1.986078687565     0.510790696158     0.000047238288     1.007825032230
         H            1.700822312435    -0.699092303842     0.000097238288     1.007825032230

  Basis Set: AUG-CC-PVTZ
    Blend: AUG-CC-PVTZ
  Basis Set: (AUG-CC-PVTZ AUX)
    Blend: AUG-CC-PVTZ-JKFIT
	 Reference Energy          =    -243.9257210765058517 [Eh]
	 Singles Energy            =      -0.0000000000000000 [Eh]
	 Same-Spin Energy          =      -0.2316275021213696 [Eh]
	 Opposite-Spin Energy      =      -0.6874852904781030 [Eh]
	 Correlation Energy        =      -0.9191127925994726 [Eh]
	 Total Energy              =    -244.8448338691053152 [Eh]

	 ================> DF-SCS-MP2 Energies <==================
	-----------------------------------------------------------
	 SCS Same-Spin Scale       =       0.3333333333333333 [-]
	 SCS Opposite-Spin Scale   =       1.2000000000000000 [-]
	 SCS Same-Spin Energy      =      -0.0772091673737899 [Eh]
	 SCS Opposite-Spin Energy  =      -0.8249823485737237 [Eh]
	 SCS Correlation Energy    =      -0.9021915159475136 [Eh]
	 SCS Total Energy          =    -244.8279125924533730 [Eh]
	-----------------------------------------------------------

  Dipole Moment: [D]
     X:    -1.5539      Y:    -1.9244      Z:     0.0002     Total:     2.4734

*** Psi4 exiting successfully. Buy a developer a beer!
