                               Psi4 1.3.2 release

  ==> Input File <==

--------------------------------------------------------------------------
#psi4
#
memory 32 gb

molecule  {
0 1
  O        0.8108760    -1.0055400     0.0000200
  O        0.4978050     1.2581890     0.0000550
  N       -1.2743210    -0.2082740    -0.0000680
  C        0.0409300     0.1256900    -0.0000440
  H       -1.6264433    -1.3630377     0.0000207
  H       -1.9567890     0.5320990     0.0000450
  H        1.7301120    -0.6777840     0.0000950
units angstrom
no_reorient  #important for SAPT in psi4, default
symmetry c1  #important for SAPT in psi4, default
}

set PROPERTIES_ORIGIN ["COM"]
properties('MP2/aug-cc-pvtz', properties = ['dipole'])
--------------------------------------------------------------------------

    Molecular point group: c1
  Charge       = 0
  Multiplicity = 1
  Basis Set: AUG-CC-PVTZ
    Blend: AUG-CC-PVTZ
  Basis Set: (AUG-CC-PVTZ AUX)
    Blend: AUG-CC-PVTZ-JKFIT

    Orbital Energies [Eh]
    ---------------------

    Doubly Occupied:

       1A    -20.614341     2A    -20.533787     3A    -15.612064
       4A    -11.415017     5A     -1.462017     6A     -1.352527
       7A     -1.205006     8A     -0.853556     9A     -0.721532
      10A     -0.704848    11A     -0.646219    12A     -0.644084
      13A     -0.600820    14A     -0.502358    15A     -0.459784
      16A     -0.431131

  @DF-RHF Final Energy:  -243.89516185709476

   => Energetics <=

    Nuclear Repulsion Energy =            122.0712741291524708
    One-Electron Energy =                -576.4146929546877800
    Two-Electron Energy =                 210.4482569684405462
    Total Energy =                       -243.8951618570947630
  Basis Set: (AUG-CC-PVTZ AUX)
    Blend: AUG-CC-PVTZ-RI
    Molecular point group: c1

    Geometry (in Angstrom), charge = 0, multiplicity = 1:

       Center              X                  Y                   Z               Mass
    ------------   -----------------  -----------------  -----------------  -----------------
         O            0.782828308358    -1.023770751726     0.000021944280    15.994914619570
         O            0.469757308358     1.239958248274     0.000056944280    15.994914619570
         N           -1.302368691642    -0.226504751726    -0.000066055720    14.003074004430
         C            0.012882308358     0.107459248274    -0.000042055720    12.000000000000
         H           -1.654490991642    -1.381268451726     0.000022644280     1.007825032230
         H           -1.984836691642     0.513868248274     0.000046944280     1.007825032230
         H            1.702064308358    -0.696014751726     0.000096944280     1.007825032230

  Basis Set: AUG-CC-PVTZ
    Blend: AUG-CC-PVTZ
  Basis Set: (AUG-CC-PVTZ AUX)
    Blend: AUG-CC-PVTZ-JKFIT
	 Reference Energy          =    -243.8951618570947630 [Eh]
	 Singles Energy            =      -0.0000000000000000 [Eh]
	 Same-Spin Energy          =      -0.2328712368647569 [Eh]
	 Opposite-Spin Energy      =      -0.6912117748162179 [Eh]
	 Correlation Energy        =      -0.9240830116809747 [Eh]
	 Total Energy              =    -244.8192448687757405 [Eh]

	 ================> DF-SCS-MP2 Energies <==================
	-----------------------------------------------------------
	 SCS Same-Spin Scale       =       0.3333333333333333 [-]
	 SCS Opposite-Spin Scale   =       1.2000000000000000 [-]
	 SCS Same-Spin Energy      =      -0.0776237456215856 [Eh]
	 SCS Opposite-Spin Energy  =      -0.8294541297794614 [Eh]
	 SCS Correlation Energy    =      -0.9070778754010470 [Eh]
	 SCS Total Energy          =    -244.8022397324958206 [Eh]
	-----------------------------------------------------------

  Dipole Moment: [D]
     X:    -1.6404      Y:    -2.1408      Z:     0.0002     Total:     2.6971

*** Psi4 exiting successfully. Buy a developer a beer!
