                               Psi4 1.3.2 release

  ==> Input File <==

--------------------------------------------------------------------------
#psi4
#
memory 32 gb

molecule  {
0 1
  O        0.8108760    -1.0055400     0.0000200
  O        0.4978050     1.2581890     0.0000550
  N       -1.2743210    -0.2082740    -0.0000680
  C        0.0610223     0.0331292    -0.0000349
  H       -1.5681090    -1.1717340     0.0000060
  H       -1.9567890     0.5320990     0.0000450
  H        1.7301120    -0.6777840     0.0000950
units angstrom
no_reorient  #important for SAPT in psi4, default
symmetry c1  #important for SAPT in psi4, default
}

set PROPERTIES_ORIGIN ["COM"]
properties('MP2/aug-cc-pvtz', properties = ['dipole'])
--------------------------------------------------------------------------

    Molecular point group: c1
  Charge       = 0
  Multiplicity = 1
  Basis Set: AUG-CC-PVTZ
    Blend: AUG-CC-PVTZ
  Basis Set: (AUG-CC-PVTZ AUX)
    Blend: AUG-CC-PVTZ-JKFIT

    Orbital Energies [Eh]
    ---------------------

    Doubly Occupied:

       1A    -20.640521     2A    -20.515260     3A    -15.601147
       4A    -11.419848     5A     -1.503544     6A     -1.314977
       7A     -1.220918     8A     -0.888798     9A     -0.757954
      10A     -0.728313    11A     -0.686974    12A     -0.666039
      13A     -0.574420    14A     -0.498647    15A     -0.442839
      16A     -0.419093

  @DF-RHF Final Energy:  -243.91083813277865

   => Energetics <=

    Nuclear Repulsion Energy =            123.0063848651327163
    One-Electron Energy =                -578.0758635255192530
    Two-Electron Energy =                 211.1586405276079006
    Total Energy =                       -243.9108381327786503
  Basis Set: (AUG-CC-PVTZ AUX)
    Blend: AUG-CC-PVTZ-RI
    Molecular point group: c1

    Geometry (in Angstrom), charge = 0, multiplicity = 1:

       Center              X                  Y                   Z               Mass
    ------------   -----------------  -----------------  -----------------  -----------------
         O            0.777913261351    -1.008726775546     0.000020397401    15.994914619570
         O            0.464842261351     1.255002224454     0.000055397401    15.994914619570
         N           -1.307283738649    -0.211460775546    -0.000067602599    14.003074004430
         C            0.028059561351     0.029942424454    -0.000034502599    12.000000000000
         H           -1.601071738649    -1.174920775546     0.000006397401     1.007825032230
         H           -1.989751738649     0.528912224454     0.000045397401     1.007825032230
         H            1.697149261351    -0.680970775546     0.000095397401     1.007825032230

  Basis Set: AUG-CC-PVTZ
    Blend: AUG-CC-PVTZ
  Basis Set: (AUG-CC-PVTZ AUX)
    Blend: AUG-CC-PVTZ-JKFIT
	 Reference Energy          =    -243.9108381327786503 [Eh]
	 Singles Energy            =      -0.0000000000000000 [Eh]
	 Same-Spin Energy          =      -0.2322421960904079 [Eh]
	 Opposite-Spin Energy      =      -0.6880687712486583 [Eh]
	 Correlation Energy        =      -0.9203109673390661 [Eh]
	 Total Energy              =    -244.8311491001177274 [Eh]

	 ================> DF-SCS-MP2 Energies <==================
	-----------------------------------------------------------
	 SCS Same-Spin Scale       =       0.3333333333333333 [-]
	 SCS Opposite-Spin Scale   =       1.2000000000000000 [-]
	 SCS Same-Spin Energy      =      -0.0774140653634693 [Eh]
	 SCS Opposite-Spin Energy  =      -0.8256825254983899 [Eh]
	 SCS Correlation Energy    =      -0.9030965908618592 [Eh]
	 SCS Total Energy          =    -244.8139347236405001 [Eh]
	-----------------------------------------------------------

  Dipole Moment: [D]
     X:    -1.4084      Y:    -2.7465      Z:     0.0002     Total:     3.0865

*** Psi4 exiting successfully. Buy a developer a beer!
