                               Psi4 1.4a3.dev225

  ==> Input File <==

--------------------------------------------------------------------------
#psi4
#
memory 32 gb

molecule  {
0 1
  O        0.8159840    -1.0007070     0.0023930
  O        0.4905240     1.2598000     0.0069300
  N       -1.2790880    -0.2165130    -0.0579370
  C        0.0408930     0.1252930    -0.0011690
  H       -1.5301706    -1.1139082     0.1706110
  H       -1.9348860     0.5218130     0.1496860
  H        1.7343390    -0.6700500     0.0057850
units angstrom
no_reorient  #important for SAPT in psi4, default
symmetry c1  #important for SAPT in psi4, default
}

set PROPERTIES_ORIGIN ["COM"]
properties('MP2/aug-cc-pvtz', properties = ['dipole'])
--------------------------------------------------------------------------

    Molecular point group: c1
  Charge       = 0
  Multiplicity = 1
  Basis Set: AUG-CC-PVTZ
    Blend: AUG-CC-PVTZ
  Basis Set: (AUG-CC-PVTZ AUX)
    Blend: AUG-CC-PVTZ-JKFIT

    Orbital Energies [Eh]
    ---------------------

    Doubly Occupied:

       1A    -20.618764     2A    -20.538557     3A    -15.594894
       4A    -11.417988     5A     -1.467316     6A     -1.357069
       7A     -1.234078     8A     -0.862921     9A     -0.767780
      10A     -0.707961    11A     -0.669230    12A     -0.647875
      13A     -0.608420    14A     -0.507157    15A     -0.466510
      16A     -0.440789

  @DF-RHF Final Energy:  -243.92485289770892

   => Energetics <=

    Nuclear Repulsion Energy =            123.1605907362142744
    One-Electron Energy =                -578.3562666387567788
    Two-Electron Energy =                 211.2708230048336020
    Total Energy =                       -243.9248528977089165
  Basis Set: (AUG-CC-PVTZ AUX)
    Blend: AUG-CC-PVTZ-RI
    Molecular point group: c1

    Geometry (in Angstrom), charge = 0, multiplicity = 1:

       Center              X                  Y                   Z               Mass
    ------------   -----------------  -----------------  -----------------  -----------------
         O            0.787585469741    -1.022730878855     0.008089337883    15.994914619570
         O            0.462125469741     1.237776121145     0.012626337883    15.994914619570
         N           -1.307486530259    -0.238536878855    -0.052240662117    14.003074004430
         C            0.012494469741     0.103269121145     0.004527337883    12.000000000000
         H           -1.558569130259    -1.135932078855     0.176307337883     1.007825032230
         H           -1.963284530259     0.499789121145     0.155382337883     1.007825032230
         H            1.705940469741    -0.692073878855     0.011481337883     1.007825032230

  Basis Set: AUG-CC-PVTZ
    Blend: AUG-CC-PVTZ
  Basis Set: (AUG-CC-PVTZ AUX)
    Blend: AUG-CC-PVTZ-JKFIT
	 Reference Energy          =    -243.9248528977089165 [Eh]
	 Singles Energy            =      -0.0000000000000000 [Eh]
	 Same-Spin Energy          =      -0.2313115452770325 [Eh]
	 Opposite-Spin Energy      =      -0.6870177619758082 [Eh]
	 Correlation Energy        =      -0.9183293072528407 [Eh]
	 Total Energy              =    -244.8431822049617494 [Eh]

	 ================> DF-SCS-MP2 Energies <==================
	-----------------------------------------------------------
	 SCS Same-Spin Scale       =       0.3333333333333333 [-]
	 SCS Opposite-Spin Scale   =       1.2000000000000000 [-]
	 SCS Same-Spin Energy      =      -0.0771038484256775 [Eh]
	 SCS Opposite-Spin Energy  =      -0.8244213143709699 [Eh]
	 SCS Correlation Energy    =      -0.9015251627966474 [Eh]
	 SCS Total Energy          =    -244.8263780605055615 [Eh]
	-----------------------------------------------------------

  Dipole Moment: [D]
     X:    -1.3475      Y:    -1.8143      Z:     0.6389     Total:     2.3486

*** Psi4 exiting successfully. Buy a developer a beer!
