                               Psi4 1.4a3.dev225

  ==> Input File <==

--------------------------------------------------------------------------
#psi4
#
memory 32 gb

molecule  {
0 1
  O        0.8159840    -1.0007070     0.0023930
  O        0.4905240     1.2598000     0.0069300
  N       -1.2790880    -0.2165130    -0.0579370
  C        0.0295529     0.1417672    -0.0012211
  H       -1.5432550    -1.1606730     0.1825210
  H       -1.9348860     0.5218130     0.1496860
  H        1.7343390    -0.6700500     0.0057850
units angstrom
no_reorient  #important for SAPT in psi4, default
symmetry c1  #important for SAPT in psi4, default
}

set PROPERTIES_ORIGIN ["COM"]
properties('MP2/aug-cc-pvtz', properties = ['dipole'])
--------------------------------------------------------------------------

    Molecular point group: c1
  Charge       = 0
  Multiplicity = 1
  Basis Set: AUG-CC-PVTZ
    Blend: AUG-CC-PVTZ
  Basis Set: (AUG-CC-PVTZ AUX)
    Blend: AUG-CC-PVTZ-JKFIT

    Orbital Energies [Eh]
    ---------------------

    Doubly Occupied:

       1A    -20.612329     2A    -20.541037     3A    -15.600542
       4A    -11.416822     5A     -1.461632     6A     -1.358609
       7A     -1.230196     8A     -0.855896     9A     -0.758492
      10A     -0.704554    11A     -0.662068    12A     -0.644659
      13A     -0.610527    14A     -0.506626    15A     -0.467537
      16A     -0.442643

  @DF-RHF Final Energy:  -243.92518240065127

   => Energetics <=

    Nuclear Repulsion Energy =            122.8944302789836058
    One-Electron Energy =                -577.8908875934174603
    Two-Electron Energy =                 211.0712749137826165
    Total Energy =                       -243.9251824006512663
  Basis Set: (AUG-CC-PVTZ AUX)
    Blend: AUG-CC-PVTZ-RI
    Molecular point group: c1

    Geometry (in Angstrom), charge = 0, multiplicity = 1:

       Center              X                  Y                   Z               Mass
    ------------   -----------------  -----------------  -----------------  -----------------
         O            0.790031829061    -1.025198407542     0.007902863424    15.994914619570
         O            0.464571829061     1.235308592458     0.012439863424    15.994914619570
         N           -1.305040170939    -0.241004407542    -0.052427136576    14.003074004430
         C            0.003600729061     0.117275792458     0.004288763424    12.000000000000
         H           -1.569207170939    -1.185164407542     0.188030863424     1.007825032230
         H           -1.960838170939     0.497321592458     0.155195863424     1.007825032230
         H            1.708386829061    -0.694541407542     0.011294863424     1.007825032230

  Basis Set: AUG-CC-PVTZ
    Blend: AUG-CC-PVTZ
  Basis Set: (AUG-CC-PVTZ AUX)
    Blend: AUG-CC-PVTZ-JKFIT
	 Reference Energy          =    -243.9251824006512663 [Eh]
	 Singles Energy            =      -0.0000000000000000 [Eh]
	 Same-Spin Energy          =      -0.2315476282989140 [Eh]
	 Opposite-Spin Energy      =      -0.6877832136280527 [Eh]
	 Correlation Energy        =      -0.9193308419269667 [Eh]
	 Total Energy              =    -244.8445132425782447 [Eh]

	 ================> DF-SCS-MP2 Energies <==================
	-----------------------------------------------------------
	 SCS Same-Spin Scale       =       0.3333333333333333 [-]
	 SCS Opposite-Spin Scale   =       1.2000000000000000 [-]
	 SCS Same-Spin Energy      =      -0.0771825427663047 [Eh]
	 SCS Opposite-Spin Energy  =      -0.8253398563536632 [Eh]
	 SCS Correlation Energy    =      -0.9025223991199679 [Eh]
	 SCS Total Energy          =    -244.8277047997712259 [Eh]
	-----------------------------------------------------------

  Dipole Moment: [D]
     X:    -1.4695      Y:    -1.7180      Z:     0.6483     Total:     2.3518

*** Psi4 exiting successfully. Buy a developer a beer!
