                               Psi4 1.3.2 release

  ==> Input File <==

--------------------------------------------------------------------------
#psi4
#
memory 32 gb

molecule  {
0 1
  O        0.8108760    -1.0055400     0.0000200
  O        0.4978050     1.2581890     0.0000550
  N       -1.2743210    -0.2082740    -0.0000680
  C        0.0783425     0.2184278    -0.0000359
  H       -1.5681090    -1.1717340     0.0000060
  H       -1.9567890     0.5320990     0.0000450
  H        1.7301120    -0.6777840     0.0000950
units angstrom
no_reorient  #important for SAPT in psi4, default
symmetry c1  #important for SAPT in psi4, default
}

set PROPERTIES_ORIGIN ["COM"]
properties('MP2/aug-cc-pvtz', properties = ['dipole'])
--------------------------------------------------------------------------

    Molecular point group: c1
  Charge       = 0
  Multiplicity = 1
  Basis Set: AUG-CC-PVTZ
    Blend: AUG-CC-PVTZ
  Basis Set: (AUG-CC-PVTZ AUX)
    Blend: AUG-CC-PVTZ-JKFIT

    Orbital Energies [Eh]
    ---------------------

    Doubly Occupied:

       1A    -20.601443     2A    -20.562121     3A    -15.584628
       4A    -11.412736     5A     -1.496195     6A     -1.379128
       7A     -1.198124     8A     -0.834813     9A     -0.749008
      10A     -0.716457    11A     -0.658118    12A     -0.655067
      13A     -0.621637    14A     -0.514382    15A     -0.481733
      16A     -0.435156

  @DF-RHF Final Energy:  -243.90915929955477

   => Energetics <=

    Nuclear Repulsion Energy =            123.2624261708014615
    One-Electron Energy =                -578.5416817370889930
    Two-Electron Energy =                 211.3700962667327587
    Total Energy =                       -243.9091592995547728
  Basis Set: (AUG-CC-PVTZ AUX)
    Blend: AUG-CC-PVTZ-RI
    Molecular point group: c1

    Geometry (in Angstrom), charge = 0, multiplicity = 1:

       Center              X                  Y                   Z               Mass
    ------------   -----------------  -----------------  -----------------  -----------------
         O            0.774506923484    -1.045169174464     0.000020594070    15.994914619570
         O            0.461435923484     1.218559825536     0.000055594070    15.994914619570
         N           -1.310690076516    -0.247903174464    -0.000067405930    14.003074004430
         C            0.041973423484     0.178798625536    -0.000035305930    12.000000000000
         H           -1.604478076516    -1.211363174464     0.000006594070     1.007825032230
         H           -1.993158076516     0.492469825536     0.000045594070     1.007825032230
         H            1.693742923484    -0.717413174464     0.000095594070     1.007825032230

  Basis Set: AUG-CC-PVTZ
    Blend: AUG-CC-PVTZ
  Basis Set: (AUG-CC-PVTZ AUX)
    Blend: AUG-CC-PVTZ-JKFIT
	 Reference Energy          =    -243.9091592995547728 [Eh]
	 Singles Energy            =      -0.0000000000000000 [Eh]
	 Same-Spin Energy          =      -0.2306766591256461 [Eh]
	 Opposite-Spin Energy      =      -0.6864892567386159 [Eh]
	 Correlation Energy        =      -0.9171659158642620 [Eh]
	 Total Energy              =    -244.8263252154190468 [Eh]

	 ================> DF-SCS-MP2 Energies <==================
	-----------------------------------------------------------
	 SCS Same-Spin Scale       =       0.3333333333333333 [-]
	 SCS Opposite-Spin Scale   =       1.2000000000000000 [-]
	 SCS Same-Spin Energy      =      -0.0768922197085487 [Eh]
	 SCS Opposite-Spin Energy  =      -0.8237871080863391 [Eh]
	 SCS Correlation Energy    =      -0.9006793277948878 [Eh]
	 SCS Total Energy          =    -244.8098386273496487 [Eh]
	-----------------------------------------------------------

  Dipole Moment: [D]
     X:    -1.1301      Y:    -0.9954      Z:     0.0002     Total:     1.5060

*** Psi4 exiting successfully. Buy a developer a beer!
