                               Psi4 1.3.2 release

  ==> Input File <==

--------------------------------------------------------------------------
#psi4
#
memory 32 gb

molecule  {
0 1
  O        0.8108760    -1.0055400     0.0000200
  O        0.4978050     1.2581890     0.0000550
  N       -1.2743210    -0.2082740    -0.0000680
  C        0.1217162     0.1766431    -0.0000374
  H       -1.5681090    -1.1717340     0.0000060
  H       -1.9567890     0.5320990     0.0000450
  H        1.7301120    -0.6777840     0.0000950
units angstrom
no_reorient  #important for SAPT in psi4, default
symmetry c1  #important for SAPT in psi4, default
}

set PROPERTIES_ORIGIN ["COM"]
properties('MP2/aug-cc-pvtz', properties = ['dipole'])
--------------------------------------------------------------------------

    Molecular point group: c1
  Charge       = 0
  Multiplicity = 1
  Basis Set: AUG-CC-PVTZ
    Blend: AUG-CC-PVTZ
  Basis Set: (AUG-CC-PVTZ AUX)
    Blend: AUG-CC-PVTZ-JKFIT

    Orbital Energies [Eh]
    ---------------------

    Doubly Occupied:

       1A    -20.620345     2A    -20.556805     3A    -15.577654
       4A    -11.416144     5A     -1.490816     6A     -1.398649
       7A     -1.183959     8A     -0.845175     9A     -0.740866
      10A     -0.719664    11A     -0.661362    12A     -0.658067
      13A     -0.621817    14A     -0.518709    15A     -0.481275
      16A     -0.426467

  @DF-RHF Final Energy:  -243.91348967885682

   => Energetics <=

    Nuclear Repulsion Energy =            123.2358594404650631
    One-Electron Energy =                -578.4631548998100925
    Two-Electron Energy =                 211.3138057804882237
    Total Energy =                       -243.9134896788568199
  Basis Set: (AUG-CC-PVTZ AUX)
    Blend: AUG-CC-PVTZ-RI
    Molecular point group: c1

    Geometry (in Angstrom), charge = 0, multiplicity = 1:

       Center              X                  Y                   Z               Mass
    ------------   -----------------  -----------------  -----------------  -----------------
         O            0.765976682684    -1.036951439920     0.000020889072    15.994914619570
         O            0.452905682684     1.226777560080     0.000055889072    15.994914619570
         N           -1.319220317316    -0.239685439920    -0.000067110928    14.003074004430
         C            0.076816882684     0.145231660080    -0.000036510928    12.000000000000
         H           -1.613008317316    -1.203145439920     0.000006889072     1.007825032230
         H           -2.001688317316     0.500687560080     0.000045889072     1.007825032230
         H            1.685212682684    -0.709195439920     0.000095889072     1.007825032230

  Basis Set: AUG-CC-PVTZ
    Blend: AUG-CC-PVTZ
  Basis Set: (AUG-CC-PVTZ AUX)
    Blend: AUG-CC-PVTZ-JKFIT
	 Reference Energy          =    -243.9134896788568199 [Eh]
	 Singles Energy            =      -0.0000000000000000 [Eh]
	 Same-Spin Energy          =      -0.2308341148871539 [Eh]
	 Opposite-Spin Energy      =      -0.6865357717624456 [Eh]
	 Correlation Energy        =      -0.9173698866495995 [Eh]
	 Total Energy              =    -244.8308595655064153 [Eh]

	 ================> DF-SCS-MP2 Energies <==================
	-----------------------------------------------------------
	 SCS Same-Spin Scale       =       0.3333333333333333 [-]
	 SCS Opposite-Spin Scale   =       1.2000000000000000 [-]
	 SCS Same-Spin Energy      =      -0.0769447049623846 [Eh]
	 SCS Opposite-Spin Energy  =      -0.8238429261149347 [Eh]
	 SCS Correlation Energy    =      -0.9007876310773193 [Eh]
	 SCS Total Energy          =    -244.8142773099341412 [Eh]
	-----------------------------------------------------------

  Dipole Moment: [D]
     X:    -0.7123      Y:    -1.3699      Z:     0.0003     Total:     1.5440

*** Psi4 exiting successfully. Buy a developer a beer!
