                               Psi4 1.3.2 release

  ==> Input File <==

--------------------------------------------------------------------------
#psi4
#
memory 32 gb

molecule  {
0 1
  O        0.8108760    -1.0055400     0.0000200
  O        0.4978050     1.2581890     0.0000550
  N       -1.2743210    -0.2082740    -0.0000680
  C        0.1157550     0.3111657    -0.0000278
  H       -1.5681090    -1.1717340     0.0000060
  H       -1.9567890     0.5320990     0.0000450
  H        1.7301120    -0.6777840     0.0000950
units angstrom
no_reorient  #important for SAPT in psi4, default
symmetry c1  #important for SAPT in psi4, default
}

set PROPERTIES_ORIGIN ["COM"]
properties('MP2/aug-cc-pvtz', properties = ['dipole'])
--------------------------------------------------------------------------

    Molecular point group: c1
  Charge       = 0
  Multiplicity = 1
  Basis Set: AUG-CC-PVTZ
    Blend: AUG-CC-PVTZ
  Basis Set: (AUG-CC-PVTZ AUX)
    Blend: AUG-CC-PVTZ-JKFIT

    Orbital Energies [Eh]
    ---------------------

    Doubly Occupied:

       1A    -20.589648     2A    -20.584122     3A    -15.570327
       4A    -11.406951     5A     -1.582570     6A     -1.361253
       7A     -1.169836     8A     -0.810846     9A     -0.752319
      10A     -0.746205    11A     -0.697080    12A     -0.670577
      13A     -0.605364    14A     -0.515578    15A     -0.479206
      16A     -0.423230

  @DF-RHF Final Energy:  -243.83592683714892

   => Energetics <=

    Nuclear Repulsion Energy =            123.9515035398893019
    One-Electron Energy =                -579.6446375450487949
    Two-Electron Energy =                 211.8572071680105751
    Total Energy =                       -243.8359268371489179
  Basis Set: (AUG-CC-PVTZ AUX)
    Blend: AUG-CC-PVTZ-RI
    Molecular point group: c1

    Geometry (in Angstrom), charge = 0, multiplicity = 1:

       Center              X                  Y                   Z               Mass
    ------------   -----------------  -----------------  -----------------  -----------------
         O            0.767149062985    -1.063407798752     0.000019001055    15.994914619570
         O            0.454078062985     1.200321201248     0.000054001055    15.994914619570
         N           -1.318047937015    -0.266141798752    -0.000068998945    14.003074004430
         C            0.072028062985     0.253297901248    -0.000028798945    12.000000000000
         H           -1.611835937015    -1.229601798752     0.000005001055     1.007825032230
         H           -2.000515937015     0.474231201248     0.000044001055     1.007825032230
         H            1.686385062985    -0.735651798752     0.000094001055     1.007825032230

  Basis Set: AUG-CC-PVTZ
    Blend: AUG-CC-PVTZ
  Basis Set: (AUG-CC-PVTZ AUX)
    Blend: AUG-CC-PVTZ-JKFIT
	 Reference Energy          =    -243.8359268371489179 [Eh]
	 Singles Energy            =      -0.0000000000000000 [Eh]
	 Same-Spin Energy          =      -0.2297180552500140 [Eh]
	 Opposite-Spin Energy      =      -0.6854098505898851 [Eh]
	 Correlation Energy        =      -0.9151279058398991 [Eh]
	 Total Energy              =    -244.7510547429888277 [Eh]

	 ================> DF-SCS-MP2 Energies <==================
	-----------------------------------------------------------
	 SCS Same-Spin Scale       =       0.3333333333333333 [-]
	 SCS Opposite-Spin Scale   =       1.2000000000000000 [-]
	 SCS Same-Spin Energy      =      -0.0765726850833380 [Eh]
	 SCS Opposite-Spin Energy  =      -0.8224918207078621 [Eh]
	 SCS Correlation Energy    =      -0.8990645057912001 [Eh]
	 SCS Total Energy          =    -244.7349913429401056 [Eh]
	-----------------------------------------------------------

  Dipole Moment: [D]
     X:    -0.6798      Y:    -0.0074      Z:     0.0003     Total:     0.6799

*** Psi4 exiting successfully. Buy a developer a beer!
