                               Psi4 1.3.2 release

  ==> Input File <==

--------------------------------------------------------------------------
#psi4
#
memory 32 gb

molecule  {
0 1
  O        0.8108760    -1.0055400     0.0000200
  O        0.4978050     1.2581890     0.0000550
  N       -1.2743210    -0.2082740    -0.0000680
  C        0.0213046     0.1120803    -0.0000456
  H       -1.5681090    -1.1717340     0.0000060
  H       -1.9567890     0.5320990     0.0000450
  H        1.7301120    -0.6777840     0.0000950
units angstrom
no_reorient  #important for SAPT in psi4, default
symmetry c1  #important for SAPT in psi4, default
}

set PROPERTIES_ORIGIN ["COM"]
properties('MP2/aug-cc-pvtz', properties = ['dipole'])
--------------------------------------------------------------------------

    Molecular point group: c1
  Charge       = 0
  Multiplicity = 1
  Basis Set: AUG-CC-PVTZ
    Blend: AUG-CC-PVTZ
  Basis Set: (AUG-CC-PVTZ AUX)
    Blend: AUG-CC-PVTZ-JKFIT

    Orbital Energies [Eh]
    ---------------------

    Doubly Occupied:

       1A    -20.615693     2A    -20.529412     3A    -15.604310
       4A    -11.416453     5A     -1.460877     6A     -1.341702
       7A     -1.236343     8A     -0.866303     9A     -0.766033
      10A     -0.706255    11A     -0.669903    12A     -0.645283
      13A     -0.598780    14A     -0.503888    15A     -0.457091
      16A     -0.434233

  @DF-RHF Final Energy:  -243.92386871785723

   => Energetics <=

    Nuclear Repulsion Energy =            122.9156028410111503
    One-Electron Energy =                -577.9738272558973904
    Two-Electron Energy =                 211.1343556970290081
    Total Energy =                       -243.9238687178572320
  Basis Set: (AUG-CC-PVTZ AUX)
    Blend: AUG-CC-PVTZ-RI
    Molecular point group: c1

    Geometry (in Angstrom), charge = 0, multiplicity = 1:

       Center              X                  Y                   Z               Mass
    ------------   -----------------  -----------------  -----------------  -----------------
         O            0.785724482091    -1.024253970469     0.000022501754    15.994914619570
         O            0.472653482091     1.239475029531     0.000057501754    15.994914619570
         N           -1.299472517909    -0.226987970469    -0.000065498246    14.003074004430
         C           -0.003846917909     0.093366329531    -0.000043098246    12.000000000000
         H           -1.593260517909    -1.190447970469     0.000008501754     1.007825032230
         H           -1.981940517909     0.513385029531     0.000047501754     1.007825032230
         H            1.704960482091    -0.696497970469     0.000097501754     1.007825032230

  Basis Set: AUG-CC-PVTZ
    Blend: AUG-CC-PVTZ
  Basis Set: (AUG-CC-PVTZ AUX)
    Blend: AUG-CC-PVTZ-JKFIT
	 Reference Energy          =    -243.9238687178572320 [Eh]
	 Singles Energy            =      -0.0000000000000000 [Eh]
	 Same-Spin Energy          =      -0.2318514928054478 [Eh]
	 Opposite-Spin Energy      =      -0.6878047849961118 [Eh]
	 Correlation Energy        =      -0.9196562778015596 [Eh]
	 Total Energy              =    -244.8435249956587825 [Eh]

	 ================> DF-SCS-MP2 Energies <==================
	-----------------------------------------------------------
	 SCS Same-Spin Scale       =       0.3333333333333333 [-]
	 SCS Opposite-Spin Scale   =       1.2000000000000000 [-]
	 SCS Same-Spin Energy      =      -0.0772838309351493 [Eh]
	 SCS Opposite-Spin Energy  =      -0.8253657419953341 [Eh]
	 SCS Correlation Energy    =      -0.9026495729304833 [Eh]
	 SCS Total Energy          =    -244.8265182907877033 [Eh]
	-----------------------------------------------------------

  Dipole Moment: [D]
     X:    -1.7699      Y:    -2.0624      Z:     0.0002     Total:     2.7177

*** Psi4 exiting successfully. Buy a developer a beer!
