                               Psi4 1.3.2 release

  ==> Input File <==

--------------------------------------------------------------------------
#psi4
#
memory 32 gb

molecule  {
0 1
  O        0.8108760    -1.0055400     0.0000200
  O        0.4978050     1.2581890     0.0000550
  N       -1.2743210    -0.2082740    -0.0000680
  C        0.0517840     0.0795850    -0.0000394
  H       -1.5681090    -1.1717340     0.0000060
  H       -1.9567890     0.5320990     0.0000450
  H        1.7301120    -0.6777840     0.0000950
units angstrom
no_reorient  #important for SAPT in psi4, default
symmetry c1  #important for SAPT in psi4, default
}

set PROPERTIES_ORIGIN ["COM"]
properties('MP2/aug-cc-pvtz', properties = ['dipole'])
--------------------------------------------------------------------------

    Molecular point group: c1
  Charge       = 0
  Multiplicity = 1
  Basis Set: AUG-CC-PVTZ
    Blend: AUG-CC-PVTZ
  Basis Set: (AUG-CC-PVTZ AUX)
    Blend: AUG-CC-PVTZ-JKFIT

    Orbital Energies [Eh]
    ---------------------

    Doubly Occupied:

       1A    -20.628721     2A    -20.525174     3A    -15.600004
       4A    -11.418365     5A     -1.480592     6A     -1.335994
       7A     -1.224210     8A     -0.874337     9A     -0.758591
      10A     -0.716107    11A     -0.677448    12A     -0.654304
      13A     -0.592117    14A     -0.501947    15A     -0.453868
      16A     -0.427821

  @DF-RHF Final Energy:  -243.92151702274563

   => Energetics <=

    Nuclear Repulsion Energy =            122.9587231578740472
    One-Electron Energy =                -578.0212810203639719
    Two-Electron Energy =                 211.1410408397443064
    Total Energy =                       -243.9215170227456326
  Basis Set: (AUG-CC-PVTZ AUX)
    Blend: AUG-CC-PVTZ-RI
    Molecular point group: c1

    Geometry (in Angstrom), charge = 0, multiplicity = 1:

       Center              X                  Y                   Z               Mass
    ------------   -----------------  -----------------  -----------------  -----------------
         O            0.779730144014    -1.017863168350     0.000021282409    15.994914619570
         O            0.466659144014     1.245865831650     0.000056282409    15.994914619570
         N           -1.305466855986    -0.220597168350    -0.000066717591    14.003074004430
         C            0.020638144014     0.067261831650    -0.000038117591    12.000000000000
         H           -1.599254855986    -1.184057168350     0.000007282409     1.007825032230
         H           -1.987934855986     0.519775831650     0.000046282409     1.007825032230
         H            1.698966144014    -0.690107168350     0.000096282409     1.007825032230

  Basis Set: AUG-CC-PVTZ
    Blend: AUG-CC-PVTZ
  Basis Set: (AUG-CC-PVTZ AUX)
    Blend: AUG-CC-PVTZ-JKFIT
	 Reference Energy          =    -243.9215170227456326 [Eh]
	 Singles Energy            =      -0.0000000000000000 [Eh]
	 Same-Spin Energy          =      -0.2319149783847115 [Eh]
	 Opposite-Spin Energy      =      -0.6877284216152654 [Eh]
	 Correlation Energy        =      -0.9196433999999769 [Eh]
	 Total Energy              =    -244.8411604227456166 [Eh]

	 ================> DF-SCS-MP2 Energies <==================
	-----------------------------------------------------------
	 SCS Same-Spin Scale       =       0.3333333333333333 [-]
	 SCS Opposite-Spin Scale   =       1.2000000000000000 [-]
	 SCS Same-Spin Energy      =      -0.0773049927949038 [Eh]
	 SCS Opposite-Spin Energy  =      -0.8252741059383184 [Eh]
	 SCS Correlation Energy    =      -0.9025790987332223 [Eh]
	 SCS Total Energy          =    -244.8240961214788456 [Eh]
	-----------------------------------------------------------

  Dipole Moment: [D]
     X:    -1.4806      Y:    -2.3352      Z:     0.0002     Total:     2.7650

*** Psi4 exiting successfully. Buy a developer a beer!
