                               Psi4 1.3.2 release

  ==> Input File <==

--------------------------------------------------------------------------
#psi4
#
memory 32 gb

molecule  {
0 1
  O        0.8108760    -1.0055400     0.0000200
  O        0.4978050     1.2581890     0.0000550
  N       -1.2743210    -0.2082740    -0.0000680
  C        0.1534629    -0.0396471    -0.0000346
  H       -1.5681090    -1.1717340     0.0000060
  H       -1.9567890     0.5320990     0.0000450
  H        1.7301120    -0.6777840     0.0000950
units angstrom
no_reorient  #important for SAPT in psi4, default
symmetry c1  #important for SAPT in psi4, default
}

set PROPERTIES_ORIGIN ["COM"]
properties('MP2/aug-cc-pvtz', properties = ['dipole'])
--------------------------------------------------------------------------

    Molecular point group: c1
  Charge       = 0
  Multiplicity = 1
  Basis Set: AUG-CC-PVTZ
    Blend: AUG-CC-PVTZ
  Basis Set: (AUG-CC-PVTZ AUX)
    Blend: AUG-CC-PVTZ-JKFIT

    Orbital Energies [Eh]
    ---------------------

    Doubly Occupied:

       1A    -20.675707     2A    -20.507973     3A    -15.585542
       4A    -11.425735     5A     -1.588938     6A     -1.291710
       7A     -1.185275     8A     -0.927747     9A     -0.771272
      10A     -0.729862    11A     -0.713950    12A     -0.688976
      13A     -0.550979    14A     -0.479767    15A     -0.430576
      16A     -0.405525

  @DF-RHF Final Energy:  -243.86120042358061

   => Energetics <=

    Nuclear Repulsion Energy =            123.4011331807136855
    One-Electron Energy =                -578.6055996307294436
    Two-Electron Energy =                 211.3432660264351171
    Total Energy =                       -243.8612004235806126
  Basis Set: (AUG-CC-PVTZ AUX)
    Blend: AUG-CC-PVTZ-RI
    Molecular point group: c1

    Geometry (in Angstrom), charge = 0, multiplicity = 1:

       Center              X                  Y                   Z               Mass
    ------------   -----------------  -----------------  -----------------  -----------------
         O            0.759733106609    -0.994413969316     0.000020338401    15.994914619570
         O            0.446662106609     1.269315030684     0.000055338401    15.994914619570
         N           -1.325463893391    -0.197147969316    -0.000067661599    14.003074004430
         C            0.102320006609    -0.028521069316    -0.000034261599    12.000000000000
         H           -1.619251893391    -1.160607969316     0.000006338401     1.007825032230
         H           -2.007931893391     0.543225030684     0.000045338401     1.007825032230
         H            1.678969106609    -0.666657969316     0.000095338401     1.007825032230

  Basis Set: AUG-CC-PVTZ
    Blend: AUG-CC-PVTZ
  Basis Set: (AUG-CC-PVTZ AUX)
    Blend: AUG-CC-PVTZ-JKFIT
	 Reference Energy          =    -243.8612004235806126 [Eh]
	 Singles Energy            =      -0.0000000000000000 [Eh]
	 Same-Spin Energy          =      -0.2327850079215528 [Eh]
	 Opposite-Spin Energy      =      -0.6889565084586510 [Eh]
	 Correlation Energy        =      -0.9217415163802039 [Eh]
	 Total Energy              =    -244.7829419399608071 [Eh]

	 ================> DF-SCS-MP2 Energies <==================
	-----------------------------------------------------------
	 SCS Same-Spin Scale       =       0.3333333333333333 [-]
	 SCS Opposite-Spin Scale   =       1.2000000000000000 [-]
	 SCS Same-Spin Energy      =      -0.0775950026405176 [Eh]
	 SCS Opposite-Spin Energy  =      -0.8267478101503811 [Eh]
	 SCS Correlation Energy    =      -0.9043428127908988 [Eh]
	 SCS Total Energy          =    -244.7655432363715136 [Eh]
	-----------------------------------------------------------

  Dipole Moment: [D]
     X:    -0.5107      Y:    -3.3726      Z:     0.0003     Total:     3.4111

*** Psi4 exiting successfully. Buy a developer a beer!
