                               Psi4 1.4a3.dev225

  ==> Input File <==

--------------------------------------------------------------------------
#psi4
#
memory 32 gb

molecule  {
0 1
  O        0.8159840    -1.0007070     0.0023930
  O        0.4905240     1.2598000     0.0069300
  N       -1.2790880    -0.2165130    -0.0579370
  C        0.0335243     0.1067004    -0.0013017
  H       -1.5432550    -1.1606730     0.1825210
  H       -1.9348860     0.5218130     0.1496860
  H        1.7343390    -0.6700500     0.0057850
units angstrom
no_reorient  #important for SAPT in psi4, default
symmetry c1  #important for SAPT in psi4, default
}

set PROPERTIES_ORIGIN ["COM"]
properties('MP2/aug-cc-pvtz', properties = ['dipole'])
--------------------------------------------------------------------------

    Molecular point group: c1
  Charge       = 0
  Multiplicity = 1
  Basis Set: AUG-CC-PVTZ
    Blend: AUG-CC-PVTZ
  Basis Set: (AUG-CC-PVTZ AUX)
    Blend: AUG-CC-PVTZ-JKFIT

    Orbital Energies [Eh]
    ---------------------

    Doubly Occupied:

       1A    -20.621052     2A    -20.532983     3A    -15.602000
       4A    -11.418135     5A     -1.468024     6A     -1.346224
       7A     -1.231279     8A     -0.865177     9A     -0.758935
      10A     -0.708624    11A     -0.669607    12A     -0.648214
      13A     -0.600502    14A     -0.505776    15A     -0.460524
      16A     -0.437189

  @DF-RHF Final Energy:  -243.92408243026125

   => Energetics <=

    Nuclear Repulsion Energy =            122.8710810225000358
    One-Electron Energy =                -577.8418376879698144
    Two-Electron Energy =                 211.0466742352085134
    Total Energy =                       -243.9240824302612509
  Basis Set: (AUG-CC-PVTZ AUX)
    Blend: AUG-CC-PVTZ-RI
    Molecular point group: c1

    Geometry (in Angstrom), charge = 0, multiplicity = 1:

       Center              X                  Y                   Z               Mass
    ------------   -----------------  -----------------  -----------------  -----------------
         O            0.789250779754    -1.018301872358     0.007918714906    15.994914619570
         O            0.463790779754     1.242205127642     0.012455714906    15.994914619570
         N           -1.305821220246    -0.234107872358    -0.052411285094    14.003074004430
         C            0.006791079754     0.089105527642     0.004224014906    12.000000000000
         H           -1.569988220246    -1.178267872358     0.188046714906     1.007825032230
         H           -1.961619220246     0.504218127642     0.155211714906     1.007825032230
         H            1.707605779754    -0.687644872358     0.011310714906     1.007825032230

  Basis Set: AUG-CC-PVTZ
    Blend: AUG-CC-PVTZ
  Basis Set: (AUG-CC-PVTZ AUX)
    Blend: AUG-CC-PVTZ-JKFIT
	 Reference Energy          =    -243.9240824302612509 [Eh]
	 Singles Energy            =      -0.0000000000000000 [Eh]
	 Same-Spin Energy          =      -0.2317892850170141 [Eh]
	 Opposite-Spin Energy      =      -0.6879838175537798 [Eh]
	 Correlation Energy        =      -0.9197731025707938 [Eh]
	 Total Energy              =    -244.8438555328320376 [Eh]

	 ================> DF-SCS-MP2 Energies <==================
	-----------------------------------------------------------
	 SCS Same-Spin Scale       =       0.3333333333333333 [-]
	 SCS Opposite-Spin Scale   =       1.2000000000000000 [-]
	 SCS Same-Spin Energy      =      -0.0772630950056714 [Eh]
	 SCS Opposite-Spin Energy  =      -0.8255805810645357 [Eh]
	 SCS Correlation Energy    =      -0.9028436760702070 [Eh]
	 SCS Total Energy          =    -244.8269261063314559 [Eh]
	-----------------------------------------------------------

  Dipole Moment: [D]
     X:    -1.4447      Y:    -2.0389      Z:     0.6455     Total:     2.5808

*** Psi4 exiting successfully. Buy a developer a beer!
