                               Psi4 1.4a3.dev225

  ==> Input File <==

--------------------------------------------------------------------------
#psi4
#
memory 32 gb

molecule  {
0 1
  O        0.8159840    -1.0007070     0.0023930
  O        0.4905240     1.2598000     0.0069300
  N       -1.2790880    -0.2165130    -0.0579370
  C        0.0408930     0.1252930    -0.0011690
  H       -1.5380213    -1.1419671     0.1777570
  H       -1.9348860     0.5218130     0.1496860
  H        1.7343390    -0.6700500     0.0057850
units angstrom
no_reorient  #important for SAPT in psi4, default
symmetry c1  #important for SAPT in psi4, default
}

set PROPERTIES_ORIGIN ["COM"]
properties('MP2/aug-cc-pvtz', properties = ['dipole'])
--------------------------------------------------------------------------

    Molecular point group: c1
  Charge       = 0
  Multiplicity = 1
  Basis Set: AUG-CC-PVTZ
    Blend: AUG-CC-PVTZ
  Basis Set: (AUG-CC-PVTZ AUX)
    Blend: AUG-CC-PVTZ-JKFIT

    Orbital Energies [Eh]
    ---------------------

    Doubly Occupied:

       1A    -20.618472     2A    -20.538374     3A    -15.597561
       4A    -11.417748     5A     -1.466913     6A     -1.356845
       7A     -1.229331     8A     -0.861015     9A     -0.760731
      10A     -0.707666    11A     -0.667106    12A     -0.647508
      13A     -0.607907    14A     -0.506781    15A     -0.466072
      16A     -0.440109

  @DF-RHF Final Energy:  -243.92584335146529

   => Energetics <=

    Nuclear Repulsion Energy =            123.0004494302980049
    One-Electron Energy =                -578.0723081469823228
    Two-Electron Energy =                 211.1460153652190570
    Total Energy =                       -243.9258433514652893
  Basis Set: (AUG-CC-PVTZ AUX)
    Blend: AUG-CC-PVTZ-RI
    Molecular point group: c1

    Geometry (in Angstrom), charge = 0, multiplicity = 1:

       Center              X                  Y                   Z               Mass
    ------------   -----------------  -----------------  -----------------  -----------------
         O            0.787715142006    -1.022267421951     0.007971305350    15.994914619570
         O            0.462255142006     1.238239578049     0.012508305350    15.994914619570
         N           -1.307356857994    -0.238073421951    -0.052358694650    14.003074004430
         C            0.012624142006     0.103732578049     0.004409305350    12.000000000000
         H           -1.566290157994    -1.163527521951     0.183335305350     1.007825032230
         H           -1.963154857994     0.500252578049     0.155264305350     1.007825032230
         H            1.706070142006    -0.691610421951     0.011363305350     1.007825032230

  Basis Set: AUG-CC-PVTZ
    Blend: AUG-CC-PVTZ
  Basis Set: (AUG-CC-PVTZ AUX)
    Blend: AUG-CC-PVTZ-JKFIT
	 Reference Energy          =    -243.9258433514652893 [Eh]
	 Singles Energy            =      -0.0000000000000000 [Eh]
	 Same-Spin Energy          =      -0.2314723383621364 [Eh]
	 Opposite-Spin Energy      =      -0.6874446701298524 [Eh]
	 Correlation Energy        =      -0.9189170084919889 [Eh]
	 Total Energy              =    -244.8447603599572915 [Eh]

	 ================> DF-SCS-MP2 Energies <==================
	-----------------------------------------------------------
	 SCS Same-Spin Scale       =       0.3333333333333333 [-]
	 SCS Opposite-Spin Scale   =       1.2000000000000000 [-]
	 SCS Same-Spin Energy      =      -0.0771574461207121 [Eh]
	 SCS Opposite-Spin Energy  =      -0.8249336041558230 [Eh]
	 SCS Correlation Energy    =      -0.9020910502765350 [Eh]
	 SCS Total Energy          =    -244.8279344017418282 [Eh]
	-----------------------------------------------------------

  Dipole Moment: [D]
     X:    -1.3578      Y:    -1.8436      Z:     0.6449     Total:     2.3787

*** Psi4 exiting successfully. Buy a developer a beer!
