                               Psi4 1.3.2 release

  ==> Input File <==

--------------------------------------------------------------------------
#psi4
#
memory 32 gb

molecule  {
0 1
  O        0.6884124    -1.0798243     0.0000194
  O        0.4978050     1.2581890     0.0000550
  N       -1.2743210    -0.2082740    -0.0000680
  C        0.0409300     0.1256900    -0.0000440
  H       -1.5681090    -1.1717340     0.0000060
  H       -1.9567890     0.5320990     0.0000450
  H        1.7301120    -0.6777840     0.0000950
units angstrom
no_reorient  #important for SAPT in psi4, default
symmetry c1  #important for SAPT in psi4, default
}

set PROPERTIES_ORIGIN ["COM"]
properties('MP2/aug-cc-pvtz', properties = ['dipole'])
--------------------------------------------------------------------------

    Molecular point group: c1
  Charge       = 0
  Multiplicity = 1
  Basis Set: AUG-CC-PVTZ
    Blend: AUG-CC-PVTZ
  Basis Set: (AUG-CC-PVTZ AUX)
    Blend: AUG-CC-PVTZ-JKFIT

    Orbital Energies [Eh]
    ---------------------

    Doubly Occupied:

       1A    -20.629568     2A    -20.542249     3A    -15.591147
       4A    -11.416167     5A     -1.455518     6A     -1.354101
       7A     -1.216559     8A     -0.841228     9A     -0.749307
      10A     -0.707957    11A     -0.647012    12A     -0.642088
      13A     -0.603616    14A     -0.503535    15A     -0.468168
      16A     -0.433913

  @DF-RHF Final Energy:  -243.89683838600806

   => Energetics <=

    Nuclear Repulsion Energy =            122.6821940073586745
    One-Electron Energy =                -577.5537989753083821
    Two-Electron Energy =                 210.9747665819416227
    Total Energy =                       -243.8968383860080564
  Basis Set: (AUG-CC-PVTZ AUX)
    Blend: AUG-CC-PVTZ-RI
    Molecular point group: c1

    Geometry (in Angstrom), charge = 0, multiplicity = 1:

       Center              X                  Y                   Z               Mass
    ------------   -----------------  -----------------  -----------------  -----------------
         O            0.691503955064    -1.081741884581     0.000021744369    15.994914619570
         O            0.500896555064     1.256271415419     0.000057344369    15.994914619570
         N           -1.271229444936    -0.210191584581    -0.000065655631    14.003074004430
         C            0.044021555064     0.123772415419    -0.000041655631    12.000000000000
         H           -1.565017444936    -1.173651584581     0.000008344369     1.007825032230
         H           -1.953697444936     0.530181415419     0.000047344369     1.007825032230
         H            1.733203555064    -0.679701584581     0.000097344369     1.007825032230

  Basis Set: AUG-CC-PVTZ
    Blend: AUG-CC-PVTZ
  Basis Set: (AUG-CC-PVTZ AUX)
    Blend: AUG-CC-PVTZ-JKFIT
	 Reference Energy          =    -243.8968383860080564 [Eh]
	 Singles Energy            =      -0.0000000000000000 [Eh]
	 Same-Spin Energy          =      -0.2344097737309553 [Eh]
	 Opposite-Spin Energy      =      -0.6939454908777055 [Eh]
	 Correlation Energy        =      -0.9283552646086608 [Eh]
	 Total Energy              =    -244.8251936506167112 [Eh]

	 ================> DF-SCS-MP2 Energies <==================
	-----------------------------------------------------------
	 SCS Same-Spin Scale       =       0.3333333333333333 [-]
	 SCS Opposite-Spin Scale   =       1.2000000000000000 [-]
	 SCS Same-Spin Energy      =      -0.0781365912436517 [Eh]
	 SCS Opposite-Spin Energy  =      -0.8327345890532466 [Eh]
	 SCS Correlation Energy    =      -0.9108711802968983 [Eh]
	 SCS Total Energy          =    -244.8077095663049647 [Eh]
	-----------------------------------------------------------

  Dipole Moment: [D]
     X:    -1.3035      Y:    -1.8151      Z:     0.0002     Total:     2.2347

*** Psi4 exiting successfully. Buy a developer a beer!
