                               Psi4 1.3.2 release

  ==> Input File <==

--------------------------------------------------------------------------
#psi4
#
memory 32 gb

molecule  {
0 1
  O        0.8108760    -1.0055400     0.0000200
  O        0.4978050     1.2581890     0.0000550
  N       -1.2743210    -0.2082740    -0.0000680
  C        0.0971965     0.0430215    -0.0000393
  H       -1.5681090    -1.1717340     0.0000060
  H       -1.9567890     0.5320990     0.0000450
  H        1.7301120    -0.6777840     0.0000950
units angstrom
no_reorient  #important for SAPT in psi4, default
symmetry c1  #important for SAPT in psi4, default
}

set PROPERTIES_ORIGIN ["COM"]
properties('MP2/aug-cc-pvtz', properties = ['dipole'])
--------------------------------------------------------------------------

    Molecular point group: c1
  Charge       = 0
  Multiplicity = 1
  Basis Set: AUG-CC-PVTZ
    Blend: AUG-CC-PVTZ
  Basis Set: (AUG-CC-PVTZ AUX)
    Blend: AUG-CC-PVTZ-JKFIT

    Orbital Energies [Eh]
    ---------------------

    Doubly Occupied:

       1A    -20.645714     2A    -20.521642     3A    -15.592718
       4A    -11.421402     5A     -1.514239     6A     -1.328115
       7A     -1.206095     8A     -0.888326     9A     -0.746102
      10A     -0.732519    11A     -0.682726    12A     -0.671392
      13A     -0.583377    14A     -0.496084    15A     -0.449607
      16A     -0.420402

  @DF-RHF Final Energy:  -243.91076976460516

   => Energetics <=

    Nuclear Repulsion Energy =            123.0658843331640782
    One-Electron Energy =                -578.1523891886429283
    Two-Electron Energy =                 211.1757350908736726
    Total Energy =                       -243.9107697646051633
  Basis Set: (AUG-CC-PVTZ AUX)
    Blend: AUG-CC-PVTZ-RI
    Molecular point group: c1

    Geometry (in Angstrom), charge = 0, multiplicity = 1:

       Center              X                  Y                   Z               Mass
    ------------   -----------------  -----------------  -----------------  -----------------
         O            0.770798935463    -1.010672279413     0.000021262743    15.994914619570
         O            0.457727935463     1.253056720587     0.000056262743    15.994914619570
         N           -1.314398064537    -0.213406279413    -0.000066737257    14.003074004430
         C            0.057119435463     0.037889220587    -0.000038037257    12.000000000000
         H           -1.608186064537    -1.176866279413     0.000007262743     1.007825032230
         H           -1.996866064537     0.526966720587     0.000046262743     1.007825032230
         H            1.690034935463    -0.682916279413     0.000096262743     1.007825032230

  Basis Set: AUG-CC-PVTZ
    Blend: AUG-CC-PVTZ
  Basis Set: (AUG-CC-PVTZ AUX)
    Blend: AUG-CC-PVTZ-JKFIT
	 Reference Energy          =    -243.9107697646051633 [Eh]
	 Singles Energy            =      -0.0000000000000000 [Eh]
	 Same-Spin Energy          =      -0.2320967258894721 [Eh]
	 Opposite-Spin Energy      =      -0.6879114719413417 [Eh]
	 Correlation Energy        =      -0.9200081978308139 [Eh]
	 Total Energy              =    -244.8307779624359739 [Eh]

	 ================> DF-SCS-MP2 Energies <==================
	-----------------------------------------------------------
	 SCS Same-Spin Scale       =       0.3333333333333333 [-]
	 SCS Opposite-Spin Scale   =       1.2000000000000000 [-]
	 SCS Same-Spin Energy      =      -0.0773655752964907 [Eh]
	 SCS Opposite-Spin Energy  =      -0.8254937663296100 [Eh]
	 SCS Correlation Energy    =      -0.9028593416261007 [Eh]
	 SCS Total Energy          =    -244.8136291062312750 [Eh]
	-----------------------------------------------------------

  Dipole Moment: [D]
     X:    -1.0426      Y:    -2.6371      Z:     0.0002     Total:     2.8357

*** Psi4 exiting successfully. Buy a developer a beer!
