                               Psi4 1.3.2 release

  ==> Input File <==

--------------------------------------------------------------------------
#psi4
#
memory 32 gb

molecule  {
0 1
  O        0.8108760    -1.0055400     0.0000200
  O        0.4978050     1.2581890     0.0000550
  N       -1.2743210    -0.2082740    -0.0000680
  C        0.0035175     0.0329522    -0.0000521
  H       -1.5681090    -1.1717340     0.0000060
  H       -1.9567890     0.5320990     0.0000450
  H        1.7301120    -0.6777840     0.0000950
units angstrom
no_reorient  #important for SAPT in psi4, default
symmetry c1  #important for SAPT in psi4, default
}

set PROPERTIES_ORIGIN ["COM"]
properties('MP2/aug-cc-pvtz', properties = ['dipole'])
--------------------------------------------------------------------------

    Molecular point group: c1
  Charge       = 0
  Multiplicity = 1
  Basis Set: AUG-CC-PVTZ
    Blend: AUG-CC-PVTZ
  Basis Set: (AUG-CC-PVTZ AUX)
    Blend: AUG-CC-PVTZ-JKFIT

    Orbital Energies [Eh]
    ---------------------

    Doubly Occupied:

       1A    -20.629069     2A    -20.508745     3A    -15.613327
       4A    -11.417087     5A     -1.480414     6A     -1.308027
       7A     -1.239873     8A     -0.887178     9A     -0.776702
      10A     -0.724787    11A     -0.682716    12A     -0.656297
      13A     -0.564420    14A     -0.506191    15A     -0.434829
      16A     -0.416823

  @DF-RHF Final Energy:  -243.90711986079697

   => Energetics <=

    Nuclear Repulsion Energy =            122.9258328178311075
    One-Electron Energy =                -577.9729366865625479
    Two-Electron Energy =                 211.1399840079344585
    Total Energy =                       -243.9071198607969677
  Basis Set: (AUG-CC-PVTZ AUX)
    Blend: AUG-CC-PVTZ-RI
    Molecular point group: c1

    Geometry (in Angstrom), charge = 0, multiplicity = 1:

       Center              X                  Y                   Z               Mass
    ------------   -----------------  -----------------  -----------------  -----------------
         O            0.789222644483    -1.008691965220     0.000023780099    15.994914619570
         O            0.476151644483     1.255037034780     0.000058780099    15.994914619570
         N           -1.295974355517    -0.211425965220    -0.000064219901    14.003074004430
         C           -0.018135855517     0.029800234780    -0.000048319901    12.000000000000
         H           -1.589762355517    -1.174885965220     0.000009780099     1.007825032230
         H           -1.978442355517     0.528947034780     0.000048780099     1.007825032230
         H            1.708458644483    -0.680935965220     0.000098780099     1.007825032230

  Basis Set: AUG-CC-PVTZ
    Blend: AUG-CC-PVTZ
  Basis Set: (AUG-CC-PVTZ AUX)
    Blend: AUG-CC-PVTZ-JKFIT
	 Reference Energy          =    -243.9071198607969677 [Eh]
	 Singles Energy            =      -0.0000000000000000 [Eh]
	 Same-Spin Energy          =      -0.2324543296498240 [Eh]
	 Opposite-Spin Energy      =      -0.6884205527338384 [Eh]
	 Correlation Energy        =      -0.9208748823836624 [Eh]
	 Total Energy              =    -244.8279947431806249 [Eh]

	 ================> DF-SCS-MP2 Energies <==================
	-----------------------------------------------------------
	 SCS Same-Spin Scale       =       0.3333333333333333 [-]
	 SCS Opposite-Spin Scale   =       1.2000000000000000 [-]
	 SCS Same-Spin Energy      =      -0.0774847765499413 [Eh]
	 SCS Opposite-Spin Energy  =      -0.8261046632806061 [Eh]
	 SCS Correlation Energy    =      -0.9035894398305474 [Eh]
	 SCS Total Energy          =    -244.8107093006275079 [Eh]
	-----------------------------------------------------------

  Dipole Moment: [D]
     X:    -1.9824      Y:    -2.7850      Z:     0.0002     Total:     3.4185

*** Psi4 exiting successfully. Buy a developer a beer!
