                               Psi4 1.3.2 release

  ==> Input File <==

--------------------------------------------------------------------------
#psi4
#
memory 32 gb

molecule  {
0 1
  O        0.8108760    -1.0055400     0.0000200
  O        0.4978050     1.2581890     0.0000550
  N       -1.2743210    -0.2082740    -0.0000680
  C        0.0607900     0.1389551    -0.0000424
  H       -1.5681090    -1.1717340     0.0000060
  H       -1.9567890     0.5320990     0.0000450
  H        1.7301120    -0.6777840     0.0000950
units angstrom
no_reorient  #important for SAPT in psi4, default
symmetry c1  #important for SAPT in psi4, default
}

set PROPERTIES_ORIGIN ["COM"]
properties('MP2/aug-cc-pvtz', properties = ['dipole'])
--------------------------------------------------------------------------

    Molecular point group: c1
  Charge       = 0
  Multiplicity = 1
  Basis Set: AUG-CC-PVTZ
    Blend: AUG-CC-PVTZ
  Basis Set: (AUG-CC-PVTZ AUX)
    Blend: AUG-CC-PVTZ-JKFIT

    Orbital Energies [Eh]
    ---------------------

    Doubly Occupied:

       1A    -20.617213     2A    -20.540518     3A    -15.593930
       4A    -11.416518     5A     -1.469116     6A     -1.366405
       7A     -1.215565     8A     -0.857259     9A     -0.753927
      10A     -0.708954    11A     -0.664817    12A     -0.648130
      13A     -0.613130    14A     -0.506616    15A     -0.468716
      16A     -0.435045

  @DF-RHF Final Energy:  -243.92560886516384

   => Energetics <=

    Nuclear Repulsion Energy =            123.0108423364736296
    One-Electron Energy =                -578.1211814589166806
    Two-Electron Energy =                 211.1847302572792273
    Total Energy =                       -243.9256088651638379
  Basis Set: (AUG-CC-PVTZ AUX)
    Blend: AUG-CC-PVTZ-RI
    Molecular point group: c1

    Geometry (in Angstrom), charge = 0, multiplicity = 1:

       Center              X                  Y                   Z               Mass
    ------------   -----------------  -----------------  -----------------  -----------------
         O            0.777958947445    -1.029539397247     0.000021872415    15.994914619570
         O            0.464887947445     1.234189602753     0.000056872415    15.994914619570
         N           -1.307238052555    -0.232273397247    -0.000066127585    14.003074004430
         C            0.027872947445     0.114955702753    -0.000040527585    12.000000000000
         H           -1.601026052555    -1.195733397247     0.000007872415     1.007825032230
         H           -1.989706052555     0.508099602753     0.000046872415     1.007825032230
         H            1.697194947445    -0.701783397247     0.000096872415     1.007825032230

  Basis Set: AUG-CC-PVTZ
    Blend: AUG-CC-PVTZ
  Basis Set: (AUG-CC-PVTZ AUX)
    Blend: AUG-CC-PVTZ-JKFIT
	 Reference Energy          =    -243.9256088651638379 [Eh]
	 Singles Energy            =      -0.0000000000000000 [Eh]
	 Same-Spin Energy          =      -0.2314031424646180 [Eh]
	 Opposite-Spin Energy      =      -0.6872126474528930 [Eh]
	 Correlation Energy        =      -0.9186157899175110 [Eh]
	 Total Energy              =    -244.8442246550813479 [Eh]

	 ================> DF-SCS-MP2 Energies <==================
	-----------------------------------------------------------
	 SCS Same-Spin Scale       =       0.3333333333333333 [-]
	 SCS Opposite-Spin Scale   =       1.2000000000000000 [-]
	 SCS Same-Spin Energy      =      -0.0771343808215393 [Eh]
	 SCS Opposite-Spin Energy  =      -0.8246551769434716 [Eh]
	 SCS Correlation Energy    =      -0.9017895577650109 [Eh]
	 SCS Total Energy          =    -244.8273984229288374 [Eh]
	-----------------------------------------------------------

  Dipole Moment: [D]
     X:    -1.3587      Y:    -1.7814      Z:     0.0002     Total:     2.2404

*** Psi4 exiting successfully. Buy a developer a beer!
