                               Psi4 1.3.2 release

  ==> Input File <==

--------------------------------------------------------------------------
#psi4
#
memory 32 gb

molecule  {
0 1
  O        0.8108760    -1.0055400     0.0000200
  O        0.4978050     1.2581890     0.0000550
  N       -1.2743210    -0.2082740    -0.0000680
  C        0.0409300     0.1256900    -0.0000440
  H       -1.5001858    -1.1898807    -0.0000063
  H       -1.9567890     0.5320990     0.0000450
  H        1.7301120    -0.6777840     0.0000950
units angstrom
no_reorient  #important for SAPT in psi4, default
symmetry c1  #important for SAPT in psi4, default
}

set PROPERTIES_ORIGIN ["COM"]
properties('MP2/aug-cc-pvtz', properties = ['dipole'])
--------------------------------------------------------------------------

    Molecular point group: c1
  Charge       = 0
  Multiplicity = 1
  Basis Set: AUG-CC-PVTZ
    Blend: AUG-CC-PVTZ
  Basis Set: (AUG-CC-PVTZ AUX)
    Blend: AUG-CC-PVTZ-JKFIT

    Orbital Energies [Eh]
    ---------------------

    Doubly Occupied:

       1A    -20.616991     2A    -20.534281     3A    -15.599159
       4A    -11.415101     5A     -1.464958     6A     -1.353914
       7A     -1.226905     8A     -0.859111     9A     -0.759972
      10A     -0.707332    11A     -0.671037    12A     -0.646591
      13A     -0.606021    14A     -0.504823    15A     -0.462232
      16A     -0.435233

  @DF-RHF Final Energy:  -243.92528108795852

   => Energetics <=

    Nuclear Repulsion Energy =            123.0487739205819366
    One-Electron Energy =                -578.2207892188646383
    Two-Electron Energy =                 211.2467342103241776
    Total Energy =                       -243.9252810879585240
  Basis Set: (AUG-CC-PVTZ AUX)
    Blend: AUG-CC-PVTZ-RI
    Molecular point group: c1

    Geometry (in Angstrom), charge = 0, multiplicity = 1:

       Center              X                  Y                   Z               Mass
    ------------   -----------------  -----------------  -----------------  -----------------
         O            0.780742876996    -1.026630835590     0.000022390247    15.994914619570
         O            0.467671876996     1.237098164410     0.000057390247    15.994914619570
         N           -1.304454123004    -0.229364835590    -0.000065609753    14.003074004430
         C            0.010796876996     0.104599164410    -0.000041609753    12.000000000000
         H           -1.530318923004    -1.210971535590    -0.000003909753     1.007825032230
         H           -1.986922123004     0.511008164410     0.000047390247     1.007825032230
         H            1.699978876996    -0.698874835590     0.000097390247     1.007825032230

  Basis Set: AUG-CC-PVTZ
    Blend: AUG-CC-PVTZ
  Basis Set: (AUG-CC-PVTZ AUX)
    Blend: AUG-CC-PVTZ-JKFIT
	 Reference Energy          =    -243.9252810879585240 [Eh]
	 Singles Energy            =      -0.0000000000000000 [Eh]
	 Same-Spin Energy          =      -0.2316594302483232 [Eh]
	 Opposite-Spin Energy      =      -0.6874767013520539 [Eh]
	 Correlation Energy        =      -0.9191361316003770 [Eh]
	 Total Energy              =    -244.8444172195588919 [Eh]

	 ================> DF-SCS-MP2 Energies <==================
	-----------------------------------------------------------
	 SCS Same-Spin Scale       =       0.3333333333333333 [-]
	 SCS Opposite-Spin Scale   =       1.2000000000000000 [-]
	 SCS Same-Spin Energy      =      -0.0772198100827744 [Eh]
	 SCS Opposite-Spin Energy  =      -0.8249720416224646 [Eh]
	 SCS Correlation Energy    =      -0.9021918517052390 [Eh]
	 SCS Total Energy          =    -244.8274729396637497 [Eh]
	-----------------------------------------------------------

  Dipole Moment: [D]
     X:    -1.5164      Y:    -1.9317      Z:     0.0002     Total:     2.4558

*** Psi4 exiting successfully. Buy a developer a beer!
