                               Psi4 1.3.2 release

  ==> Input File <==

--------------------------------------------------------------------------
#psi4
#
memory 32 gb

molecule  {
0 1
  O        0.7910160    -1.0188051     0.0000169
  O        0.4978050     1.2581890     0.0000550
  N       -1.2743210    -0.2082740    -0.0000680
  C        0.0409300     0.1256900    -0.0000440
  H       -1.5681090    -1.1717340     0.0000060
  H       -1.9567890     0.5320990     0.0000450
  H        1.7301120    -0.6777840     0.0000950
units angstrom
no_reorient  #important for SAPT in psi4, default
symmetry c1  #important for SAPT in psi4, default
}

set PROPERTIES_ORIGIN ["COM"]
properties('MP2/aug-cc-pvtz', properties = ['dipole'])
--------------------------------------------------------------------------

    Molecular point group: c1
  Charge       = 0
  Multiplicity = 1
  Basis Set: AUG-CC-PVTZ
    Blend: AUG-CC-PVTZ
  Basis Set: (AUG-CC-PVTZ AUX)
    Blend: AUG-CC-PVTZ-JKFIT

    Orbital Energies [Eh]
    ---------------------

    Doubly Occupied:

       1A    -20.618969     2A    -20.536173     3A    -15.597798
       4A    -11.416327     5A     -1.462510     6A     -1.353800
       7A     -1.224633     8A     -0.857438     9A     -0.757757
      10A     -0.706944    11A     -0.663057    12A     -0.646377
      13A     -0.607285    14A     -0.504303    15A     -0.464054
      16A     -0.435236

  @DF-RHF Final Energy:  -243.92328545476050

   => Energetics <=

    Nuclear Repulsion Energy =            122.8910637861451676
    One-Electron Energy =                -577.9233766434183508
    Two-Electron Energy =                 211.1090274025126519
    Total Energy =                       -243.9232854547605029
  Basis Set: (AUG-CC-PVTZ AUX)
    Blend: AUG-CC-PVTZ-RI
    Molecular point group: c1

    Geometry (in Angstrom), charge = 0, multiplicity = 1:

       Center              X                  Y                   Z               Mass
    ------------   -----------------  -----------------  -----------------  -----------------
         O            0.767210910814    -1.036718338874     0.000019899723    15.994914619570
         O            0.473999910814     1.240275761126     0.000057999723    15.994914619570
         N           -1.298126089186    -0.226187238874    -0.000065000277    14.003074004430
         C            0.017124910814     0.107776761126    -0.000041000277    12.000000000000
         H           -1.591914089186    -1.189647238874     0.000008999723     1.007825032230
         H           -1.980594089186     0.514185761126     0.000047999723     1.007825032230
         H            1.706306910814    -0.695697238874     0.000097999723     1.007825032230

  Basis Set: AUG-CC-PVTZ
    Blend: AUG-CC-PVTZ
  Basis Set: (AUG-CC-PVTZ AUX)
    Blend: AUG-CC-PVTZ-JKFIT
	 Reference Energy          =    -243.9232854547605029 [Eh]
	 Singles Energy            =      -0.0000000000000000 [Eh]
	 Same-Spin Energy          =      -0.2320508821033761 [Eh]
	 Opposite-Spin Energy      =      -0.6884580988477433 [Eh]
	 Correlation Energy        =      -0.9205089809511194 [Eh]
	 Total Energy              =    -244.8437944357116294 [Eh]

	 ================> DF-SCS-MP2 Energies <==================
	-----------------------------------------------------------
	 SCS Same-Spin Scale       =       0.3333333333333333 [-]
	 SCS Opposite-Spin Scale   =       1.2000000000000000 [-]
	 SCS Same-Spin Energy      =      -0.0773502940344587 [Eh]
	 SCS Opposite-Spin Energy  =      -0.8261497186172920 [Eh]
	 SCS Correlation Energy    =      -0.9035000126517507 [Eh]
	 SCS Total Energy          =    -244.8267854674122646 [Eh]
	-----------------------------------------------------------

  Dipole Moment: [D]
     X:    -1.5192      Y:    -1.9039      Z:     0.0002     Total:     2.4358

*** Psi4 exiting successfully. Buy a developer a beer!
