                               Psi4 1.3.2 release

  ==> Input File <==

--------------------------------------------------------------------------
#psi4
#
memory 32 gb

molecule  {
0 1
  O        0.8108760    -1.0055400     0.0000200
  O        0.4978050     1.2581890     0.0000550
  N       -1.2743210    -0.2082740    -0.0000680
  C        0.0465582     0.1026848    -0.0000417
  H       -1.5681090    -1.1717340     0.0000060
  H       -1.9567890     0.5320990     0.0000450
  H        1.7301120    -0.6777840     0.0000950
units angstrom
no_reorient  #important for SAPT in psi4, default
symmetry c1  #important for SAPT in psi4, default
}

set PROPERTIES_ORIGIN ["COM"]
properties('MP2/aug-cc-pvtz', properties = ['dipole'])
--------------------------------------------------------------------------

    Molecular point group: c1
  Charge       = 0
  Multiplicity = 1
  Basis Set: AUG-CC-PVTZ
    Blend: AUG-CC-PVTZ
  Basis Set: (AUG-CC-PVTZ AUX)
    Blend: AUG-CC-PVTZ-JKFIT

    Orbital Energies [Eh]
    ---------------------

    Doubly Occupied:

       1A    -20.622640     2A    -20.530093     3A    -15.599534
       4A    -11.417480     5A     -1.471374     6A     -1.345784
       7A     -1.225286     8A     -0.867772     9A     -0.759143
      10A     -0.710965    11A     -0.672558    12A     -0.649784
      13A     -0.599816    14A     -0.503414    15A     -0.458778
      16A     -0.431768

  @DF-RHF Final Energy:  -243.92442543468837

   => Energetics <=

    Nuclear Repulsion Energy =            122.9524281381710438
    One-Electron Energy =                -578.0213298523058256
    Two-Electron Energy =                 211.1444762794463941
    Total Energy =                       -243.9244254346883736
  Basis Set: (AUG-CC-PVTZ AUX)
    Blend: AUG-CC-PVTZ-RI
    Molecular point group: c1

    Geometry (in Angstrom), charge = 0, multiplicity = 1:

       Center              X                  Y                   Z               Mass
    ------------   -----------------  -----------------  -----------------  -----------------
         O            0.780757894295    -1.022406171516     0.000021734747    15.994914619570
         O            0.467686894295     1.241322828484     0.000056734747    15.994914619570
         N           -1.304439105705    -0.225140171516    -0.000066265253    14.003074004430
         C            0.016440094295     0.085818628484    -0.000039965253    12.000000000000
         H           -1.598227105705    -1.188600171516     0.000007734747     1.007825032230
         H           -1.986907105705     0.515232828484     0.000046734747     1.007825032230
         H            1.699993894295    -0.694650171516     0.000096734747     1.007825032230

  Basis Set: AUG-CC-PVTZ
    Blend: AUG-CC-PVTZ
  Basis Set: (AUG-CC-PVTZ AUX)
    Blend: AUG-CC-PVTZ-JKFIT
	 Reference Energy          =    -243.9244254346883736 [Eh]
	 Singles Energy            =      -0.0000000000000000 [Eh]
	 Same-Spin Energy          =      -0.2317627269786570 [Eh]
	 Opposite-Spin Energy      =      -0.6875977881517357 [Eh]
	 Correlation Energy        =      -0.9193605151303927 [Eh]
	 Total Energy              =    -244.8437859498187663 [Eh]

	 ================> DF-SCS-MP2 Energies <==================
	-----------------------------------------------------------
	 SCS Same-Spin Scale       =       0.3333333333333333 [-]
	 SCS Opposite-Spin Scale   =       1.2000000000000000 [-]
	 SCS Same-Spin Energy      =      -0.0772542423262190 [Eh]
	 SCS Opposite-Spin Energy  =      -0.8251173457820827 [Eh]
	 SCS Correlation Energy    =      -0.9023715881083018 [Eh]
	 SCS Total Energy          =    -244.8267970227966828 [Eh]
	-----------------------------------------------------------

  Dipole Moment: [D]
     X:    -1.5216      Y:    -2.1288      Z:     0.0002     Total:     2.6167

*** Psi4 exiting successfully. Buy a developer a beer!
