                               Psi4 1.4a3.dev225

  ==> Input File <==

--------------------------------------------------------------------------
#psi4
#
memory 32 gb

molecule  {
0 1
  O        0.8159840    -1.0007070     0.0023930
  O        0.4905240     1.2598000     0.0069300
  N       -1.2790880    -0.2165130    -0.0579370
  C        0.0692433     0.0841075    -0.0010387
  H       -1.5432550    -1.1606730     0.1825210
  H       -1.9348860     0.5218130     0.1496860
  H        1.7343390    -0.6700500     0.0057850
units angstrom
no_reorient  #important for SAPT in psi4, default
symmetry c1  #important for SAPT in psi4, default
}

set PROPERTIES_ORIGIN ["COM"]
properties('MP2/aug-cc-pvtz', properties = ['dipole'])
--------------------------------------------------------------------------

    Molecular point group: c1
  Charge       = 0
  Multiplicity = 1
  Basis Set: AUG-CC-PVTZ
    Blend: AUG-CC-PVTZ
  Basis Set: (AUG-CC-PVTZ AUX)
    Blend: AUG-CC-PVTZ-JKFIT

    Orbital Energies [Eh]
    ---------------------

    Doubly Occupied:

       1A    -20.632979     2A    -20.531416     3A    -15.596148
       4A    -11.419806     5A     -1.487321     6A     -1.346075
       7A     -1.216628     8A     -0.872408     9A     -0.749666
      10A     -0.718244    11A     -0.673335    12A     -0.657345
      13A     -0.597524    14A     -0.503825    15A     -0.459693
      16A     -0.432145

  @DF-RHF Final Energy:  -243.92170028103735

   => Energetics <=

    Nuclear Repulsion Energy =            122.9316572402460821
    One-Electron Energy =                -577.9175968636046719
    Two-Electron Energy =                 211.0642393423212582
    Total Energy =                       -243.9217002810373458
  Basis Set: (AUG-CC-PVTZ AUX)
    Blend: AUG-CC-PVTZ-RI
    Molecular point group: c1

    Geometry (in Angstrom), charge = 0, multiplicity = 1:

       Center              X                  Y                   Z               Mass
    ------------   -----------------  -----------------  -----------------  -----------------
         O            0.782225977371    -1.013858560458     0.007866991089    15.994914619570
         O            0.456765977371     1.246648439542     0.012403991089    15.994914619570
         N           -1.312846022629    -0.229664560458    -0.052463008911    14.003074004430
         C            0.035485277371     0.070955939542     0.004435291089    12.000000000000
         H           -1.577013022629    -1.173824560458     0.187994991089     1.007825032230
         H           -1.968644022629     0.508661439542     0.155159991089     1.007825032230
         H            1.700580977371    -0.683201560458     0.011258991089     1.007825032230

  Basis Set: AUG-CC-PVTZ
    Blend: AUG-CC-PVTZ
  Basis Set: (AUG-CC-PVTZ AUX)
    Blend: AUG-CC-PVTZ-JKFIT
	 Reference Energy          =    -243.9217002810373458 [Eh]
	 Singles Energy            =      -0.0000000000000000 [Eh]
	 Same-Spin Energy          =      -0.2317643062485462 [Eh]
	 Opposite-Spin Energy      =      -0.6878441463911742 [Eh]
	 Correlation Energy        =      -0.9196084526397204 [Eh]
	 Total Energy              =    -244.8413087336770673 [Eh]

	 ================> DF-SCS-MP2 Energies <==================
	-----------------------------------------------------------
	 SCS Same-Spin Scale       =       0.3333333333333333 [-]
	 SCS Opposite-Spin Scale   =       1.2000000000000000 [-]
	 SCS Same-Spin Energy      =      -0.0772547687495154 [Eh]
	 SCS Opposite-Spin Energy  =      -0.8254129756694090 [Eh]
	 SCS Correlation Energy    =      -0.9026677444189244 [Eh]
	 SCS Total Energy          =    -244.8243680254562662 [Eh]
	-----------------------------------------------------------

  Dipole Moment: [D]
     X:    -1.1023      Y:    -2.2221      Z:     0.6508     Total:     2.5644

*** Psi4 exiting successfully. Buy a developer a beer!
