                               Psi4 1.3.2 release

  ==> Input File <==

--------------------------------------------------------------------------
#psi4
#
memory 32 gb

molecule  {
0 1
  O        0.8108760    -1.0055400     0.0000200
  O        0.4978050     1.2581890     0.0000550
  N       -1.2743210    -0.2082740    -0.0000680
  C        0.2347785     0.1749114    -0.0000405
  H       -1.5681090    -1.1717340     0.0000060
  H       -1.9567890     0.5320990     0.0000450
  H        1.7301120    -0.6777840     0.0000950
units angstrom
no_reorient  #important for SAPT in psi4, default
symmetry c1  #important for SAPT in psi4, default
}

set PROPERTIES_ORIGIN ["COM"]
properties('MP2/aug-cc-pvtz', properties = ['dipole'])
--------------------------------------------------------------------------

    Molecular point group: c1
  Charge       = 0
  Multiplicity = 1
  Basis Set: AUG-CC-PVTZ
    Blend: AUG-CC-PVTZ
  Basis Set: (AUG-CC-PVTZ AUX)
    Blend: AUG-CC-PVTZ-JKFIT

    Orbital Energies [Eh]
    ---------------------

    Doubly Occupied:

       1A    -20.644515     2A    -20.571150     3A    -15.550742
       4A    -11.423107     5A     -1.524445     6A     -1.443097
       7A     -1.138759     8A     -0.851010     9A     -0.747882
      10A     -0.728234    11A     -0.683207    12A     -0.663306
      13A     -0.613674    14A     -0.538020    15A     -0.477332
      16A     -0.401128

  @DF-RHF Final Energy:  -243.87749318553051

   => Energetics <=

    Nuclear Repulsion Energy =            123.5090560314860824
    One-Electron Energy =                -578.7738827316026118
    Two-Electron Energy =                 211.3873335145860324
    Total Energy =                       -243.8774931855305113
  Basis Set: (AUG-CC-PVTZ AUX)
    Blend: AUG-CC-PVTZ-RI
    Molecular point group: c1

    Geometry (in Angstrom), charge = 0, multiplicity = 1:

       Center              X                  Y                   Z               Mass
    ------------   -----------------  -----------------  -----------------  -----------------
         O            0.743740889002    -1.036610869068     0.000021498745    15.994914619570
         O            0.430669889002     1.227118130932     0.000056498745    15.994914619570
         N           -1.341456110998    -0.239344869068    -0.000066501255    14.003074004430
         C            0.167643389002     0.143840530932    -0.000039001255    12.000000000000
         H           -1.635244110998    -1.202804869068     0.000007498745     1.007825032230
         H           -2.023924110998     0.501028130932     0.000046498745     1.007825032230
         H            1.662976889002    -0.708854869068     0.000096498745     1.007825032230

  Basis Set: AUG-CC-PVTZ
    Blend: AUG-CC-PVTZ
  Basis Set: (AUG-CC-PVTZ AUX)
    Blend: AUG-CC-PVTZ-JKFIT
	 Reference Energy          =    -243.8774931855305113 [Eh]
	 Singles Energy            =      -0.0000000000000000 [Eh]
	 Same-Spin Energy          =      -0.2311549019610036 [Eh]
	 Opposite-Spin Energy      =      -0.6873733707870162 [Eh]
	 Correlation Energy        =      -0.9185282727480197 [Eh]
	 Total Energy              =    -244.7960214582785170 [Eh]

	 ================> DF-SCS-MP2 Energies <==================
	-----------------------------------------------------------
	 SCS Same-Spin Scale       =       0.3333333333333333 [-]
	 SCS Opposite-Spin Scale   =       1.2000000000000000 [-]
	 SCS Same-Spin Energy      =      -0.0770516339870012 [Eh]
	 SCS Opposite-Spin Energy  =      -0.8248480449444194 [Eh]
	 SCS Correlation Energy    =      -0.9018996789314206 [Eh]
	 SCS Total Energy          =    -244.7793928644619257 [Eh]
	-----------------------------------------------------------

  Dipole Moment: [D]
     X:     0.4760      Y:    -1.2806      Z:     0.0003     Total:     1.3662

*** Psi4 exiting successfully. Buy a developer a beer!
