                               Psi4 1.3.2 release

  ==> Input File <==

--------------------------------------------------------------------------
#psi4
#
memory 32 gb

molecule  {
0 1
  O        0.8108760    -1.0055400     0.0000200
  O        0.4978050     1.2581890     0.0000550
  N       -1.2743210    -0.2082740    -0.0000680
  C        0.1633936     0.1999743    -0.0000340
  H       -1.5681090    -1.1717340     0.0000060
  H       -1.9567890     0.5320990     0.0000450
  H        1.7301120    -0.6777840     0.0000950
units angstrom
no_reorient  #important for SAPT in psi4, default
symmetry c1  #important for SAPT in psi4, default
}

set PROPERTIES_ORIGIN ["COM"]
properties('MP2/aug-cc-pvtz', properties = ['dipole'])
--------------------------------------------------------------------------

    Molecular point group: c1
  Charge       = 0
  Multiplicity = 1
  Basis Set: AUG-CC-PVTZ
    Blend: AUG-CC-PVTZ
  Basis Set: (AUG-CC-PVTZ AUX)
    Blend: AUG-CC-PVTZ-JKFIT

    Orbital Energies [Eh]
    ---------------------

    Doubly Occupied:

       1A    -20.623268     2A    -20.567571     3A    -15.566155
       4A    -11.416126     5A     -1.512549     6A     -1.414337
       7A     -1.163750     8A     -0.838191     9A     -0.739045
      10A     -0.727489    11A     -0.668605    12A     -0.664430
      13A     -0.619031    14A     -0.529014    15A     -0.484533
      16A     -0.416869

  @DF-RHF Final Energy:  -243.89552085396204

   => Energetics <=

    Nuclear Repulsion Energy =            123.4312738281848141
    One-Electron Energy =                -578.7516644565208708
    Two-Electron Energy =                 211.4248697743740024
    Total Energy =                       -243.8955208539620401
  Basis Set: (AUG-CC-PVTZ AUX)
    Blend: AUG-CC-PVTZ-RI
    Molecular point group: c1

    Geometry (in Angstrom), charge = 0, multiplicity = 1:

       Center              X                  Y                   Z               Mass
    ------------   -----------------  -----------------  -----------------  -----------------
         O            0.757780050672    -1.041539952179     0.000020220400    15.994914619570
         O            0.444709050672     1.222189047821     0.000055220400    15.994914619570
         N           -1.327416949328    -0.244273952179    -0.000067779600    14.003074004430
         C            0.110297650672     0.163974347821    -0.000033779600    12.000000000000
         H           -1.621204949328    -1.207733952179     0.000006220400     1.007825032230
         H           -2.009884949328     0.496099047821     0.000045220400     1.007825032230
         H            1.677016050672    -0.713783952179     0.000095220400     1.007825032230

  Basis Set: AUG-CC-PVTZ
    Blend: AUG-CC-PVTZ
  Basis Set: (AUG-CC-PVTZ AUX)
    Blend: AUG-CC-PVTZ-JKFIT
	 Reference Energy          =    -243.8955208539620401 [Eh]
	 Singles Energy            =      -0.0000000000000000 [Eh]
	 Same-Spin Energy          =      -0.2305815426169640 [Eh]
	 Opposite-Spin Energy      =      -0.6863206532835496 [Eh]
	 Correlation Energy        =      -0.9169021959005136 [Eh]
	 Total Energy              =    -244.8124230498625593 [Eh]

	 ================> DF-SCS-MP2 Energies <==================
	-----------------------------------------------------------
	 SCS Same-Spin Scale       =       0.3333333333333333 [-]
	 SCS Opposite-Spin Scale   =       1.2000000000000000 [-]
	 SCS Same-Spin Energy      =      -0.0768605142056547 [Eh]
	 SCS Opposite-Spin Energy  =      -0.8235847839402596 [Eh]
	 SCS Correlation Energy    =      -0.9004452981459142 [Eh]
	 SCS Total Energy          =    -244.7959661521079511 [Eh]
	-----------------------------------------------------------

  Dipole Moment: [D]
     X:    -0.2585      Y:    -1.1027      Z:     0.0003     Total:     1.1326

*** Psi4 exiting successfully. Buy a developer a beer!
