                               Psi4 1.3.2 release

  ==> Input File <==

--------------------------------------------------------------------------
#psi4
#
memory 32 gb

molecule  {
0 1
  O        0.8108760    -1.0055400     0.0000200
  O        0.4978050     1.2581890     0.0000550
  N       -1.2743210    -0.2082740    -0.0000680
  C        0.0409300     0.1256900    -0.0000440
  H       -1.5097747    -0.9804303    -0.0000087
  H       -1.9567890     0.5320990     0.0000450
  H        1.7301120    -0.6777840     0.0000950
units angstrom
no_reorient  #important for SAPT in psi4, default
symmetry c1  #important for SAPT in psi4, default
}

set PROPERTIES_ORIGIN ["COM"]
properties('MP2/aug-cc-pvtz', properties = ['dipole'])
--------------------------------------------------------------------------

    Molecular point group: c1
  Charge       = 0
  Multiplicity = 1
  Basis Set: AUG-CC-PVTZ
    Blend: AUG-CC-PVTZ
  Basis Set: (AUG-CC-PVTZ AUX)
    Blend: AUG-CC-PVTZ-JKFIT

    Orbital Energies [Eh]
    ---------------------

    Doubly Occupied:

       1A    -20.618405     2A    -20.536676     3A    -15.580192
       4A    -11.418422     5A     -1.467618     6A     -1.355868
       7A     -1.264407     8A     -0.881881     9A     -0.805931
      10A     -0.709148    11A     -0.678647    12A     -0.648751
      13A     -0.609649    14A     -0.507214    15A     -0.466076
      16A     -0.440679

  @DF-RHF Final Energy:  -243.87826474060205

   => Energetics <=

    Nuclear Repulsion Energy =            124.1654099815011136
    One-Electron Energy =                -580.1082199401780599
    Two-Electron Energy =                 212.0645452180748975
    Total Energy =                       -243.8782647406020487
  Basis Set: (AUG-CC-PVTZ AUX)
    Blend: AUG-CC-PVTZ-RI
    Molecular point group: c1

    Geometry (in Angstrom), charge = 0, multiplicity = 1:

       Center              X                  Y                   Z               Mass
    ------------   -----------------  -----------------  -----------------  -----------------
         O            0.780901259609    -1.030090387957     0.000022429889    15.994914619570
         O            0.467830259609     1.233638612043     0.000057429889    15.994914619570
         N           -1.304295740391    -0.232824387957    -0.000065570111    14.003074004430
         C            0.010955259609     0.101139612043    -0.000041570111    12.000000000000
         H           -1.539749440391    -1.004980687957    -0.000006270111     1.007825032230
         H           -1.986763740391     0.507548612043     0.000047429889     1.007825032230
         H            1.700137259609    -0.702334387957     0.000097429889     1.007825032230

  Basis Set: AUG-CC-PVTZ
    Blend: AUG-CC-PVTZ
  Basis Set: (AUG-CC-PVTZ AUX)
    Blend: AUG-CC-PVTZ-JKFIT
	 Reference Energy          =    -243.8782647406020487 [Eh]
	 Singles Energy            =      -0.0000000000000000 [Eh]
	 Same-Spin Energy          =      -0.2306923807881239 [Eh]
	 Opposite-Spin Energy      =      -0.6852778855353046 [Eh]
	 Correlation Energy        =      -0.9159702663234285 [Eh]
	 Total Energy              =    -244.7942350069254758 [Eh]

	 ================> DF-SCS-MP2 Energies <==================
	-----------------------------------------------------------
	 SCS Same-Spin Scale       =       0.3333333333333333 [-]
	 SCS Opposite-Spin Scale   =       1.2000000000000000 [-]
	 SCS Same-Spin Energy      =      -0.0768974602627080 [Eh]
	 SCS Opposite-Spin Energy  =      -0.8223334626423654 [Eh]
	 SCS Correlation Energy    =      -0.8992309229050733 [Eh]
	 SCS Total Energy          =    -244.7774956635071248 [Eh]
	-----------------------------------------------------------

  Dipole Moment: [D]
     X:    -1.4803      Y:    -1.7110      Z:     0.0002     Total:     2.2624

*** Psi4 exiting successfully. Buy a developer a beer!
