                               Psi4 1.4a3.dev225

  ==> Input File <==

--------------------------------------------------------------------------
#psi4
#
memory 32 gb

molecule  {
0 1
  O        0.8159840    -1.0007070     0.0023930
  O        0.4905240     1.2598000     0.0069300
  N       -1.2790880    -0.2165130    -0.0579370
  C        0.0408930     0.1252930    -0.0011690
  H       -1.5432550    -1.1606730     0.1825210
  H       -1.9348860     0.5218130     0.1496860
  H        1.6872957    -0.6869881     0.0056112
units angstrom
no_reorient  #important for SAPT in psi4, default
symmetry c1  #important for SAPT in psi4, default
}

set PROPERTIES_ORIGIN ["COM"]
properties('MP2/aug-cc-pvtz', properties = ['dipole'])
--------------------------------------------------------------------------

    Molecular point group: c1
  Charge       = 0
  Multiplicity = 1
  Basis Set: AUG-CC-PVTZ
    Blend: AUG-CC-PVTZ
  Basis Set: (AUG-CC-PVTZ AUX)
    Blend: AUG-CC-PVTZ-JKFIT

    Orbital Energies [Eh]
    ---------------------

    Doubly Occupied:

       1A    -20.615017     2A    -20.539258     3A    -15.599781
       4A    -11.418669     5A     -1.474660     6A     -1.361764
       7A     -1.227972     8A     -0.868726     9A     -0.759246
      10A     -0.709246    11A     -0.671267    12A     -0.649001
      13A     -0.610471    14A     -0.508530    15A     -0.466897
      16A     -0.440232

  @DF-RHF Final Energy:  -243.92603640102402

   => Energetics <=

    Nuclear Repulsion Energy =            123.1945567808915598
    One-Electron Energy =                -578.3997099706812151
    Two-Electron Energy =                 211.2791167887656343
    Total Energy =                       -243.9260364010240210
  Basis Set: (AUG-CC-PVTZ AUX)
    Blend: AUG-CC-PVTZ-RI
    Molecular point group: c1

    Geometry (in Angstrom), charge = 0, multiplicity = 1:

       Center              X                  Y                   Z               Mass
    ------------   -----------------  -----------------  -----------------  -----------------
         O            0.788578616218    -1.021678679774     0.007895487700    15.994914619570
         O            0.463118616218     1.238828320226     0.012432487700    15.994914619570
         N           -1.306493383782    -0.237484679774    -0.052434512300    14.003074004430
         C            0.013487616218     0.104321320226     0.004333487700    12.000000000000
         H           -1.570660383782    -1.181644679774     0.188023487700     1.007825032230
         H           -1.962291383782     0.500841320226     0.155188487700     1.007825032230
         H            1.659890316218    -0.707959779774     0.011113687700     1.007825032230

  Basis Set: AUG-CC-PVTZ
    Blend: AUG-CC-PVTZ
  Basis Set: (AUG-CC-PVTZ AUX)
    Blend: AUG-CC-PVTZ-JKFIT
	 Reference Energy          =    -243.9260364010240210 [Eh]
	 Singles Energy            =      -0.0000000000000000 [Eh]
	 Same-Spin Energy          =      -0.2310035296374095 [Eh]
	 Opposite-Spin Energy      =      -0.6863839594342267 [Eh]
	 Correlation Energy        =      -0.9173874890716363 [Eh]
	 Total Energy              =    -244.8434238900956643 [Eh]

	 ================> DF-SCS-MP2 Energies <==================
	-----------------------------------------------------------
	 SCS Same-Spin Scale       =       0.3333333333333333 [-]
	 SCS Opposite-Spin Scale   =       1.2000000000000000 [-]
	 SCS Same-Spin Energy      =      -0.0770011765458032 [Eh]
	 SCS Opposite-Spin Energy  =      -0.8236607513210720 [Eh]
	 SCS Correlation Energy    =      -0.9006619278668752 [Eh]
	 SCS Total Energy          =    -244.8266983288908989 [Eh]
	-----------------------------------------------------------

  Dipole Moment: [D]
     X:    -1.4354      Y:    -1.8667      Z:     0.6488     Total:     2.4425

*** Psi4 exiting successfully. Buy a developer a beer!
