                               Psi4 1.3.2 release

  ==> Input File <==

--------------------------------------------------------------------------
#psi4
#
memory 32 gb

molecule  {
0 1
  O        0.8108760    -1.0055400     0.0000200
  O        0.4978050     1.2581890     0.0000550
  N       -1.2743210    -0.2082740    -0.0000680
  C       -0.0730979     0.0390117    -0.0000533
  H       -1.5681090    -1.1717340     0.0000060
  H       -1.9567890     0.5320990     0.0000450
  H        1.7301120    -0.6777840     0.0000950
units angstrom
no_reorient  #important for SAPT in psi4, default
symmetry c1  #important for SAPT in psi4, default
}

set PROPERTIES_ORIGIN ["COM"]
properties('MP2/aug-cc-pvtz', properties = ['dipole'])
--------------------------------------------------------------------------

    Molecular point group: c1
  Charge       = 0
  Multiplicity = 1
  Basis Set: AUG-CC-PVTZ
    Blend: AUG-CC-PVTZ
  Basis Set: (AUG-CC-PVTZ AUX)
    Blend: AUG-CC-PVTZ-JKFIT

    Orbital Energies [Eh]
    ---------------------

    Doubly Occupied:

       1A    -20.612858     2A    -20.501281     3A    -15.628788
       4A    -11.413018     5A     -1.453151     6A     -1.319580
       7A     -1.246316     8A     -0.891813     9A     -0.800766
      10A     -0.724510    11A     -0.665185    12A     -0.650694
      13A     -0.550113    14A     -0.514882    15A     -0.423497
      16A     -0.412079

  @DF-RHF Final Energy:  -243.88546321897871

   => Energetics <=

    Nuclear Repulsion Energy =            122.8955068720090793
    One-Electron Energy =                -577.9448754275302917
    Two-Electron Energy =                 211.1639053365424843
    Total Energy =                       -243.8854632189787139
  Basis Set: (AUG-CC-PVTZ AUX)
    Blend: AUG-CC-PVTZ-RI
    Molecular point group: c1

    Geometry (in Angstrom), charge = 0, multiplicity = 1:

       Center              X                  Y                   Z               Mass
    ------------   -----------------  -----------------  -----------------  -----------------
         O            0.804290480776    -1.009883678035     0.000024016102    15.994914619570
         O            0.491219480776     1.253845321965     0.000059016102    15.994914619570
         N           -1.280906519224    -0.212617678035    -0.000063983898    14.003074004430
         C           -0.079683419224     0.034668021965    -0.000049283898    12.000000000000
         H           -1.574694519224    -1.176077678035     0.000010016102     1.007825032230
         H           -1.963374519224     0.527755321965     0.000049016102     1.007825032230
         H            1.723526480776    -0.682127678035     0.000099016102     1.007825032230

  Basis Set: AUG-CC-PVTZ
    Blend: AUG-CC-PVTZ
  Basis Set: (AUG-CC-PVTZ AUX)
    Blend: AUG-CC-PVTZ-JKFIT
	 Reference Energy          =    -243.8854632189787139 [Eh]
	 Singles Energy            =      -0.0000000000000000 [Eh]
	 Same-Spin Energy          =      -0.2328507542424954 [Eh]
	 Opposite-Spin Energy      =      -0.6892273897924379 [Eh]
	 Correlation Energy        =      -0.9220781440349333 [Eh]
	 Total Energy              =    -244.8075413630136552 [Eh]

	 ================> DF-SCS-MP2 Energies <==================
	-----------------------------------------------------------
	 SCS Same-Spin Scale       =       0.3333333333333333 [-]
	 SCS Opposite-Spin Scale   =       1.2000000000000000 [-]
	 SCS Same-Spin Energy      =      -0.0776169180808318 [Eh]
	 SCS Opposite-Spin Energy  =      -0.8270728677509255 [Eh]
	 SCS Correlation Energy    =      -0.9046897858317573 [Eh]
	 SCS Total Energy          =    -244.7901530048104632 [Eh]
	-----------------------------------------------------------

  Dipole Moment: [D]
     X:    -2.7447      Y:    -2.7980      Z:     0.0001     Total:     3.9194

*** Psi4 exiting successfully. Buy a developer a beer!
