                               Psi4 1.4a3.dev225

  ==> Input File <==

--------------------------------------------------------------------------
#psi4
#
memory 32 gb

molecule  {
0 1
  O        0.8159840    -1.0007070     0.0023930
  O        0.4905240     1.2598000     0.0069300
  N       -1.2790880    -0.2165130    -0.0579370
  C        0.0408930     0.1252930    -0.0011690
  H       -1.5432550    -1.1606730     0.1825210
  H       -1.9348860     0.5218130     0.1496860
  H        1.7531563    -0.6632748     0.0058545
units angstrom
no_reorient  #important for SAPT in psi4, default
symmetry c1  #important for SAPT in psi4, default
}

set PROPERTIES_ORIGIN ["COM"]
properties('MP2/aug-cc-pvtz', properties = ['dipole'])
--------------------------------------------------------------------------

    Molecular point group: c1
  Charge       = 0
  Multiplicity = 1
  Basis Set: AUG-CC-PVTZ
    Blend: AUG-CC-PVTZ
  Basis Set: (AUG-CC-PVTZ AUX)
    Blend: AUG-CC-PVTZ-JKFIT

    Orbital Energies [Eh]
    ---------------------

    Doubly Occupied:

       1A    -20.619422     2A    -20.537867     3A    -15.599060
       4A    -11.417168     5A     -1.463882     6A     -1.354747
       7A     -1.225788     8A     -0.856669     9A     -0.754912
      10A     -0.706776    11A     -0.663191    12A     -0.646579
      13A     -0.606241    14A     -0.505759    15A     -0.465329
      16A     -0.439444

  @DF-RHF Final Energy:  -243.92398253386736

   => Energetics <=

    Nuclear Repulsion Energy =            122.7857604480297198
    One-Electron Energy =                -577.6938173806469194
    Two-Electron Energy =                 210.9840743987498684
    Total Energy =                       -243.9239825338673597
  Basis Set: (AUG-CC-PVTZ AUX)
    Blend: AUG-CC-PVTZ-RI
    Molecular point group: c1

    Geometry (in Angstrom), charge = 0, multiplicity = 1:

       Center              X                  Y                   Z               Mass
    ------------   -----------------  -----------------  -----------------  -----------------
         O            0.787490777786    -1.022070359155     0.007891469044    15.994914619570
         O            0.462030777786     1.238436640845     0.012428469044    15.994914619570
         N           -1.307581222214    -0.237876359155    -0.052438530956    14.003074004430
         C            0.012399777786     0.103929640845     0.004329469044    12.000000000000
         H           -1.571748222214    -1.182036359155     0.188019469044     1.007825032230
         H           -1.963379222214     0.500449640845     0.155184469044     1.007825032230
         H            1.724663077786    -0.684638159155     0.011352969044     1.007825032230

  Basis Set: AUG-CC-PVTZ
    Blend: AUG-CC-PVTZ
  Basis Set: (AUG-CC-PVTZ AUX)
    Blend: AUG-CC-PVTZ-JKFIT
	 Reference Energy          =    -243.9239825338673597 [Eh]
	 Singles Energy            =      -0.0000000000000000 [Eh]
	 Same-Spin Energy          =      -0.2318155538420463 [Eh]
	 Opposite-Spin Energy      =      -0.6883122244044508 [Eh]
	 Correlation Energy        =      -0.9201277782464972 [Eh]
	 Total Energy              =    -244.8441103121138553 [Eh]

	 ================> DF-SCS-MP2 Energies <==================
	-----------------------------------------------------------
	 SCS Same-Spin Scale       =       0.3333333333333333 [-]
	 SCS Opposite-Spin Scale   =       1.2000000000000000 [-]
	 SCS Same-Spin Energy      =      -0.0772718512806821 [Eh]
	 SCS Opposite-Spin Energy  =      -0.8259746692853410 [Eh]
	 SCS Correlation Energy    =      -0.9032465205660231 [Eh]
	 SCS Total Energy          =    -244.8272290544333885 [Eh]
	-----------------------------------------------------------

  Dipole Moment: [D]
     X:    -1.3361      Y:    -1.8611      Z:     0.6491     Total:     2.3812

*** Psi4 exiting successfully. Buy a developer a beer!
