                               Psi4 1.3.2 release

  ==> Input File <==

--------------------------------------------------------------------------
#psi4
#
memory 32 gb

molecule  {
0 1
  O        0.8108760    -1.0055400     0.0000200
  O        0.4978050     1.2581890     0.0000550
  N       -1.2743210    -0.2082740    -0.0000680
  C        0.0409300     0.1256900    -0.0000440
  H       -1.5343058    -1.1814001    -0.0000001
  H       -1.9567890     0.5320990     0.0000450
  H        1.7301120    -0.6777840     0.0000950
units angstrom
no_reorient  #important for SAPT in psi4, default
symmetry c1  #important for SAPT in psi4, default
}

set PROPERTIES_ORIGIN ["COM"]
properties('MP2/aug-cc-pvtz', properties = ['dipole'])
--------------------------------------------------------------------------

    Molecular point group: c1
  Charge       = 0
  Multiplicity = 1
  Basis Set: AUG-CC-PVTZ
    Blend: AUG-CC-PVTZ
  Basis Set: (AUG-CC-PVTZ AUX)
    Blend: AUG-CC-PVTZ-JKFIT

    Orbital Energies [Eh]
    ---------------------

    Doubly Occupied:

       1A    -20.616684     2A    -20.534636     3A    -15.599170
       4A    -11.415809     5A     -1.464709     6A     -1.353994
       7A     -1.226493     8A     -0.860323     9A     -0.759898
      10A     -0.707129    11A     -0.669386    12A     -0.646451
      13A     -0.606281    14A     -0.504691    15A     -0.462688
      16A     -0.435323

  @DF-RHF Final Energy:  -243.92565176591495

   => Energetics <=

    Nuclear Repulsion Energy =            123.0018864604097786
    One-Electron Energy =                -578.1277486868284541
    Two-Electron Energy =                 211.2002104605037403
    Total Energy =                       -243.9256517659149495
  Basis Set: (AUG-CC-PVTZ AUX)
    Blend: AUG-CC-PVTZ-RI
    Molecular point group: c1

    Geometry (in Angstrom), charge = 0, multiplicity = 1:

       Center              X                  Y                   Z               Mass
    ------------   -----------------  -----------------  -----------------  -----------------
         O            0.781306446828    -1.026770912094     0.000022287840    15.994914619570
         O            0.468235446828     1.236958087906     0.000057287840    15.994914619570
         N           -1.303890553172    -0.229504912094    -0.000065712160    14.003074004430
         C            0.011360446828     0.104459087906    -0.000041712160    12.000000000000
         H           -1.563875353172    -1.202631012094     0.000002187840     1.007825032230
         H           -1.986358553172     0.510868087906     0.000047287840     1.007825032230
         H            1.700542446828    -0.699014912094     0.000097287840     1.007825032230

  Basis Set: AUG-CC-PVTZ
    Blend: AUG-CC-PVTZ
  Basis Set: (AUG-CC-PVTZ AUX)
    Blend: AUG-CC-PVTZ-JKFIT
	 Reference Energy          =    -243.9256517659149495 [Eh]
	 Singles Energy            =      -0.0000000000000000 [Eh]
	 Same-Spin Energy          =      -0.2316342920223324 [Eh]
	 Opposite-Spin Energy      =      -0.6874758549823830 [Eh]
	 Correlation Energy        =      -0.9191101470047154 [Eh]
	 Total Energy              =    -244.8447619129196653 [Eh]

	 ================> DF-SCS-MP2 Energies <==================
	-----------------------------------------------------------
	 SCS Same-Spin Scale       =       0.3333333333333333 [-]
	 SCS Opposite-Spin Scale   =       1.2000000000000000 [-]
	 SCS Same-Spin Energy      =      -0.0772114306741108 [Eh]
	 SCS Opposite-Spin Energy  =      -0.8249710259788595 [Eh]
	 SCS Correlation Energy    =      -0.9021824566529704 [Eh]
	 SCS Total Energy          =    -244.8278342225679296 [Eh]
	-----------------------------------------------------------

  Dipole Moment: [D]
     X:    -1.5415      Y:    -1.9272      Z:     0.0002     Total:     2.4679

*** Psi4 exiting successfully. Buy a developer a beer!
