                               Psi4 1.4a3.dev225

  ==> Input File <==

--------------------------------------------------------------------------
#psi4
#
memory 32 gb

molecule  {
0 1
  O        0.8159840    -1.0007070     0.0023930
  O        0.4905240     1.2598000     0.0069300
  N       -1.2790880    -0.2165130    -0.0579370
  C        0.0482617     0.1438856    -0.0010363
  H       -1.5432550    -1.1606730     0.1825210
  H       -1.9348860     0.5218130     0.1496860
  H        1.7343390    -0.6700500     0.0057850
units angstrom
no_reorient  #important for SAPT in psi4, default
symmetry c1  #important for SAPT in psi4, default
}

set PROPERTIES_ORIGIN ["COM"]
properties('MP2/aug-cc-pvtz', properties = ['dipole'])
--------------------------------------------------------------------------

    Molecular point group: c1
  Charge       = 0
  Multiplicity = 1
  Basis Set: AUG-CC-PVTZ
    Blend: AUG-CC-PVTZ
  Basis Set: (AUG-CC-PVTZ AUX)
    Blend: AUG-CC-PVTZ-JKFIT

    Orbital Energies [Eh]
    ---------------------

    Doubly Occupied:

       1A    -20.615409     2A    -20.543554     3A    -15.596513
       4A    -11.416920     5A     -1.467188     6A     -1.366123
       7A     -1.221167     8A     -0.854543     9A     -0.753597
      10A     -0.707408    11A     -0.661629    12A     -0.647065
      13A     -0.613569    14A     -0.507892    15A     -0.470661
      16A     -0.441243

  @DF-RHF Final Energy:  -243.92557113703026

   => Energetics <=

    Nuclear Repulsion Energy =            122.9353908205297046
    One-Electron Energy =                -577.9529607441168082
    Two-Electron Energy =                 211.0919987865568146
    Total Energy =                       -243.9255711370302606
  Basis Set: (AUG-CC-PVTZ AUX)
    Blend: AUG-CC-PVTZ-RI
    Molecular point group: c1

    Geometry (in Angstrom), charge = 0, multiplicity = 1:

       Center              X                  Y                   Z               Mass
    ------------   -----------------  -----------------  -----------------  -----------------
         O            0.786352397307    -1.025615030106     0.007866519084    15.994914619570
         O            0.460892397307     1.234891969894     0.012403519084    15.994914619570
         N           -1.308719602693    -0.241421030106    -0.052463480916    14.003074004430
         C            0.018630097307     0.118977569894     0.004437219084    12.000000000000
         H           -1.572886602693    -1.185581030106     0.187994519084     1.007825032230
         H           -1.964517602693     0.496904969894     0.155159519084     1.007825032230
         H            1.704707397307    -0.694958030106     0.011258519084     1.007825032230

  Basis Set: AUG-CC-PVTZ
    Blend: AUG-CC-PVTZ
  Basis Set: (AUG-CC-PVTZ AUX)
    Blend: AUG-CC-PVTZ-JKFIT
	 Reference Energy          =    -243.9255711370302606 [Eh]
	 Singles Energy            =      -0.0000000000000000 [Eh]
	 Same-Spin Energy          =      -0.2313749666398305 [Eh]
	 Opposite-Spin Energy      =      -0.6875081044851861 [Eh]
	 Correlation Energy        =      -0.9188830711250165 [Eh]
	 Total Energy              =    -244.8444542081552697 [Eh]

	 ================> DF-SCS-MP2 Energies <==================
	-----------------------------------------------------------
	 SCS Same-Spin Scale       =       0.3333333333333333 [-]
	 SCS Opposite-Spin Scale   =       1.2000000000000000 [-]
	 SCS Same-Spin Energy      =      -0.0771249888799435 [Eh]
	 SCS Opposite-Spin Energy  =      -0.8250097253822233 [Eh]
	 SCS Correlation Energy    =      -0.9021347142621667 [Eh]
	 SCS Total Energy          =    -244.8277058512924214 [Eh]
	-----------------------------------------------------------

  Dipole Moment: [D]
     X:    -1.2835      Y:    -1.6847      Z:     0.6524     Total:     2.2161

*** Psi4 exiting successfully. Buy a developer a beer!
