                               Psi4 1.3.2 release

  ==> Input File <==

--------------------------------------------------------------------------
#psi4
#
memory 32 gb

molecule  {
0 1
  O        0.8108760    -1.0055400     0.0000200
  O        0.4978050     1.2581890     0.0000550
  N       -1.2743210    -0.2082740    -0.0000680
  C        0.0409300     0.1256900    -0.0000440
  H       -1.5681090    -1.1717340     0.0000060
  H       -1.9567890     0.5320990     0.0000450
  H        1.5417284    -0.7449527     0.0000796
units angstrom
no_reorient  #important for SAPT in psi4, default
symmetry c1  #important for SAPT in psi4, default
}

set PROPERTIES_ORIGIN ["COM"]
properties('MP2/aug-cc-pvtz', properties = ['dipole'])
--------------------------------------------------------------------------

    Molecular point group: c1
  Charge       = 0
  Multiplicity = 1
  Basis Set: AUG-CC-PVTZ
    Blend: AUG-CC-PVTZ
  Basis Set: (AUG-CC-PVTZ AUX)
    Blend: AUG-CC-PVTZ-JKFIT

    Orbital Energies [Eh]
    ---------------------

    Doubly Occupied:

       1A    -20.599978     2A    -20.539060     3A    -15.601415
       4A    -11.420936     5A     -1.509509     6A     -1.374779
       7A     -1.232680     8A     -0.901678     9A     -0.772159
      10A     -0.713778    11A     -0.689279    12A     -0.653660
      13A     -0.616213    14A     -0.513021    15A     -0.467622
      16A     -0.437673

  @DF-RHF Final Energy:  -243.87962191614278

   => Energetics <=

    Nuclear Repulsion Energy =            124.3270786080222905
    One-Electron Energy =                -580.3265204726201318
    Two-Electron Energy =                 212.1198199484550457
    Total Energy =                       -243.8796219161427814
  Basis Set: (AUG-CC-PVTZ AUX)
    Blend: AUG-CC-PVTZ-RI
    Molecular point group: c1

    Geometry (in Angstrom), charge = 0, multiplicity = 1:

       Center              X                  Y                   Z               Mass
    ------------   -----------------  -----------------  -----------------  -----------------
         O            0.784976369969    -1.025821125147     0.000022441451    15.994914619570
         O            0.471905369969     1.237907874853     0.000057441451    15.994914619570
         N           -1.300220630031    -0.228555125147    -0.000065558549    14.003074004430
         C            0.015030369969     0.105408874853    -0.000041558549    12.000000000000
         H           -1.594008630031    -1.192015125147     0.000008441451     1.007825032230
         H           -1.982688630031     0.511817874853     0.000047441451     1.007825032230
         H            1.515828769969    -0.765233825147     0.000082041451     1.007825032230

  Basis Set: AUG-CC-PVTZ
    Blend: AUG-CC-PVTZ
  Basis Set: (AUG-CC-PVTZ AUX)
    Blend: AUG-CC-PVTZ-JKFIT
	 Reference Energy          =    -243.8796219161427814 [Eh]
	 Singles Energy            =      -0.0000000000000000 [Eh]
	 Same-Spin Energy          =      -0.2294132141383872 [Eh]
	 Opposite-Spin Energy      =      -0.6825861267346889 [Eh]
	 Correlation Energy        =      -0.9119993408730761 [Eh]
	 Total Energy              =    -244.7916212570158621 [Eh]

	 ================> DF-SCS-MP2 Energies <==================
	-----------------------------------------------------------
	 SCS Same-Spin Scale       =       0.3333333333333333 [-]
	 SCS Opposite-Spin Scale   =       1.2000000000000000 [-]
	 SCS Same-Spin Energy      =      -0.0764710713794624 [Eh]
	 SCS Opposite-Spin Energy  =      -0.8191033520816267 [Eh]
	 SCS Correlation Energy    =      -0.8955744234610891 [Eh]
	 SCS Total Energy          =    -244.7751963396038661 [Eh]
	-----------------------------------------------------------

  Dipole Moment: [D]
     X:    -1.8491      Y:    -1.9204      Z:     0.0002     Total:     2.6659

*** Psi4 exiting successfully. Buy a developer a beer!
