                               Psi4 1.3.2 release

  ==> Input File <==

--------------------------------------------------------------------------
#psi4
#
memory 32 gb

molecule  {
0 1
  O        0.8108760    -1.0055400     0.0000200
  O        0.5756912     1.2235603     0.0000516
  N       -1.2743210    -0.2082740    -0.0000680
  C        0.0409300     0.1256900    -0.0000440
  H       -1.5681090    -1.1717340     0.0000060
  H       -1.9567890     0.5320990     0.0000450
  H        1.7301120    -0.6777840     0.0000950
units angstrom
no_reorient  #important for SAPT in psi4, default
symmetry c1  #important for SAPT in psi4, default
}

set PROPERTIES_ORIGIN ["COM"]
properties('MP2/aug-cc-pvtz', properties = ['dipole'])
--------------------------------------------------------------------------

    Molecular point group: c1
  Charge       = 0
  Multiplicity = 1
  Basis Set: AUG-CC-PVTZ
    Blend: AUG-CC-PVTZ
  Basis Set: (AUG-CC-PVTZ AUX)
    Blend: AUG-CC-PVTZ-JKFIT

    Orbital Energies [Eh]
    ---------------------

    Doubly Occupied:

       1A    -20.609260     2A    -20.534906     3A    -15.604188
       4A    -11.416715     5A     -1.464019     6A     -1.347811
       7A     -1.231550     8A     -0.861430     9A     -0.761616
      10A     -0.706772    11A     -0.665953    12A     -0.645075
      13A     -0.606481    14A     -0.500811    15A     -0.461596
      16A     -0.439225

  @DF-RHF Final Energy:  -243.92461938813321

   => Energetics <=

    Nuclear Repulsion Energy =            123.0381027232956654
    One-Electron Energy =                -578.2106254021464338
    Two-Electron Energy =                 211.2479032907175736
    Total Energy =                       -243.9246193881332090
  Basis Set: (AUG-CC-PVTZ AUX)
    Blend: AUG-CC-PVTZ-RI
    Molecular point group: c1

    Geometry (in Angstrom), charge = 0, multiplicity = 1:

       Center              X                  Y                   Z               Mass
    ------------   -----------------  -----------------  -----------------  -----------------
         O            0.761447591864    -1.017852956340     0.000023078365    15.994914619570
         O            0.526262791864     1.211247343660     0.000054678365    15.994914619570
         N           -1.323749408136    -0.220586956340    -0.000064921635    14.003074004430
         C           -0.008498408136     0.113377043660    -0.000040921635    12.000000000000
         H           -1.617537408136    -1.184046956340     0.000009078365     1.007825032230
         H           -2.006217408136     0.519786043660     0.000048078365     1.007825032230
         H            1.680683591864    -0.690096956340     0.000098078365     1.007825032230

  Basis Set: AUG-CC-PVTZ
    Blend: AUG-CC-PVTZ
  Basis Set: (AUG-CC-PVTZ AUX)
    Blend: AUG-CC-PVTZ-JKFIT
	 Reference Energy          =    -243.9246193881332090 [Eh]
	 Singles Energy            =      -0.0000000000000000 [Eh]
	 Same-Spin Energy          =      -0.2315740249109451 [Eh]
	 Opposite-Spin Energy      =      -0.6873481695907016 [Eh]
	 Correlation Energy        =      -0.9189221945016466 [Eh]
	 Total Energy              =    -244.8435415826348560 [Eh]

	 ================> DF-SCS-MP2 Energies <==================
	-----------------------------------------------------------
	 SCS Same-Spin Scale       =       0.3333333333333333 [-]
	 SCS Opposite-Spin Scale   =       1.2000000000000000 [-]
	 SCS Same-Spin Energy      =      -0.0771913416369817 [Eh]
	 SCS Opposite-Spin Energy  =      -0.8248178035088418 [Eh]
	 SCS Correlation Energy    =      -0.9020091451458235 [Eh]
	 SCS Total Energy          =    -244.8266285332790346 [Eh]
	-----------------------------------------------------------

  Dipole Moment: [D]
     X:    -1.8175      Y:    -1.8246      Z:     0.0002     Total:     2.5754

*** Psi4 exiting successfully. Buy a developer a beer!
