                               Psi4 1.3.2 release

  ==> Input File <==

--------------------------------------------------------------------------
#psi4
#
memory 32 gb

molecule  {
0 1
  O        0.8108760    -1.0055400     0.0000200
  O        0.4978050     1.2581890     0.0000550
  N       -1.2743210    -0.2082740    -0.0000680
  C        0.0284736     0.1713882    -0.0000486
  H       -1.5681090    -1.1717340     0.0000060
  H       -1.9567890     0.5320990     0.0000450
  H        1.7301120    -0.6777840     0.0000950
units angstrom
no_reorient  #important for SAPT in psi4, default
symmetry c1  #important for SAPT in psi4, default
}

set PROPERTIES_ORIGIN ["COM"]
properties('MP2/aug-cc-pvtz', properties = ['dipole'])
--------------------------------------------------------------------------

    Molecular point group: c1
  Charge       = 0
  Multiplicity = 1
  Basis Set: AUG-CC-PVTZ
    Blend: AUG-CC-PVTZ
  Basis Set: (AUG-CC-PVTZ AUX)
    Blend: AUG-CC-PVTZ-JKFIT

    Orbital Energies [Eh]
    ---------------------

    Doubly Occupied:

       1A    -20.603397     2A    -20.544791     3A    -15.598790
       4A    -11.414681     5A     -1.461264     6A     -1.362348
       7A     -1.227387     8A     -0.851056     9A     -0.761008
      10A     -0.703242    11A     -0.657831    12A     -0.643211
      13A     -0.616273    14A     -0.505341    15A     -0.469669
      16A     -0.441764

  @DF-RHF Final Energy:  -243.92341992401688

   => Energetics <=

    Nuclear Repulsion Energy =            122.9985653403752366
    One-Electron Energy =                -578.1198665148838245
    Two-Electron Energy =                 211.1978812504916903
    Total Energy =                       -243.9234199240168834
  Basis Set: (AUG-CC-PVTZ AUX)
    Blend: AUG-CC-PVTZ-RI
    Molecular point group: c1

    Geometry (in Angstrom), charge = 0, multiplicity = 1:

       Center              X                  Y                   Z               Mass
    ------------   -----------------  -----------------  -----------------  -----------------
         O            0.784314565568    -1.035917966585     0.000023091760    15.994914619570
         O            0.471243565568     1.227811033415     0.000058091760    15.994914619570
         N           -1.300882434432    -0.238651966585    -0.000064908240    14.003074004430
         C            0.001912165568     0.141010233415    -0.000045508240    12.000000000000
         H           -1.594670434432    -1.202111966585     0.000009091760     1.007825032230
         H           -1.983350434432     0.501721033415     0.000048091760     1.007825032230
         H            1.703550565568    -0.708161966585     0.000098091760     1.007825032230

  Basis Set: AUG-CC-PVTZ
    Blend: AUG-CC-PVTZ
  Basis Set: (AUG-CC-PVTZ AUX)
    Blend: AUG-CC-PVTZ-JKFIT
	 Reference Energy          =    -243.9234199240168834 [Eh]
	 Singles Energy            =      -0.0000000000000000 [Eh]
	 Same-Spin Energy          =      -0.2314052302968772 [Eh]
	 Opposite-Spin Energy      =      -0.6874279523728346 [Eh]
	 Correlation Energy        =      -0.9188331826697118 [Eh]
	 Total Energy              =    -244.8422531066865986 [Eh]

	 ================> DF-SCS-MP2 Energies <==================
	-----------------------------------------------------------
	 SCS Same-Spin Scale       =       0.3333333333333333 [-]
	 SCS Opposite-Spin Scale   =       1.2000000000000000 [-]
	 SCS Same-Spin Energy      =      -0.0771350767656257 [Eh]
	 SCS Opposite-Spin Energy  =      -0.8249135428474015 [Eh]
	 SCS Correlation Energy    =      -0.9020486196130272 [Eh]
	 SCS Total Energy          =    -244.8254685436299098 [Eh]
	-----------------------------------------------------------

  Dipole Moment: [D]
     X:    -1.6666      Y:    -1.5002      Z:     0.0002     Total:     2.2424

*** Psi4 exiting successfully. Buy a developer a beer!
