                               Psi4 1.3.2 release

  ==> Input File <==

--------------------------------------------------------------------------
#psi4
#
memory 32 gb

molecule  {
0 1
  O        0.8108760    -1.0055400     0.0000200
  O        0.4978050     1.2581890     0.0000550
  N       -1.2743210    -0.2082740    -0.0000680
  C        0.0019197     0.0981302    -0.0000472
  H       -1.5681090    -1.1717340     0.0000060
  H       -1.9567890     0.5320990     0.0000450
  H        1.7301120    -0.6777840     0.0000950
units angstrom
no_reorient  #important for SAPT in psi4, default
symmetry c1  #important for SAPT in psi4, default
}

set PROPERTIES_ORIGIN ["COM"]
properties('MP2/aug-cc-pvtz', properties = ['dipole'])
--------------------------------------------------------------------------

    Molecular point group: c1
  Charge       = 0
  Multiplicity = 1
  Basis Set: AUG-CC-PVTZ
    Blend: AUG-CC-PVTZ
  Basis Set: (AUG-CC-PVTZ AUX)
    Blend: AUG-CC-PVTZ-JKFIT

    Orbital Energies [Eh]
    ---------------------

    Doubly Occupied:

       1A    -20.615044     2A    -20.523787     3A    -15.609381
       4A    -11.416200     5A     -1.458077     6A     -1.329970
       7A     -1.245682     8A     -0.871101     9A     -0.772647
      10A     -0.707323    11A     -0.671066    12A     -0.644948
      13A     -0.590152    14A     -0.504507    15A     -0.450695
      16A     -0.431598

  @DF-RHF Final Energy:  -243.92008189074750

   => Energetics <=

    Nuclear Repulsion Energy =            122.8861033465969825
    One-Electron Energy =                -577.9280143604377145
    Two-Electron Energy =                 211.1218291230932209
    Total Energy =                       -243.9200818907474968
  Basis Set: (AUG-CC-PVTZ AUX)
    Blend: AUG-CC-PVTZ-RI
    Molecular point group: c1

    Geometry (in Angstrom), charge = 0, multiplicity = 1:

       Center              X                  Y                   Z               Mass
    ------------   -----------------  -----------------  -----------------  -----------------
         O            0.789536881423    -1.021510425137     0.000022816424    15.994914619570
         O            0.476465881423     1.242218574863     0.000057816424    15.994914619570
         N           -1.295660118577    -0.224244425137    -0.000065183576    14.003074004430
         C           -0.019419418577     0.082159774863    -0.000044383576    12.000000000000
         H           -1.589448118577    -1.187704425137     0.000008816424     1.007825032230
         H           -1.978128118577     0.516128574863     0.000047816424     1.007825032230
         H            1.708772881423    -0.693754425137     0.000097816424     1.007825032230

  Basis Set: AUG-CC-PVTZ
    Blend: AUG-CC-PVTZ
  Basis Set: (AUG-CC-PVTZ AUX)
    Blend: AUG-CC-PVTZ-JKFIT
	 Reference Energy          =    -243.9200818907474968 [Eh]
	 Singles Energy            =      -0.0000000000000000 [Eh]
	 Same-Spin Energy          =      -0.2320775098074601 [Eh]
	 Opposite-Spin Energy      =      -0.6881129825417305 [Eh]
	 Correlation Energy        =      -0.9201904923491906 [Eh]
	 Total Energy              =    -244.8402723830966750 [Eh]

	 ================> DF-SCS-MP2 Energies <==================
	-----------------------------------------------------------
	 SCS Same-Spin Scale       =       0.3333333333333333 [-]
	 SCS Opposite-Spin Scale   =       1.2000000000000000 [-]
	 SCS Same-Spin Energy      =      -0.0773591699358200 [Eh]
	 SCS Opposite-Spin Energy  =      -0.8257355790500766 [Eh]
	 SCS Correlation Energy    =      -0.9030947489858966 [Eh]
	 SCS Total Energy          =    -244.8231766397333899 [Eh]
	-----------------------------------------------------------

  Dipole Moment: [D]
     X:    -1.9704      Y:    -2.2053      Z:     0.0002     Total:     2.9573

*** Psi4 exiting successfully. Buy a developer a beer!
