                               Psi4 1.4a3.dev225

  ==> Input File <==

--------------------------------------------------------------------------
#psi4
#
memory 32 gb

molecule  {
0 1
  O        0.8159840    -1.0007070     0.0023930
  O        0.4905240     1.2598000     0.0069300
  N       -1.2790880    -0.2165130    -0.0579370
  C        0.0224713     0.0788115    -0.0015008
  H       -1.5432550    -1.1606730     0.1825210
  H       -1.9348860     0.5218130     0.1496860
  H        1.7343390    -0.6700500     0.0057850
units angstrom
no_reorient  #important for SAPT in psi4, default
symmetry c1  #important for SAPT in psi4, default
}

set PROPERTIES_ORIGIN ["COM"]
properties('MP2/aug-cc-pvtz', properties = ['dipole'])
--------------------------------------------------------------------------

    Molecular point group: c1
  Charge       = 0
  Multiplicity = 1
  Basis Set: AUG-CC-PVTZ
    Blend: AUG-CC-PVTZ
  Basis Set: (AUG-CC-PVTZ AUX)
    Blend: AUG-CC-PVTZ-JKFIT

    Orbital Energies [Eh]
    ---------------------

    Doubly Occupied:

       1A    -20.625048     2A    -20.525120     3A    -15.606077
       4A    -11.418693     5A     -1.472369     6A     -1.330305
       7A     -1.237429     8A     -0.872990     9A     -0.763569
      10A     -0.712335    11A     -0.675217    12A     -0.650762
      13A     -0.588593    14A     -0.505818    15A     -0.452167
      16A     -0.431953

  @DF-RHF Final Energy:  -243.91958835540385

   => Energetics <=

    Nuclear Repulsion Energy =            122.8497455025782870
    One-Electron Energy =                -577.8017789233531403
    Two-Electron Energy =                 211.0324450653710073
    Total Energy =                       -243.9195883554038460
  Basis Set: (AUG-CC-PVTZ AUX)
    Blend: AUG-CC-PVTZ-RI
    Molecular point group: c1

    Geometry (in Angstrom), charge = 0, multiplicity = 1:

       Center              X                  Y                   Z               Mass
    ------------   -----------------  -----------------  -----------------  -----------------
         O            0.791424556757    -1.012817004048     0.007957871606    15.994914619570
         O            0.465964556757     1.247689995952     0.012494871606    15.994914619570
         N           -1.303647443243    -0.228623004048    -0.052372128394    14.003074004430
         C           -0.002088143243     0.066701495952     0.004064071606    12.000000000000
         H           -1.567814443243    -1.172783004048     0.188085871606     1.007825032230
         H           -1.959445443243     0.509702995952     0.155250871606     1.007825032230
         H            1.709779556757    -0.682160004048     0.011349871606     1.007825032230

  Basis Set: AUG-CC-PVTZ
    Blend: AUG-CC-PVTZ
  Basis Set: (AUG-CC-PVTZ AUX)
    Blend: AUG-CC-PVTZ-JKFIT
	 Reference Energy          =    -243.9195883554038460 [Eh]
	 Singles Energy            =      -0.0000000000000000 [Eh]
	 Same-Spin Energy          =      -0.2320892577107563 [Eh]
	 Opposite-Spin Energy      =      -0.6883321832499005 [Eh]
	 Correlation Energy        =      -0.9204214409606568 [Eh]
	 Total Energy              =    -244.8400097963645123 [Eh]

	 ================> DF-SCS-MP2 Energies <==================
	-----------------------------------------------------------
	 SCS Same-Spin Scale       =       0.3333333333333333 [-]
	 SCS Opposite-Spin Scale   =       1.2000000000000000 [-]
	 SCS Same-Spin Energy      =      -0.0773630859035854 [Eh]
	 SCS Opposite-Spin Energy  =      -0.8259986198998807 [Eh]
	 SCS Correlation Energy    =      -0.9033617058034661 [Eh]
	 SCS Total Energy          =    -244.8229500612073082 [Eh]
	-----------------------------------------------------------

  Dipole Moment: [D]
     X:    -1.5638      Y:    -2.2980      Z:     0.6400     Total:     2.8524

*** Psi4 exiting successfully. Buy a developer a beer!
