                               Psi4 1.3.2 release

  ==> Input File <==

--------------------------------------------------------------------------
#psi4
#
memory 32 gb

molecule  {
0 1
  O        0.8108760    -1.0055400     0.0000200
  O        0.4978050     1.2581890     0.0000550
  N       -1.2743210    -0.2082740    -0.0000680
  C        0.0686337    -0.0136207    -0.0000304
  H       -1.5681090    -1.1717340     0.0000060
  H       -1.9567890     0.5320990     0.0000450
  H        1.7301120    -0.6777840     0.0000950
units angstrom
no_reorient  #important for SAPT in psi4, default
symmetry c1  #important for SAPT in psi4, default
}

set PROPERTIES_ORIGIN ["COM"]
properties('MP2/aug-cc-pvtz', properties = ['dipole'])
--------------------------------------------------------------------------

    Molecular point group: c1
  Charge       = 0
  Multiplicity = 1
  Basis Set: AUG-CC-PVTZ
    Blend: AUG-CC-PVTZ
  Basis Set: (AUG-CC-PVTZ AUX)
    Blend: AUG-CC-PVTZ-JKFIT

    Orbital Energies [Eh]
    ---------------------

    Doubly Occupied:

       1A    -20.651936     2A    -20.505278     3A    -15.602433
       4A    -11.420757     5A     -1.530175     6A     -1.295413
       7A     -1.215117     8A     -0.904841     9A     -0.759186
      10A     -0.740609    11A     -0.695988    12A     -0.680623
      13A     -0.554433    14A     -0.495446    15A     -0.430833
      16A     -0.409534

  @DF-RHF Final Energy:  -243.89362678600060

   => Energetics <=

    Nuclear Repulsion Energy =            123.1021287032039027
    One-Electron Energy =                -578.2063070771547473
    Two-Electron Energy =                 211.2105515879502491
    Total Energy =                       -243.8936267860005955
  Basis Set: (AUG-CC-PVTZ AUX)
    Blend: AUG-CC-PVTZ-RI
    Molecular point group: c1

    Geometry (in Angstrom), charge = 0, multiplicity = 1:

       Center              X                  Y                   Z               Mass
    ------------   -----------------  -----------------  -----------------  -----------------
         O            0.776416338680    -0.999532542534     0.000019512393    15.994914619570
         O            0.463345338680     1.264196457466     0.000054512393    15.994914619570
         N           -1.308780661320    -0.202266542534    -0.000068487607    14.003074004430
         C            0.034174038680    -0.007613242534    -0.000030887607    12.000000000000
         H           -1.602568661320    -1.165726542534     0.000005512393     1.007825032230
         H           -1.991248661320     0.538106457466     0.000044512393     1.007825032230
         H            1.695652338680    -0.671776542534     0.000094512393     1.007825032230

  Basis Set: AUG-CC-PVTZ
    Blend: AUG-CC-PVTZ
  Basis Set: (AUG-CC-PVTZ AUX)
    Blend: AUG-CC-PVTZ-JKFIT
	 Reference Energy          =    -243.8936267860005955 [Eh]
	 Singles Energy            =      -0.0000000000000000 [Eh]
	 Same-Spin Energy          =      -0.2325668233984571 [Eh]
	 Opposite-Spin Energy      =      -0.6884784601002952 [Eh]
	 Correlation Energy        =      -0.9210452834987524 [Eh]
	 Total Energy              =    -244.8146720694993519 [Eh]

	 ================> DF-SCS-MP2 Energies <==================
	-----------------------------------------------------------
	 SCS Same-Spin Scale       =       0.3333333333333333 [-]
	 SCS Opposite-Spin Scale   =       1.2000000000000000 [-]
	 SCS Same-Spin Energy      =      -0.0775222744661524 [Eh]
	 SCS Opposite-Spin Energy  =      -0.8261741521203543 [Eh]
	 SCS Correlation Energy    =      -0.9036964265865066 [Eh]
	 SCS Total Energy          =    -244.7973232125871164 [Eh]
	-----------------------------------------------------------

  Dipole Moment: [D]
     X:    -1.3489      Y:    -3.1605      Z:     0.0002     Total:     3.4363

*** Psi4 exiting successfully. Buy a developer a beer!
