                               Psi4 1.4a3.dev225

  ==> Input File <==

--------------------------------------------------------------------------
#psi4
#
memory 32 gb

molecule  {
0 1
  O        0.8159840    -1.0007070     0.0023930
  O        0.4905240     1.2598000     0.0069300
  N       -1.2790880    -0.2165130    -0.0579370
  C       -0.0074686     0.1127699    -0.0032489
  H       -1.5432550    -1.1606730     0.1825210
  H       -1.9348860     0.5218130     0.1496860
  H        1.7343390    -0.6700500     0.0057850
units angstrom
no_reorient  #important for SAPT in psi4, default
symmetry c1  #important for SAPT in psi4, default
}

set PROPERTIES_ORIGIN ["COM"]
properties('MP2/aug-cc-pvtz', properties = ['dipole'])
--------------------------------------------------------------------------

    Molecular point group: c1
  Charge       = 0
  Multiplicity = 1
  Basis Set: AUG-CC-PVTZ
    Blend: AUG-CC-PVTZ
  Basis Set: (AUG-CC-PVTZ AUX)
    Blend: AUG-CC-PVTZ-JKFIT

    Orbital Energies [Eh]
    ---------------------

    Doubly Occupied:

       1A    -20.611876     2A    -20.529945     3A    -15.609989
       4A    -11.417256     5A     -1.454063     6A     -1.335550
       7A     -1.249758     8A     -0.865575     9A     -0.770409
      10A     -0.703263    11A     -0.666666    12A     -0.643056
      13A     -0.595200    14A     -0.506467    15A     -0.455397
      16A     -0.438625

  @DF-RHF Final Energy:  -243.91978509816576

   => Energetics <=

    Nuclear Repulsion Energy =            122.8112317754778218
    One-Electron Energy =                -577.7558430953602056
    Two-Electron Energy =                 211.0248262217166086
    Total Energy =                       -243.9197850981657609
  Basis Set: (AUG-CC-PVTZ AUX)
    Blend: AUG-CC-PVTZ-RI
    Molecular point group: c1

    Geometry (in Angstrom), charge = 0, multiplicity = 1:

       Center              X                  Y                   Z               Mass
    ------------   -----------------  -----------------  -----------------  -----------------
         O            0.797312792174    -1.019495551859     0.008301667822    15.994914619570
         O            0.471852792174     1.241011448141     0.012838667822    15.994914619570
         N           -1.297759207826    -0.235301551859    -0.052028332178    14.003074004430
         C           -0.026139807826     0.093981348141     0.002659767822    12.000000000000
         H           -1.561926207826    -1.179461551859     0.188429667822     1.007825032230
         H           -1.953557207826     0.503024448141     0.155594667822     1.007825032230
         H            1.715667792174    -0.688838551859     0.011693667822     1.007825032230

  Basis Set: AUG-CC-PVTZ
    Blend: AUG-CC-PVTZ
  Basis Set: (AUG-CC-PVTZ AUX)
    Blend: AUG-CC-PVTZ-JKFIT
	 Reference Energy          =    -243.9197850981657609 [Eh]
	 Singles Energy            =      -0.0000000000000000 [Eh]
	 Same-Spin Energy          =      -0.2321013680615696 [Eh]
	 Opposite-Spin Energy      =      -0.6885517362817246 [Eh]
	 Correlation Energy        =      -0.9206531043432942 [Eh]
	 Total Energy              =    -244.8404382025090626 [Eh]

	 ================> DF-SCS-MP2 Energies <==================
	-----------------------------------------------------------
	 SCS Same-Spin Scale       =       0.3333333333333333 [-]
	 SCS Opposite-Spin Scale   =       1.2000000000000000 [-]
	 SCS Same-Spin Energy      =      -0.0773671226871899 [Eh]
	 SCS Opposite-Spin Energy  =      -0.8262620835380695 [Eh]
	 SCS Correlation Energy    =      -0.9036292062252593 [Eh]
	 SCS Total Energy          =    -244.8234143043910080 [Eh]
	-----------------------------------------------------------

  Dipole Moment: [D]
     X:    -1.8460      Y:    -2.0125      Z:     0.6349     Total:     2.8038

*** Psi4 exiting successfully. Buy a developer a beer!
