                               Psi4 1.3.2 release

  ==> Input File <==

--------------------------------------------------------------------------
#psi4
#
memory 32 gb

molecule  {
0 1
  O        0.8108760    -1.0055400     0.0000200
  O        0.4978050     1.2581890     0.0000550
  N       -1.2743210    -0.2082740    -0.0000680
  C        0.0144300     0.2166238    -0.0000532
  H       -1.5681090    -1.1717340     0.0000060
  H       -1.9567890     0.5320990     0.0000450
  H        1.7301120    -0.6777840     0.0000950
units angstrom
no_reorient  #important for SAPT in psi4, default
symmetry c1  #important for SAPT in psi4, default
}

set PROPERTIES_ORIGIN ["COM"]
properties('MP2/aug-cc-pvtz', properties = ['dipole'])
--------------------------------------------------------------------------

    Molecular point group: c1
  Charge       = 0
  Multiplicity = 1
  Basis Set: AUG-CC-PVTZ
    Blend: AUG-CC-PVTZ
  Basis Set: (AUG-CC-PVTZ AUX)
    Blend: AUG-CC-PVTZ-JKFIT

    Orbital Energies [Eh]
    ---------------------

    Doubly Occupied:

       1A    -20.589465     2A    -20.554729     3A    -15.599073
       4A    -11.413085     5A     -1.473947     6A     -1.356989
       7A     -1.228399     8A     -0.842658     9A     -0.762148
      10A     -0.706258    11A     -0.650205    12A     -0.645712
      13A     -0.619497    14A     -0.503110    15A     -0.472393
      16A     -0.446990

  @DF-RHF Final Energy:  -243.91463559387290

   => Energetics <=

    Nuclear Repulsion Energy =            123.0769043322900274
    One-Electron Energy =                -578.2537633259113363
    Two-Electron Energy =                 211.2622233997483931
    Total Energy =                       -243.9146355938729016
  Basis Set: (AUG-CC-PVTZ AUX)
    Blend: AUG-CC-PVTZ-RI
    Molecular point group: c1

    Geometry (in Angstrom), charge = 0, multiplicity = 1:

       Center              X                  Y                   Z               Mass
    ------------   -----------------  -----------------  -----------------  -----------------
         O            0.787076499406    -1.044814384478     0.000023996435    15.994914619570
         O            0.474005499406     1.218914615522     0.000058996435    15.994914619570
         N           -1.298120500594    -0.247548384478    -0.000064003565    14.003074004430
         C           -0.009369500594     0.177349415522    -0.000049203565    12.000000000000
         H           -1.591908500594    -1.211008384478     0.000009996435     1.007825032230
         H           -1.980588500594     0.492824615522     0.000048996435     1.007825032230
         H            1.706312499406    -0.717058384478     0.000098996435     1.007825032230

  Basis Set: AUG-CC-PVTZ
    Blend: AUG-CC-PVTZ
  Basis Set: (AUG-CC-PVTZ AUX)
    Blend: AUG-CC-PVTZ-JKFIT
	 Reference Energy          =    -243.9146355938729016 [Eh]
	 Singles Energy            =      -0.0000000000000000 [Eh]
	 Same-Spin Energy          =      -0.2312764108872054 [Eh]
	 Opposite-Spin Energy      =      -0.6875252152728119 [Eh]
	 Correlation Energy        =      -0.9188016261600173 [Eh]
	 Total Energy              =    -244.8334372200329199 [Eh]

	 ================> DF-SCS-MP2 Energies <==================
	-----------------------------------------------------------
	 SCS Same-Spin Scale       =       0.3333333333333333 [-]
	 SCS Opposite-Spin Scale   =       1.2000000000000000 [-]
	 SCS Same-Spin Energy      =      -0.0770921369624018 [Eh]
	 SCS Opposite-Spin Energy  =      -0.8250302583273742 [Eh]
	 SCS Correlation Energy    =      -0.9021223952897760 [Eh]
	 SCS Total Energy          =    -244.8167579891626815 [Eh]
	-----------------------------------------------------------

  Dipole Moment: [D]
     X:    -1.7848      Y:    -1.0691      Z:     0.0002     Total:     2.0805

*** Psi4 exiting successfully. Buy a developer a beer!
