                               Psi4 1.4a3.dev225

  ==> Input File <==

--------------------------------------------------------------------------
#psi4
#
memory 32 gb

molecule  {
0 1
  O        0.8159840    -1.0007070     0.0023930
  O        0.4905240     1.2598000     0.0069300
  N       -1.2790880    -0.2165130    -0.0579370
  C        0.0215484     0.1202837    -0.0020009
  H       -1.5432550    -1.1606730     0.1825210
  H       -1.9348860     0.5218130     0.1496860
  H        1.7343390    -0.6700500     0.0057850
units angstrom
no_reorient  #important for SAPT in psi4, default
symmetry c1  #important for SAPT in psi4, default
}

set PROPERTIES_ORIGIN ["COM"]
properties('MP2/aug-cc-pvtz', properties = ['dipole'])
--------------------------------------------------------------------------

    Molecular point group: c1
  Charge       = 0
  Multiplicity = 1
  Basis Set: AUG-CC-PVTZ
    Blend: AUG-CC-PVTZ
  Basis Set: (AUG-CC-PVTZ AUX)
    Blend: AUG-CC-PVTZ-JKFIT

    Orbital Energies [Eh]
    ---------------------

    Doubly Occupied:

       1A    -20.615715     2A    -20.534951     3A    -15.603572
       4A    -11.417486     5A     -1.461453     6A     -1.348007
       7A     -1.235864     8A     -0.861902     9A     -0.761668
      10A     -0.705222    11A     -0.666581    12A     -0.645220
      13A     -0.602994    14A     -0.506044    15A     -0.461803
      16A     -0.439849

  @DF-RHF Final Energy:  -243.92419797184365

   => Energetics <=

    Nuclear Repulsion Energy =            122.8586552011065436
    One-Electron Energy =                -577.8290430638933231
    Two-Electron Energy =                 211.0461898909431113
    Total Energy =                       -243.9241979718436539
  Basis Set: (AUG-CC-PVTZ AUX)
    Blend: AUG-CC-PVTZ-RI
    Molecular point group: c1

    Geometry (in Angstrom), charge = 0, multiplicity = 1:

       Center              X                  Y                   Z               Mass
    ------------   -----------------  -----------------  -----------------  -----------------
         O            0.791606062121    -1.020973279683     0.008056225526    15.994914619570
         O            0.466146062121     1.239533720317     0.012593225526    15.994914619570
         N           -1.303465937879    -0.236779279683    -0.052273774474    14.003074004430
         C           -0.002829537879     0.100017420317     0.003662325526    12.000000000000
         H           -1.567632937879    -1.180939279683     0.188184225526     1.007825032230
         H           -1.959263937879     0.501546720317     0.155349225526     1.007825032230
         H            1.709961062121    -0.690316279683     0.011448225526     1.007825032230

  Basis Set: AUG-CC-PVTZ
    Blend: AUG-CC-PVTZ
  Basis Set: (AUG-CC-PVTZ AUX)
    Blend: AUG-CC-PVTZ-JKFIT
	 Reference Energy          =    -243.9241979718436539 [Eh]
	 Singles Energy            =      -0.0000000000000000 [Eh]
	 Same-Spin Energy          =      -0.2317802049908268 [Eh]
	 Opposite-Spin Energy      =      -0.6880455856996452 [Eh]
	 Correlation Energy        =      -0.9198257906904721 [Eh]
	 Total Energy              =    -244.8440237625341354 [Eh]

	 ================> DF-SCS-MP2 Energies <==================
	-----------------------------------------------------------
	 SCS Same-Spin Scale       =       0.3333333333333333 [-]
	 SCS Opposite-Spin Scale   =       1.2000000000000000 [-]
	 SCS Same-Spin Energy      =      -0.0772600683302756 [Eh]
	 SCS Opposite-Spin Energy  =      -0.8256547028395743 [Eh]
	 SCS Correlation Energy    =      -0.9029147711698499 [Eh]
	 SCS Total Energy          =    -244.8271127430135152 [Eh]
	-----------------------------------------------------------

  Dipole Moment: [D]
     X:    -1.5573      Y:    -1.9228      Z:     0.6435     Total:     2.5566

*** Psi4 exiting successfully. Buy a developer a beer!
