                               Psi4 1.3.2 release

  ==> Input File <==

--------------------------------------------------------------------------
#psi4
#
memory 32 gb

molecule  {
0 1
  O        0.8108760    -1.0055400     0.0000200
  O        0.4978050     1.2581890     0.0000550
  N       -1.2743210    -0.2082740    -0.0000680
  C        0.0409300     0.1256900    -0.0000440
  H       -1.6346009    -1.1488934     0.0000180
  H       -1.9567890     0.5320990     0.0000450
  H        1.7301120    -0.6777840     0.0000950
units angstrom
no_reorient  #important for SAPT in psi4, default
symmetry c1  #important for SAPT in psi4, default
}

set PROPERTIES_ORIGIN ["COM"]
properties('MP2/aug-cc-pvtz', properties = ['dipole'])
--------------------------------------------------------------------------

    Molecular point group: c1
  Charge       = 0
  Multiplicity = 1
  Basis Set: AUG-CC-PVTZ
    Blend: AUG-CC-PVTZ
  Basis Set: (AUG-CC-PVTZ AUX)
    Blend: AUG-CC-PVTZ-JKFIT

    Orbital Energies [Eh]
    ---------------------

    Doubly Occupied:

       1A    -20.615946     2A    -20.535701     3A    -15.599087
       4A    -11.418098     5A     -1.464182     6A     -1.354311
       7A     -1.225529     8A     -0.864806     9A     -0.759305
      10A     -0.706447    11A     -0.663620    12A     -0.646185
      13A     -0.607046    14A     -0.504396    15A     -0.464006
      16A     -0.435558

  @DF-RHF Final Energy:  -243.92492590708139

   => Energetics <=

    Nuclear Repulsion Energy =            122.8749677422244559
    One-Electron Energy =                -577.8713382289395213
    Two-Electron Energy =                 211.0714445796336918
    Total Energy =                       -243.9249259070813878
  Basis Set: (AUG-CC-PVTZ AUX)
    Blend: AUG-CC-PVTZ-RI
    Molecular point group: c1

    Geometry (in Angstrom), charge = 0, multiplicity = 1:

       Center              X                  Y                   Z               Mass
    ------------   -----------------  -----------------  -----------------  -----------------
         O            0.782963049779    -1.027307834587     0.000021988877    15.994914619570
         O            0.469892049779     1.236421165413     0.000056988877    15.994914619570
         N           -1.302233950221    -0.230041834587    -0.000066011123    14.003074004430
         C            0.013017049779     0.103922165413    -0.000042011123    12.000000000000
         H           -1.662513850221    -1.170661234587     0.000019988877     1.007825032230
         H           -1.984701950221     0.510331165413     0.000046988877     1.007825032230
         H            1.702199049779    -0.699551834587     0.000096988877     1.007825032230

  Basis Set: AUG-CC-PVTZ
    Blend: AUG-CC-PVTZ
  Basis Set: (AUG-CC-PVTZ AUX)
    Blend: AUG-CC-PVTZ-JKFIT
	 Reference Energy          =    -243.9249259070813878 [Eh]
	 Singles Energy            =      -0.0000000000000000 [Eh]
	 Same-Spin Energy          =      -0.2316491509728640 [Eh]
	 Opposite-Spin Energy      =      -0.6876288660428291 [Eh]
	 Correlation Energy        =      -0.9192780170156931 [Eh]
	 Total Energy              =    -244.8442039240970871 [Eh]

	 ================> DF-SCS-MP2 Energies <==================
	-----------------------------------------------------------
	 SCS Same-Spin Scale       =       0.3333333333333333 [-]
	 SCS Opposite-Spin Scale   =       1.2000000000000000 [-]
	 SCS Same-Spin Energy      =      -0.0772163836576213 [Eh]
	 SCS Opposite-Spin Energy  =      -0.8251546392513950 [Eh]
	 SCS Correlation Energy    =      -0.9023710229090163 [Eh]
	 SCS Total Energy          =    -244.8272969299904105 [Eh]
	-----------------------------------------------------------

  Dipole Moment: [D]
     X:    -1.6135      Y:    -1.9045      Z:     0.0002     Total:     2.4961

*** Psi4 exiting successfully. Buy a developer a beer!
