                               Psi4 1.3.2 release

  ==> Input File <==

--------------------------------------------------------------------------
#psi4
#
memory 32 gb

molecule  {
0 1
  O        0.8108760    -1.0055400     0.0000200
  O        0.4978050     1.2581890     0.0000550
  N       -1.2743210    -0.2082740    -0.0000680
  C        0.0409300     0.1256900    -0.0000440
  H       -1.5681090    -1.1717340     0.0000060
  H       -1.9567890     0.5320990     0.0000450
  H        1.9184956    -0.6106153     0.0001104
units angstrom
no_reorient  #important for SAPT in psi4, default
symmetry c1  #important for SAPT in psi4, default
}

set PROPERTIES_ORIGIN ["COM"]
properties('MP2/aug-cc-pvtz', properties = ['dipole'])
--------------------------------------------------------------------------

    Molecular point group: c1
  Charge       = 0
  Multiplicity = 1
  Basis Set: AUG-CC-PVTZ
    Blend: AUG-CC-PVTZ
  Basis Set: (AUG-CC-PVTZ AUX)
    Blend: AUG-CC-PVTZ-JKFIT

    Orbital Energies [Eh]
    ---------------------

    Doubly Occupied:

       1A    -20.624304     2A    -20.531322     3A    -15.597216
       4A    -11.412463     5A     -1.444257     6A     -1.337157
       7A     -1.220412     8A     -0.838183     9A     -0.748823
      10A     -0.700627    11A     -0.642441    12A     -0.640177
      13A     -0.588929    14A     -0.497379    15A     -0.458606
      16A     -0.433276

  @DF-RHF Final Energy:  -243.89070935900335

   => Energetics <=

    Nuclear Repulsion Energy =            121.9738347617666392
    One-Electron Energy =                -576.2979462279985228
    Two-Electron Energy =                 210.4334021072285452
    Total Energy =                       -243.8907093590033526
  Basis Set: (AUG-CC-PVTZ AUX)
    Blend: AUG-CC-PVTZ-RI
    Molecular point group: c1

    Geometry (in Angstrom), charge = 0, multiplicity = 1:

       Center              X                  Y                   Z               Mass
    ------------   -----------------  -----------------  -----------------  -----------------
         O            0.778753197998    -1.028040014537     0.000021932718    15.994914619570
         O            0.465682197998     1.235688985463     0.000056932718    15.994914619570
         N           -1.306443802002    -0.230774014537    -0.000066067282    14.003074004430
         C            0.008807197998     0.103189985463    -0.000042067282    12.000000000000
         H           -1.600231802002    -1.194234014537     0.000007932718     1.007825032230
         H           -1.988911802002     0.509598985463     0.000046932718     1.007825032230
         H            1.886372797998    -0.633115314537     0.000112332718     1.007825032230

  Basis Set: AUG-CC-PVTZ
    Blend: AUG-CC-PVTZ
  Basis Set: (AUG-CC-PVTZ AUX)
    Blend: AUG-CC-PVTZ-JKFIT
	 Reference Energy          =    -243.8907093590033526 [Eh]
	 Singles Energy            =      -0.0000000000000000 [Eh]
	 Same-Spin Energy          =      -0.2338892457136467 [Eh]
	 Opposite-Spin Energy      =      -0.6936141220223119 [Eh]
	 Correlation Energy        =      -0.9275033677359587 [Eh]
	 Total Energy              =    -244.8182127267393184 [Eh]

	 ================> DF-SCS-MP2 Energies <==================
	-----------------------------------------------------------
	 SCS Same-Spin Scale       =       0.3333333333333333 [-]
	 SCS Opposite-Spin Scale   =       1.2000000000000000 [-]
	 SCS Same-Spin Energy      =      -0.0779630819045489 [Eh]
	 SCS Opposite-Spin Energy  =      -0.8323369464267742 [Eh]
	 SCS Correlation Energy    =      -0.9103000283313232 [Eh]
	 SCS Total Energy          =    -244.8010093873346875 [Eh]
	-----------------------------------------------------------

  Dipole Moment: [D]
     X:    -1.2885      Y:    -1.8869      Z:     0.0002     Total:     2.2849

*** Psi4 exiting successfully. Buy a developer a beer!
