                               Psi4 1.3.2 release

  ==> Input File <==

--------------------------------------------------------------------------
#psi4
#
memory 32 gb

molecule  {
0 1
  O        0.8108760    -1.0055400     0.0000200
  O        0.4978050     1.2581890     0.0000550
  N       -1.2743210    -0.2082740    -0.0000680
  C       -0.1529185     0.0764686    -0.0000475
  H       -1.5681090    -1.1717340     0.0000060
  H       -1.9567890     0.5320990     0.0000450
  H        1.7301120    -0.6777840     0.0000950
units angstrom
no_reorient  #important for SAPT in psi4, default
symmetry c1  #important for SAPT in psi4, default
}

set PROPERTIES_ORIGIN ["COM"]
properties('MP2/aug-cc-pvtz', properties = ['dipole'])
--------------------------------------------------------------------------

    Molecular point group: c1
  Charge       = 0
  Multiplicity = 1
  Basis Set: AUG-CC-PVTZ
    Blend: AUG-CC-PVTZ
  Basis Set: (AUG-CC-PVTZ AUX)
    Blend: AUG-CC-PVTZ-JKFIT

    Orbital Energies [Eh]
    ---------------------

    Doubly Occupied:

       1A    -20.590283     2A    -20.500289     3A    -15.642579
       4A    -11.409213     5A     -1.437283     6A     -1.331207
       7A     -1.249571     8A     -0.903396     9A     -0.823516
      10A     -0.708089    11A     -0.656594    12A     -0.640933
      13A     -0.543517    14A     -0.511529    15A     -0.415911
      16A     -0.413345

  @DF-RHF Final Energy:  -243.84471033442978

   => Energetics <=

    Nuclear Repulsion Energy =            122.9478994510579071
    One-Electron Energy =                -578.0307087325497832
    Two-Electron Energy =                 211.2380989470621273
    Total Energy =                       -243.8447103344297773
  Basis Set: (AUG-CC-PVTZ AUX)
    Blend: AUG-CC-PVTZ-RI
    Molecular point group: c1

    Geometry (in Angstrom), charge = 0, multiplicity = 1:

       Center              X                  Y                   Z               Mass
    ------------   -----------------  -----------------  -----------------  -----------------
         O            0.819988678965    -1.017250270616     0.000022875424    15.994914619570
         O            0.506917678965     1.246478729384     0.000057875424    15.994914619570
         N           -1.265208321035    -0.219984270616    -0.000065124576    14.003074004430
         C           -0.143805821035     0.064758329384    -0.000044624576    12.000000000000
         H           -1.558996321035    -1.183444270616     0.000008875424     1.007825032230
         H           -1.947676321035     0.520388729384     0.000047875424     1.007825032230
         H            1.739224678965    -0.689494270616     0.000097875424     1.007825032230

  Basis Set: AUG-CC-PVTZ
    Blend: AUG-CC-PVTZ
  Basis Set: (AUG-CC-PVTZ AUX)
    Blend: AUG-CC-PVTZ-JKFIT
	 Reference Energy          =    -243.8447103344297773 [Eh]
	 Singles Energy            =      -0.0000000000000000 [Eh]
	 Same-Spin Energy          =      -0.2334538329924539 [Eh]
	 Opposite-Spin Energy      =      -0.6906306855881261 [Eh]
	 Correlation Energy        =      -0.9240845185805799 [Eh]
	 Total Energy              =    -244.7687948530103483 [Eh]

	 ================> DF-SCS-MP2 Energies <==================
	-----------------------------------------------------------
	 SCS Same-Spin Scale       =       0.3333333333333333 [-]
	 SCS Opposite-Spin Scale   =       1.2000000000000000 [-]
	 SCS Same-Spin Energy      =      -0.0778179443308180 [Eh]
	 SCS Opposite-Spin Energy  =      -0.8287568227057514 [Eh]
	 SCS Correlation Energy    =      -0.9065747670365694 [Eh]
	 SCS Total Energy          =    -244.7512851014663511 [Eh]
	-----------------------------------------------------------

  Dipole Moment: [D]
     X:    -3.5227      Y:    -2.5637      Z:     0.0001     Total:     4.3568

*** Psi4 exiting successfully. Buy a developer a beer!
