                               Psi4 1.3.2 release

  ==> Input File <==

--------------------------------------------------------------------------
#psi4
#
memory 32 gb

molecule  {
0 1
  O        0.8108760    -1.0055400     0.0000200
  O        0.4978050     1.2581890     0.0000550
  N       -1.2743210    -0.2082740    -0.0000680
  C        0.0409300     0.1256900    -0.0000440
  H       -1.5389419    -1.0760821    -0.0000013
  H       -1.9567890     0.5320990     0.0000450
  H        1.7301120    -0.6777840     0.0000950
units angstrom
no_reorient  #important for SAPT in psi4, default
symmetry c1  #important for SAPT in psi4, default
}

set PROPERTIES_ORIGIN ["COM"]
properties('MP2/aug-cc-pvtz', properties = ['dipole'])
--------------------------------------------------------------------------

    Molecular point group: c1
  Charge       = 0
  Multiplicity = 1
  Basis Set: AUG-CC-PVTZ
    Blend: AUG-CC-PVTZ
  Basis Set: (AUG-CC-PVTZ AUX)
    Blend: AUG-CC-PVTZ-JKFIT

    Orbital Energies [Eh]
    ---------------------

    Doubly Occupied:

       1A    -20.617426     2A    -20.535779     3A    -15.590265
       4A    -11.417436     5A     -1.465948     6A     -1.354952
       7A     -1.242493     8A     -0.869278     9A     -0.783977
      10A     -0.708009    11A     -0.674040    12A     -0.647533
      13A     -0.608244    14A     -0.505840    15A     -0.464641
      16A     -0.437921

  @DF-RHF Final Energy:  -243.91845324143333

   => Energetics <=

    Nuclear Repulsion Energy =            123.5086003405955211
    One-Electron Energy =                -579.0065452957711614
    Two-Electron Energy =                 211.5794917137422999
    Total Energy =                       -243.9184532414333262
  Basis Set: (AUG-CC-PVTZ AUX)
    Blend: AUG-CC-PVTZ-RI
    Molecular point group: c1

    Geometry (in Angstrom), charge = 0, multiplicity = 1:

       Center              X                  Y                   Z               Mass
    ------------   -----------------  -----------------  -----------------  -----------------
         O            0.781383022622    -1.028510479725     0.000022307661    15.994914619570
         O            0.468312022622     1.235218520275     0.000057307661    15.994914619570
         N           -1.303813977378    -0.231244479725    -0.000065692339    14.003074004430
         C            0.011437022622     0.102719520275    -0.000041692339    12.000000000000
         H           -1.568434877378    -1.099052579725     0.000001007661     1.007825032230
         H           -1.986281977378     0.509128520275     0.000047307661     1.007825032230
         H            1.700619022622    -0.700754479725     0.000097307661     1.007825032230

  Basis Set: AUG-CC-PVTZ
    Blend: AUG-CC-PVTZ
  Basis Set: (AUG-CC-PVTZ AUX)
    Blend: AUG-CC-PVTZ-JKFIT
	 Reference Energy          =    -243.9184532414333262 [Eh]
	 Singles Energy            =      -0.0000000000000000 [Eh]
	 Same-Spin Energy          =      -0.2310905739113362 [Eh]
	 Opposite-Spin Energy      =      -0.6861531913596906 [Eh]
	 Correlation Energy        =      -0.9172437652710267 [Eh]
	 Total Energy              =    -244.8356970067043505 [Eh]

	 ================> DF-SCS-MP2 Energies <==================
	-----------------------------------------------------------
	 SCS Same-Spin Scale       =       0.3333333333333333 [-]
	 SCS Opposite-Spin Scale   =       1.2000000000000000 [-]
	 SCS Same-Spin Energy      =      -0.0770301913037787 [Eh]
	 SCS Opposite-Spin Energy  =      -0.8233838296316286 [Eh]
	 SCS Correlation Energy    =      -0.9004140209354073 [Eh]
	 SCS Total Energy          =    -244.8188672623687410 [Eh]
	-----------------------------------------------------------

  Dipole Moment: [D]
     X:    -1.5240      Y:    -1.8138      Z:     0.0002     Total:     2.3690

*** Psi4 exiting successfully. Buy a developer a beer!
