                               Psi4 1.3.2 release

  ==> Input File <==

--------------------------------------------------------------------------
#psi4
#
memory 32 gb

molecule  {
0 1
  O        0.8108760    -1.0055400     0.0000200
  O        0.4176929     1.2873003     0.0000579
  N       -1.2743210    -0.2082740    -0.0000680
  C        0.0409300     0.1256900    -0.0000440
  H       -1.5681090    -1.1717340     0.0000060
  H       -1.9567890     0.5320990     0.0000450
  H        1.7301120    -0.6777840     0.0000950
units angstrom
no_reorient  #important for SAPT in psi4, default
symmetry c1  #important for SAPT in psi4, default
}

set PROPERTIES_ORIGIN ["COM"]
properties('MP2/aug-cc-pvtz', properties = ['dipole'])
--------------------------------------------------------------------------

    Molecular point group: c1
  Charge       = 0
  Multiplicity = 1
  Basis Set: AUG-CC-PVTZ
    Blend: AUG-CC-PVTZ
  Basis Set: (AUG-CC-PVTZ AUX)
    Blend: AUG-CC-PVTZ-JKFIT

    Orbital Energies [Eh]
    ---------------------

    Doubly Occupied:

       1A    -20.623207     2A    -20.534787     3A    -15.593943
       4A    -11.416496     5A     -1.465483     6A     -1.359947
       7A     -1.220283     8A     -0.862099     9A     -0.757788
      10A     -0.707128    11A     -0.668597    12A     -0.647776
      13A     -0.606653    14A     -0.508130    15A     -0.463456
      16A     -0.431194

  @DF-RHF Final Energy:  -243.92398439345476

   => Energetics <=

    Nuclear Repulsion Energy =            122.9393541998863952
    One-Electron Energy =                -577.9927468479635309
    Two-Electron Energy =                 211.1294082546223763
    Total Energy =                       -243.9239843934547594
  Basis Set: (AUG-CC-PVTZ AUX)
    Blend: AUG-CC-PVTZ-RI
    Molecular point group: c1

    Geometry (in Angstrom), charge = 0, multiplicity = 1:

       Center              X                  Y                   Z               Mass
    ------------   -----------------  -----------------  -----------------  -----------------
         O            0.802865476492    -1.034561844766     0.000021426875    15.994914619570
         O            0.409682376492     1.258278455234     0.000059326875    15.994914619570
         N           -1.282331523508    -0.237295844766    -0.000066573125    14.003074004430
         C            0.032919476492     0.096668155234    -0.000042573125    12.000000000000
         H           -1.576119523508    -1.200755844766     0.000007426875     1.007825032230
         H           -1.964799523508     0.503077155234     0.000046426875     1.007825032230
         H            1.722101476492    -0.706805844766     0.000096426875     1.007825032230

  Basis Set: AUG-CC-PVTZ
    Blend: AUG-CC-PVTZ
  Basis Set: (AUG-CC-PVTZ AUX)
    Blend: AUG-CC-PVTZ-JKFIT
	 Reference Energy          =    -243.9239843934547594 [Eh]
	 Singles Energy            =      -0.0000000000000000 [Eh]
	 Same-Spin Energy          =      -0.2317655755602459 [Eh]
	 Opposite-Spin Energy      =      -0.6878340846355170 [Eh]
	 Correlation Energy        =      -0.9195996601957628 [Eh]
	 Total Energy              =    -244.8435840536505168 [Eh]

	 ================> DF-SCS-MP2 Energies <==================
	-----------------------------------------------------------
	 SCS Same-Spin Scale       =       0.3333333333333333 [-]
	 SCS Opposite-Spin Scale   =       1.2000000000000000 [-]
	 SCS Same-Spin Energy      =      -0.0772551918534153 [Eh]
	 SCS Opposite-Spin Energy  =      -0.8254009015626204 [Eh]
	 SCS Correlation Energy    =      -0.9026560934160357 [Eh]
	 SCS Total Energy          =    -244.8266404868707866 [Eh]
	-----------------------------------------------------------

  Dipole Moment: [D]
     X:    -1.3086      Y:    -2.0013      Z:     0.0002     Total:     2.3912

*** Psi4 exiting successfully. Buy a developer a beer!
