                               Psi4 1.3.2 release

  ==> Input File <==

--------------------------------------------------------------------------
#psi4
#
memory 32 gb

molecule  {
0 1
  O        0.8108760    -1.0055400     0.0000200
  O        0.5175002     1.2500429     0.0000542
  N       -1.2743210    -0.2082740    -0.0000680
  C        0.0409300     0.1256900    -0.0000440
  H       -1.5681090    -1.1717340     0.0000060
  H       -1.9567890     0.5320990     0.0000450
  H        1.7301120    -0.6777840     0.0000950
units angstrom
no_reorient  #important for SAPT in psi4, default
symmetry c1  #important for SAPT in psi4, default
}

set PROPERTIES_ORIGIN ["COM"]
properties('MP2/aug-cc-pvtz', properties = ['dipole'])
--------------------------------------------------------------------------

    Molecular point group: c1
  Charge       = 0
  Multiplicity = 1
  Basis Set: AUG-CC-PVTZ
    Blend: AUG-CC-PVTZ
  Basis Set: (AUG-CC-PVTZ AUX)
    Blend: AUG-CC-PVTZ-JKFIT

    Orbital Energies [Eh]
    ---------------------

    Doubly Occupied:

       1A    -20.614656     2A    -20.534998     3A    -15.600435
       4A    -11.416577     5A     -1.464329     6A     -1.352563
       7A     -1.227521     8A     -0.861607     9A     -0.760230
      10A     -0.706871    11A     -0.667252    12A     -0.646006
      13A     -0.606515    14A     -0.503656    15A     -0.462868
      16A     -0.436399

  @DF-RHF Final Energy:  -243.92570661744318

   => Energetics <=

    Nuclear Repulsion Energy =            122.9716153998571144
    One-Electron Energy =                -578.0696759571342227
    Two-Electron Energy =                 211.1723539398339256
    Total Energy =                       -243.9257066174431827
  Basis Set: (AUG-CC-PVTZ AUX)
    Blend: AUG-CC-PVTZ-RI
    Molecular point group: c1

    Geometry (in Angstrom), charge = 0, multiplicity = 1:

       Center              X                  Y                   Z               Mass
    ------------   -----------------  -----------------  -----------------  -----------------
         O            0.776701858045    -1.024795140347     0.000022396798    15.994914619570
         O            0.483326058045     1.230787759653     0.000056596798    15.994914619570
         N           -1.308495141955    -0.227529140347    -0.000065603202    14.003074004430
         C            0.006755858045     0.106434859653    -0.000041603202    12.000000000000
         H           -1.602283141955    -1.190989140347     0.000008396798     1.007825032230
         H           -1.990963141955     0.512843859653     0.000047396798     1.007825032230
         H            1.695937858045    -0.697039140347     0.000097396798     1.007825032230

  Basis Set: AUG-CC-PVTZ
    Blend: AUG-CC-PVTZ
  Basis Set: (AUG-CC-PVTZ AUX)
    Blend: AUG-CC-PVTZ-JKFIT
	 Reference Energy          =    -243.9257066174431827 [Eh]
	 Singles Energy            =      -0.0000000000000000 [Eh]
	 Same-Spin Energy          =      -0.2316032908581790 [Eh]
	 Opposite-Spin Energy      =      -0.6874461839044854 [Eh]
	 Correlation Energy        =      -0.9190494747626644 [Eh]
	 Total Energy              =    -244.8447560922058415 [Eh]

	 ================> DF-SCS-MP2 Energies <==================
	-----------------------------------------------------------
	 SCS Same-Spin Scale       =       0.3333333333333333 [-]
	 SCS Opposite-Spin Scale   =       1.2000000000000000 [-]
	 SCS Same-Spin Energy      =      -0.0772010969527263 [Eh]
	 SCS Opposite-Spin Energy  =      -0.8249354206853825 [Eh]
	 SCS Correlation Energy    =      -0.9021365176381089 [Eh]
	 SCS Total Energy          =    -244.8278431350812809 [Eh]
	-----------------------------------------------------------

  Dipole Moment: [D]
     X:    -1.6295      Y:    -1.8986      Z:     0.0002     Total:     2.5020

*** Psi4 exiting successfully. Buy a developer a beer!
