                               Psi4 1.3.2 release

  ==> Input File <==

--------------------------------------------------------------------------
#psi4
#
memory 32 gb

molecule  {
0 1
  O        0.8108760    -1.0055400     0.0000200
  O        0.6136806     1.2042286     0.0000497
  N       -1.2743210    -0.2082740    -0.0000680
  C        0.0409300     0.1256900    -0.0000440
  H       -1.5681090    -1.1717340     0.0000060
  H       -1.9567890     0.5320990     0.0000450
  H        1.7301120    -0.6777840     0.0000950
units angstrom
no_reorient  #important for SAPT in psi4, default
symmetry c1  #important for SAPT in psi4, default
}

set PROPERTIES_ORIGIN ["COM"]
properties('MP2/aug-cc-pvtz', properties = ['dipole'])
--------------------------------------------------------------------------

    Molecular point group: c1
  Charge       = 0
  Multiplicity = 1
  Basis Set: AUG-CC-PVTZ
    Blend: AUG-CC-PVTZ
  Basis Set: (AUG-CC-PVTZ AUX)
    Blend: AUG-CC-PVTZ-JKFIT

    Orbital Energies [Eh]
    ---------------------

    Doubly Occupied:

       1A    -20.605543     2A    -20.534750     3A    -15.606633
       4A    -11.416841     5A     -1.463995     6A     -1.344481
       7A     -1.234110     8A     -0.861365     9A     -0.762506
      10A     -0.706712    11A     -0.664878    12A     -0.644514
      13A     -0.606512    14A     -0.498850    15A     -0.460344
      16A     -0.440976

  @DF-RHF Final Energy:  -243.92299028407666

   => Energetics <=

    Nuclear Repulsion Energy =            123.1022973174936510
    One-Electron Energy =                -578.3445536537020644
    Two-Electron Energy =                 211.3192660521317521
    Total Energy =                       -243.9229902840766613
  Basis Set: (AUG-CC-PVTZ AUX)
    Blend: AUG-CC-PVTZ-RI
    Molecular point group: c1

    Geometry (in Angstrom), charge = 0, multiplicity = 1:

       Center              X                  Y                   Z               Mass
    ------------   -----------------  -----------------  -----------------  -----------------
         O            0.751488999991    -1.012785318775     0.000023576434    15.994914619570
         O            0.554293599991     1.196983281225     0.000053276434    15.994914619570
         N           -1.333708000009    -0.215519318775    -0.000064423566    14.003074004430
         C           -0.018457000009     0.118444681225    -0.000040423566    12.000000000000
         H           -1.627496000009    -1.178979318775     0.000009576434     1.007825032230
         H           -2.016176000009     0.524853681225     0.000048576434     1.007825032230
         H            1.670724999991    -0.685029318775     0.000098576434     1.007825032230

  Basis Set: AUG-CC-PVTZ
    Blend: AUG-CC-PVTZ
  Basis Set: (AUG-CC-PVTZ AUX)
    Blend: AUG-CC-PVTZ-JKFIT
	 Reference Energy          =    -243.9229902840766613 [Eh]
	 Singles Energy            =      -0.0000000000000000 [Eh]
	 Same-Spin Energy          =      -0.2315836870205850 [Eh]
	 Opposite-Spin Energy      =      -0.6873387638403310 [Eh]
	 Correlation Energy        =      -0.9189224508609160 [Eh]
	 Total Energy              =    -244.8419127349375799 [Eh]

	 ================> DF-SCS-MP2 Energies <==================
	-----------------------------------------------------------
	 SCS Same-Spin Scale       =       0.3333333333333333 [-]
	 SCS Opposite-Spin Scale   =       1.2000000000000000 [-]
	 SCS Same-Spin Energy      =      -0.0771945623401950 [Eh]
	 SCS Opposite-Spin Energy  =      -0.8248065166083972 [Eh]
	 SCS Correlation Energy    =      -0.9020010789485922 [Eh]
	 SCS Total Energy          =    -244.8249913630252479 [Eh]
	-----------------------------------------------------------

  Dipole Moment: [D]
     X:    -1.9406      Y:    -1.7704      Z:     0.0002     Total:     2.6268

*** Psi4 exiting successfully. Buy a developer a beer!
