                               Psi4 1.4a3.dev225

  ==> Input File <==

--------------------------------------------------------------------------
#psi4
#
memory 32 gb

molecule  {
0 1
  O        0.8159840    -1.0007070     0.0023930
  O        0.4905240     1.2598000     0.0069300
  N       -1.2790880    -0.2165130    -0.0579370
  C        0.0408930     0.1252930    -0.0011690
  H       -1.5484887    -1.1793789     0.1872850
  H       -1.9348860     0.5218130     0.1496860
  H        1.7343390    -0.6700500     0.0057850
units angstrom
no_reorient  #important for SAPT in psi4, default
symmetry c1  #important for SAPT in psi4, default
}

set PROPERTIES_ORIGIN ["COM"]
properties('MP2/aug-cc-pvtz', properties = ['dipole'])
--------------------------------------------------------------------------

    Molecular point group: c1
  Charge       = 0
  Multiplicity = 1
  Basis Set: AUG-CC-PVTZ
    Blend: AUG-CC-PVTZ
  Basis Set: (AUG-CC-PVTZ AUX)
    Blend: AUG-CC-PVTZ-JKFIT

    Orbital Energies [Eh]
    ---------------------

    Doubly Occupied:

       1A    -20.618081     2A    -20.538151     3A    -15.600899
       4A    -11.417443     5A     -1.466400     6A     -1.356557
       7A     -1.223644     8A     -0.858854     9A     -0.751663
      10A     -0.707280    11A     -0.663917    12A     -0.647001
      13A     -0.607153    14A     -0.506294    15A     -0.465478
      16A     -0.439236

  @DF-RHF Final Energy:  -243.92450286047873

   => Energetics <=

    Nuclear Repulsion Energy =            122.7981794213625193
    One-Electron Energy =                -577.7092588087667764
    Two-Electron Energy =                 210.9865765269255178
    Total Energy =                       -243.9245028604787251
  Basis Set: (AUG-CC-PVTZ AUX)
    Blend: AUG-CC-PVTZ-RI
    Molecular point group: c1

    Geometry (in Angstrom), charge = 0, multiplicity = 1:

       Center              X                  Y                   Z               Mass
    ------------   -----------------  -----------------  -----------------  -----------------
         O            0.787888035056    -1.021649480514     0.007813928640    15.994914619570
         O            0.462428035056     1.238857519486     0.012350928640    15.994914619570
         N           -1.307183964944    -0.237455480514    -0.052516071360    14.003074004430
         C            0.012797035056     0.104350519486     0.004251928640    12.000000000000
         H           -1.576584664944    -1.200321380514     0.192705928640     1.007825032230
         H           -1.962981964944     0.500870519486     0.155106928640     1.007825032230
         H            1.706243035056    -0.690992480514     0.011205928640     1.007825032230

  Basis Set: AUG-CC-PVTZ
    Blend: AUG-CC-PVTZ
  Basis Set: (AUG-CC-PVTZ AUX)
    Blend: AUG-CC-PVTZ-JKFIT
	 Reference Energy          =    -243.9245028604787251 [Eh]
	 Singles Energy            =      -0.0000000000000000 [Eh]
	 Same-Spin Energy          =      -0.2316970695260651 [Eh]
	 Opposite-Spin Energy      =      -0.6880625621436723 [Eh]
	 Correlation Energy        =      -0.9197596316697374 [Eh]
	 Total Energy              =    -244.8442624921484594 [Eh]

	 ================> DF-SCS-MP2 Energies <==================
	-----------------------------------------------------------
	 SCS Same-Spin Scale       =       0.3333333333333333 [-]
	 SCS Opposite-Spin Scale   =       1.2000000000000000 [-]
	 SCS Same-Spin Energy      =      -0.0772323565086884 [Eh]
	 SCS Opposite-Spin Energy  =      -0.8256750745724067 [Eh]
	 SCS Correlation Energy    =      -0.9029074310810951 [Eh]
	 SCS Total Energy          =    -244.8274102915598291 [Eh]
	-----------------------------------------------------------

  Dipole Moment: [D]
     X:    -1.3709      Y:    -1.8827      Z:     0.6532     Total:     2.4188

*** Psi4 exiting successfully. Buy a developer a beer!
