                               Psi4 1.3.2 release

  ==> Input File <==

--------------------------------------------------------------------------
#psi4
#
memory 32 gb

molecule  {
0 1
  O        0.8108760    -1.0055400     0.0000200
  O        0.4978050     1.2581890     0.0000550
  N       -1.2743210    -0.2082740    -0.0000680
  C        0.0349012     0.1485934    -0.0000463
  H       -1.5681090    -1.1717340     0.0000060
  H       -1.9567890     0.5320990     0.0000450
  H        1.7301120    -0.6777840     0.0000950
units angstrom
no_reorient  #important for SAPT in psi4, default
symmetry c1  #important for SAPT in psi4, default
}

set PROPERTIES_ORIGIN ["COM"]
properties('MP2/aug-cc-pvtz', properties = ['dipole'])
--------------------------------------------------------------------------

    Molecular point group: c1
  Charge       = 0
  Multiplicity = 1
  Basis Set: AUG-CC-PVTZ
    Blend: AUG-CC-PVTZ
  Basis Set: (AUG-CC-PVTZ AUX)
    Blend: AUG-CC-PVTZ-JKFIT

    Orbital Energies [Eh]
    ---------------------

    Doubly Occupied:

       1A    -20.610004     2A    -20.539885     3A    -15.598905
       4A    -11.415600     5A     -1.460864     6A     -1.359907
       7A     -1.226807     8A     -0.856106     9A     -0.760386
      10A     -0.704259    11A     -0.662640    12A     -0.644107
      13A     -0.612095    14A     -0.505274    15A     -0.466812
      16A     -0.438735

  @DF-RHF Final Energy:  -243.92537923235167

   => Energetics <=

    Nuclear Repulsion Energy =            122.9729206221295499
    One-Electron Energy =                -578.0718283110489892
    Two-Electron Energy =                 211.1735284565677659
    Total Energy =                       -243.9253792323516734
  Basis Set: (AUG-CC-PVTZ AUX)
    Blend: AUG-CC-PVTZ-RI
    Molecular point group: c1

    Geometry (in Angstrom), charge = 0, multiplicity = 1:

       Center              X                  Y                   Z               Mass
    ------------   -----------------  -----------------  -----------------  -----------------
         O            0.783050459076    -1.031434947314     0.000022639422    15.994914619570
         O            0.469979459076     1.232294052686     0.000057639422    15.994914619570
         N           -1.302146540924    -0.234168947314    -0.000065360578    14.003074004430
         C            0.007075659076     0.122698452686    -0.000043660578    12.000000000000
         H           -1.595934540924    -1.197628947314     0.000008639422     1.007825032230
         H           -1.984614540924     0.506204052686     0.000047639422     1.007825032230
         H            1.702286459076    -0.703678947314     0.000097639422     1.007825032230

  Basis Set: AUG-CC-PVTZ
    Blend: AUG-CC-PVTZ
  Basis Set: (AUG-CC-PVTZ AUX)
    Blend: AUG-CC-PVTZ-JKFIT
	 Reference Energy          =    -243.9253792323516734 [Eh]
	 Singles Energy            =      -0.0000000000000000 [Eh]
	 Same-Spin Energy          =      -0.2315043046366780 [Eh]
	 Opposite-Spin Energy      =      -0.6874435467153150 [Eh]
	 Correlation Energy        =      -0.9189478513519931 [Eh]
	 Total Energy              =    -244.8443270837036607 [Eh]

	 ================> DF-SCS-MP2 Energies <==================
	-----------------------------------------------------------
	 SCS Same-Spin Scale       =       0.3333333333333333 [-]
	 SCS Opposite-Spin Scale   =       1.2000000000000000 [-]
	 SCS Same-Spin Energy      =      -0.0771681015455593 [Eh]
	 SCS Opposite-Spin Energy  =      -0.8249322560583781 [Eh]
	 SCS Correlation Energy    =      -0.9021003576039374 [Eh]
	 SCS Total Energy          =    -244.8274795899556011 [Eh]
	-----------------------------------------------------------

  Dipole Moment: [D]
     X:    -1.6143      Y:    -1.7118      Z:     0.0002     Total:     2.3529

*** Psi4 exiting successfully. Buy a developer a beer!
