                               Psi4 1.3.2 release

  ==> Input File <==

--------------------------------------------------------------------------
#psi4
#
memory 32 gb

molecule  {
0 1
  O        0.8108760    -1.0055400     0.0000200
  O        0.4978050     1.2581890     0.0000550
  N       -1.2743210    -0.2082740    -0.0000680
  C       -0.0011838     0.2613417    -0.0000578
  H       -1.5681090    -1.1717340     0.0000060
  H       -1.9567890     0.5320990     0.0000450
  H        1.7301120    -0.6777840     0.0000950
units angstrom
no_reorient  #important for SAPT in psi4, default
symmetry c1  #important for SAPT in psi4, default
}

set PROPERTIES_ORIGIN ["COM"]
properties('MP2/aug-cc-pvtz', properties = ['dipole'])
--------------------------------------------------------------------------

    Molecular point group: c1
  Charge       = 0
  Multiplicity = 1
  Basis Set: AUG-CC-PVTZ
    Blend: AUG-CC-PVTZ
  Basis Set: (AUG-CC-PVTZ AUX)
    Blend: AUG-CC-PVTZ-JKFIT

    Orbital Energies [Eh]
    ---------------------

    Doubly Occupied:

       1A    -20.574414     2A    -20.565011     3A    -15.600184
       4A    -11.412067     5A     -1.496816     6A     -1.343159
       7A     -1.229342     8A     -0.836704     9A     -0.763096
      10A     -0.714772    11A     -0.653810    12A     -0.648542
      13A     -0.614644    14A     -0.497576    15A     -0.470484
      16A     -0.451163

  @DF-RHF Final Energy:  -243.89945439656182

   => Energetics <=

    Nuclear Repulsion Energy =            123.1848958421797562
    One-Electron Energy =                -578.4251323904144328
    Two-Electron Energy =                 211.3407821516728688
    Total Energy =                       -243.8994543965618220
  Basis Set: (AUG-CC-PVTZ AUX)
    Blend: AUG-CC-PVTZ-RI
    Molecular point group: c1

    Geometry (in Angstrom), charge = 0, multiplicity = 1:

       Center              X                  Y                   Z               Mass
    ------------   -----------------  -----------------  -----------------  -----------------
         O            0.790147242133    -1.053608987085     0.000024901110    15.994914619570
         O            0.477076242133     1.210120012915     0.000059901110    15.994914619570
         N           -1.295049757867    -0.256342987085    -0.000063098890    14.003074004430
         C           -0.021912557867     0.213272712915    -0.000052898890    12.000000000000
         H           -1.588837757867    -1.219802987085     0.000010901110     1.007825032230
         H           -1.977517757867     0.484030012915     0.000049901110     1.007825032230
         H            1.709383242133    -0.725852987085     0.000099901110     1.007825032230

  Basis Set: AUG-CC-PVTZ
    Blend: AUG-CC-PVTZ
  Basis Set: (AUG-CC-PVTZ AUX)
    Blend: AUG-CC-PVTZ-JKFIT
	 Reference Energy          =    -243.8994543965618220 [Eh]
	 Singles Energy            =      -0.0000000000000000 [Eh]
	 Same-Spin Energy          =      -0.2312361149932084 [Eh]
	 Opposite-Spin Energy      =      -0.6877718320370606 [Eh]
	 Correlation Energy        =      -0.9190079470302690 [Eh]
	 Total Energy              =    -244.8184623435921026 [Eh]

	 ================> DF-SCS-MP2 Energies <==================
	-----------------------------------------------------------
	 SCS Same-Spin Scale       =       0.3333333333333333 [-]
	 SCS Opposite-Spin Scale   =       1.2000000000000000 [-]
	 SCS Same-Spin Energy      =      -0.0770787049977361 [Eh]
	 SCS Opposite-Spin Energy  =      -0.8253261984444727 [Eh]
	 SCS Correlation Energy    =      -0.9024049034422089 [Eh]
	 SCS Total Energy          =    -244.8018593000040255 [Eh]
	-----------------------------------------------------------

  Dipole Moment: [D]
     X:    -1.9236      Y:    -0.6268      Z:     0.0002     Total:     2.0232

*** Psi4 exiting successfully. Buy a developer a beer!
