                               Psi4 1.3.2 release

  ==> Input File <==

--------------------------------------------------------------------------
#psi4
#
memory 32 gb

molecule  {
0 1
  O        0.8108760    -1.0055400     0.0000200
  O        0.4978050     1.2581890     0.0000550
  N       -1.2743210    -0.2082740    -0.0000680
  C       -0.0153365     0.2083585    -0.0000487
  H       -1.5681090    -1.1717340     0.0000060
  H       -1.9567890     0.5320990     0.0000450
  H        1.7301120    -0.6777840     0.0000950
units angstrom
no_reorient  #important for SAPT in psi4, default
symmetry c1  #important for SAPT in psi4, default
}

set PROPERTIES_ORIGIN ["COM"]
properties('MP2/aug-cc-pvtz', properties = ['dipole'])
--------------------------------------------------------------------------

    Molecular point group: c1
  Charge       = 0
  Multiplicity = 1
  Basis Set: AUG-CC-PVTZ
    Blend: AUG-CC-PVTZ
  Basis Set: (AUG-CC-PVTZ AUX)
    Blend: AUG-CC-PVTZ-JKFIT

    Orbital Energies [Eh]
    ---------------------

    Doubly Occupied:

       1A    -20.585912     2A    -20.549346     3A    -15.606114
       4A    -11.413672     5A     -1.460244     6A     -1.347595
       7A     -1.244086     8A     -0.849556     9A     -0.769841
      10A     -0.700717    11A     -0.647667    12A     -0.641972
      13A     -0.615241    14A     -0.498921    15A     -0.466181
      16A     -0.450462

  @DF-RHF Final Energy:  -243.91468037125983

   => Energetics <=

    Nuclear Repulsion Energy =            122.9840969174087206
    One-Electron Energy =                -578.1025022958388035
    Two-Electron Energy =                 211.2037250071702772
    Total Energy =                       -243.9146803712598341
  Basis Set: (AUG-CC-PVTZ AUX)
    Blend: AUG-CC-PVTZ-RI
    Molecular point group: c1

    Geometry (in Angstrom), charge = 0, multiplicity = 1:

       Center              X                  Y                   Z               Mass
    ------------   -----------------  -----------------  -----------------  -----------------
         O            0.792930632505    -1.043188860271     0.000023111427    15.994914619570
         O            0.479859632505     1.220540139729     0.000058111427    15.994914619570
         N           -1.292266367495    -0.245922860271    -0.000064888573    14.003074004430
         C           -0.033281867495     0.170709639729    -0.000045588573    12.000000000000
         H           -1.586054367495    -1.209382860271     0.000009111427     1.007825032230
         H           -1.974734367495     0.494450139729     0.000048111427     1.007825032230
         H            1.712166632505    -0.715432860271     0.000098111427     1.007825032230

  Basis Set: AUG-CC-PVTZ
    Blend: AUG-CC-PVTZ
  Basis Set: (AUG-CC-PVTZ AUX)
    Blend: AUG-CC-PVTZ-JKFIT
	 Reference Energy          =    -243.9146803712598341 [Eh]
	 Singles Energy            =      -0.0000000000000000 [Eh]
	 Same-Spin Energy          =      -0.2316830339106923 [Eh]
	 Opposite-Spin Energy      =      -0.6881979007109611 [Eh]
	 Correlation Energy        =      -0.9198809346216533 [Eh]
	 Total Energy              =    -244.8345613058814934 [Eh]

	 ================> DF-SCS-MP2 Energies <==================
	-----------------------------------------------------------
	 SCS Same-Spin Scale       =       0.3333333333333333 [-]
	 SCS Opposite-Spin Scale   =       1.2000000000000000 [-]
	 SCS Same-Spin Energy      =      -0.0772276779702308 [Eh]
	 SCS Opposite-Spin Energy  =      -0.8258374808531533 [Eh]
	 SCS Correlation Energy    =      -0.9030651588233841 [Eh]
	 SCS Total Energy          =    -244.8177455300832150 [Eh]
	-----------------------------------------------------------

  Dipole Moment: [D]
     X:    -2.0900      Y:    -1.1777      Z:     0.0002     Total:     2.3990

*** Psi4 exiting successfully. Buy a developer a beer!
