                               Psi4 1.3.2 release

  ==> Input File <==

--------------------------------------------------------------------------
#psi4
#
memory 32 gb

molecule  {
0 1
  O        0.8108760    -1.0055400     0.0000200
  O        0.4978050     1.2581890     0.0000550
  N       -1.2743210    -0.2082740    -0.0000680
  C       -0.0559943     0.1010793    -0.0000458
  H       -1.5681090    -1.1717340     0.0000060
  H       -1.9567890     0.5320990     0.0000450
  H        1.7301120    -0.6777840     0.0000950
units angstrom
no_reorient  #important for SAPT in psi4, default
symmetry c1  #important for SAPT in psi4, default
}

set PROPERTIES_ORIGIN ["COM"]
properties('MP2/aug-cc-pvtz', properties = ['dipole'])
--------------------------------------------------------------------------

    Molecular point group: c1
  Charge       = 0
  Multiplicity = 1
  Basis Set: AUG-CC-PVTZ
    Blend: AUG-CC-PVTZ
  Basis Set: (AUG-CC-PVTZ AUX)
    Blend: AUG-CC-PVTZ-JKFIT

    Orbital Energies [Eh]
    ---------------------

    Doubly Occupied:

       1A    -20.603405     2A    -20.517608     3A    -15.621399
       4A    -11.414326     5A     -1.441489     6A     -1.317187
       7A     -1.267667     8A     -0.877720     9A     -0.790081
      10A     -0.704597    11A     -0.661346    12A     -0.642208
      13A     -0.578271    14A     -0.506906    15A     -0.440693
      16A     -0.429646

  @DF-RHF Final Energy:  -243.90565836553486

   => Energetics <=

    Nuclear Repulsion Energy =            122.8420637174614001
    One-Electron Energy =                -577.8663432261056414
    Two-Electron Energy =                 211.1186211431093511
    Total Energy =                       -243.9056583655348618
  Basis Set: (AUG-CC-PVTZ AUX)
    Blend: AUG-CC-PVTZ-RI
    Molecular point group: c1

    Geometry (in Angstrom), charge = 0, multiplicity = 1:

       Center              X                  Y                   Z               Mass
    ------------   -----------------  -----------------  -----------------  -----------------
         O            0.800926741308    -1.022090420229     0.000022541088    15.994914619570
         O            0.487855741308     1.241638579771     0.000057541088    15.994914619570
         N           -1.284270258692    -0.224824420229    -0.000065458912    14.003074004430
         C           -0.065943558692     0.084528879771    -0.000043258912    12.000000000000
         H           -1.578058258692    -1.188284420229     0.000008541088     1.007825032230
         H           -1.966738258692     0.515548579771     0.000047541088     1.007825032230
         H            1.720162741308    -0.694334420229     0.000097541088     1.007825032230

  Basis Set: AUG-CC-PVTZ
    Blend: AUG-CC-PVTZ
  Basis Set: (AUG-CC-PVTZ AUX)
    Blend: AUG-CC-PVTZ-JKFIT
	 Reference Energy          =    -243.9056583655348618 [Eh]
	 Singles Energy            =      -0.0000000000000000 [Eh]
	 Same-Spin Energy          =      -0.2325483272456653 [Eh]
	 Opposite-Spin Energy      =      -0.6890003360015149 [Eh]
	 Correlation Energy        =      -0.9215486632471802 [Eh]
	 Total Energy              =    -244.8272070287820554 [Eh]

	 ================> DF-SCS-MP2 Energies <==================
	-----------------------------------------------------------
	 SCS Same-Spin Scale       =       0.3333333333333333 [-]
	 SCS Opposite-Spin Scale   =       1.2000000000000000 [-]
	 SCS Same-Spin Energy      =      -0.0775161090818884 [Eh]
	 SCS Opposite-Spin Energy  =      -0.8268004032018178 [Eh]
	 SCS Correlation Energy    =      -0.9043165122837062 [Eh]
	 SCS Total Energy          =    -244.8099748778185756 [Eh]
	-----------------------------------------------------------

  Dipole Moment: [D]
     X:    -2.5464      Y:    -2.2303      Z:     0.0002     Total:     3.3850

*** Psi4 exiting successfully. Buy a developer a beer!
