                               Psi4 1.3.2 release

  ==> Input File <==

--------------------------------------------------------------------------
#psi4
#
memory 32 gb

molecule  {
0 1
  O        0.8108760    -1.0055400     0.0000200
  O        0.4978050     1.2581890     0.0000550
  N       -1.2743210    -0.2082740    -0.0000680
  C        0.0808784     0.1518716    -0.0000408
  H       -1.5681090    -1.1717340     0.0000060
  H       -1.9567890     0.5320990     0.0000450
  H        1.7301120    -0.6777840     0.0000950
units angstrom
no_reorient  #important for SAPT in psi4, default
symmetry c1  #important for SAPT in psi4, default
}

set PROPERTIES_ORIGIN ["COM"]
properties('MP2/aug-cc-pvtz', properties = ['dipole'])
--------------------------------------------------------------------------

    Molecular point group: c1
  Charge       = 0
  Multiplicity = 1
  Basis Set: AUG-CC-PVTZ
    Blend: AUG-CC-PVTZ
  Basis Set: (AUG-CC-PVTZ AUX)
    Blend: AUG-CC-PVTZ-JKFIT

    Orbital Energies [Eh]
    ---------------------

    Doubly Occupied:

       1A    -20.618122     2A    -20.545989     3A    -15.588611
       4A    -11.416412     5A     -1.474927     6A     -1.378159
       7A     -1.204931     8A     -0.853027     9A     -0.748695
      10A     -0.711975    11A     -0.662400    12A     -0.650670
      13A     -0.618124    14A     -0.509844    15A     -0.473701
      16A     -0.433269

  @DF-RHF Final Energy:  -243.92354346027528

   => Energetics <=

    Nuclear Repulsion Energy =            123.0755734035841158
    One-Electron Energy =                -578.2205203699904814
    Two-Electron Energy =                 211.2214035061310540
    Total Energy =                       -243.9235434602752832
  Basis Set: (AUG-CC-PVTZ AUX)
    Blend: AUG-CC-PVTZ-RI
    Molecular point group: c1

    Geometry (in Angstrom), charge = 0, multiplicity = 1:

       Center              X                  Y                   Z               Mass
    ------------   -----------------  -----------------  -----------------  -----------------
         O            0.774008191819    -1.032079666012     0.000021557745    15.994914619570
         O            0.460937191819     1.231649333988     0.000056557745    15.994914619570
         N           -1.311188808181    -0.234813666012    -0.000066442255    14.003074004430
         C            0.044010591819     0.125331933988    -0.000039242255    12.000000000000
         H           -1.604976808181    -1.198273666012     0.000007557745     1.007825032230
         H           -1.993656808181     0.505559333988     0.000046557745     1.007825032230
         H            1.693244191819    -0.704323666012     0.000096557745     1.007825032230

  Basis Set: AUG-CC-PVTZ
    Blend: AUG-CC-PVTZ
  Basis Set: (AUG-CC-PVTZ AUX)
    Blend: AUG-CC-PVTZ-JKFIT
	 Reference Energy          =    -243.9235434602752832 [Eh]
	 Singles Energy            =      -0.0000000000000000 [Eh]
	 Same-Spin Energy          =      -0.2311938608068437 [Eh]
	 Opposite-Spin Energy      =      -0.6869493267745754 [Eh]
	 Correlation Energy        =      -0.9181431875814191 [Eh]
	 Total Energy              =    -244.8416866478567044 [Eh]

	 ================> DF-SCS-MP2 Energies <==================
	-----------------------------------------------------------
	 SCS Same-Spin Scale       =       0.3333333333333333 [-]
	 SCS Opposite-Spin Scale   =       1.2000000000000000 [-]
	 SCS Same-Spin Energy      =      -0.0770646202689479 [Eh]
	 SCS Opposite-Spin Energy  =      -0.8243391921294905 [Eh]
	 SCS Correlation Energy    =      -0.9014038123984384 [Eh]
	 SCS Total Energy          =    -244.8249472726737110 [Eh]
	-----------------------------------------------------------

  Dipole Moment: [D]
     X:    -1.1474      Y:    -1.6429      Z:     0.0002     Total:     2.0039

*** Psi4 exiting successfully. Buy a developer a beer!
