                               Psi4 1.3.2 release

  ==> Input File <==

--------------------------------------------------------------------------
#psi4
#
memory 32 gb

molecule  {
0 1
  O        0.8879111    -0.9490757     0.0000200
  O        0.4978050     1.2581890     0.0000550
  N       -1.2743210    -0.2082740    -0.0000680
  C        0.0409300     0.1256900    -0.0000440
  H       -1.5681090    -1.1717340     0.0000060
  H       -1.9567890     0.5320990     0.0000450
  H        1.7301120    -0.6777840     0.0000950
units angstrom
no_reorient  #important for SAPT in psi4, default
symmetry c1  #important for SAPT in psi4, default
}

set PROPERTIES_ORIGIN ["COM"]
properties('MP2/aug-cc-pvtz', properties = ['dipole'])
--------------------------------------------------------------------------

    Molecular point group: c1
  Charge       = 0
  Multiplicity = 1
  Basis Set: AUG-CC-PVTZ
    Blend: AUG-CC-PVTZ
  Basis Set: (AUG-CC-PVTZ AUX)
    Blend: AUG-CC-PVTZ-JKFIT

    Orbital Energies [Eh]
    ---------------------

    Doubly Occupied:

       1A    -20.604653     2A    -20.530380     3A    -15.604710
       4A    -11.418142     5A     -1.474790     6A     -1.356430
       7A     -1.231648     8A     -0.882406     9A     -0.768685
      10A     -0.709480    11A     -0.680733    12A     -0.646435
      13A     -0.601722    14A     -0.505997    15A     -0.459093
      16A     -0.435794

  @DF-RHF Final Energy:  -243.92149681433011

   => Energetics <=

    Nuclear Repulsion Energy =            123.3089409172226851
    One-Electron Energy =                -578.6386789240328881
    Two-Electron Energy =                 211.4082411924800908
    Total Energy =                       -243.9214968143301121
  Basis Set: (AUG-CC-PVTZ AUX)
    Blend: AUG-CC-PVTZ-RI
    Molecular point group: c1

    Geometry (in Angstrom), charge = 0, multiplicity = 1:

       Center              X                  Y                   Z               Mass
    ------------   -----------------  -----------------  -----------------  -----------------
         O            0.838705800350    -0.985267896587     0.000022187085    15.994914619570
         O            0.448599700350     1.221996803413     0.000057187085    15.994914619570
         N           -1.323526299650    -0.244466196587    -0.000065812915    14.003074004430
         C           -0.008275299650     0.089497803413    -0.000041812915    12.000000000000
         H           -1.617314299650    -1.207926196587     0.000008187085     1.007825032230
         H           -2.005994299650     0.495906803413     0.000047187085     1.007825032230
         H            1.680906700350    -0.713976196587     0.000097187085     1.007825032230

  Basis Set: AUG-CC-PVTZ
    Blend: AUG-CC-PVTZ
  Basis Set: (AUG-CC-PVTZ AUX)
    Blend: AUG-CC-PVTZ-JKFIT
	 Reference Energy          =    -243.9214968143301121 [Eh]
	 Singles Energy            =      -0.0000000000000000 [Eh]
	 Same-Spin Energy          =      -0.2301056233205442 [Eh]
	 Opposite-Spin Energy      =      -0.6841729218956465 [Eh]
	 Correlation Energy        =      -0.9142785452161908 [Eh]
	 Total Energy              =    -244.8357753595462896 [Eh]

	 ================> DF-SCS-MP2 Energies <==================
	-----------------------------------------------------------
	 SCS Same-Spin Scale       =       0.3333333333333333 [-]
	 SCS Opposite-Spin Scale   =       1.2000000000000000 [-]
	 SCS Same-Spin Energy      =      -0.0767018744401814 [Eh]
	 SCS Opposite-Spin Energy  =      -0.8210075062747758 [Eh]
	 SCS Correlation Energy    =      -0.8977093807149572 [Eh]
	 SCS Total Energy          =    -244.8192061950450693 [Eh]
	-----------------------------------------------------------

  Dipole Moment: [D]
     X:    -1.7649      Y:    -1.9896      Z:     0.0002     Total:     2.6596

*** Psi4 exiting successfully. Buy a developer a beer!
