                               Psi4 1.4a3.dev225

  ==> Input File <==

--------------------------------------------------------------------------
#psi4
#
memory 32 gb

molecule  {
0 1
  O        0.8159840    -1.0007070     0.0023930
  O        0.4905240     1.2598000     0.0069300
  N       -1.2790880    -0.2165130    -0.0579370
  C        0.0522331     0.1088188    -0.0011169
  H       -1.5432550    -1.1606730     0.1825210
  H       -1.9348860     0.5218130     0.1496860
  H        1.7343390    -0.6700500     0.0057850
units angstrom
no_reorient  #important for SAPT in psi4, default
symmetry c1  #important for SAPT in psi4, default
}

set PROPERTIES_ORIGIN ["COM"]
properties('MP2/aug-cc-pvtz', properties = ['dipole'])
--------------------------------------------------------------------------

    Molecular point group: c1
  Charge       = 0
  Multiplicity = 1
  Basis Set: AUG-CC-PVTZ
    Blend: AUG-CC-PVTZ
  Basis Set: (AUG-CC-PVTZ AUX)
    Blend: AUG-CC-PVTZ-JKFIT

    Orbital Energies [Eh]
    ---------------------

    Doubly Occupied:

       1A    -20.624177     2A    -20.535512     3A    -15.598006
       4A    -11.418440     5A     -1.473670     6A     -1.353304
       7A     -1.222535     8A     -0.864462     9A     -0.753643
      10A     -0.711225    11A     -0.668854    12A     -0.650689
      13A     -0.603949    14A     -0.505851    15A     -0.463611
      16A     -0.436671

  @DF-RHF Final Energy:  -243.92481348405505

   => Energetics <=

    Nuclear Repulsion Energy =            122.9066079546515624
    One-Electron Energy =                -577.8936431559313860
    Two-Electron Energy =                 211.0622217172247588
    Total Energy =                       -243.9248134840550506
  Basis Set: (AUG-CC-PVTZ AUX)
    Blend: AUG-CC-PVTZ-RI
    Molecular point group: c1

    Geometry (in Angstrom), charge = 0, multiplicity = 1:

       Center              X                  Y                   Z               Mass
    ------------   -----------------  -----------------  -----------------  -----------------
         O            0.785571348000    -1.018718494923     0.007882370566    15.994914619570
         O            0.460111348000     1.241788505077     0.012419370566    15.994914619570
         N           -1.309500652000    -0.234524494923    -0.052447629434    14.003074004430
         C            0.021820448000     0.090807305077     0.004372470566    12.000000000000
         H           -1.573667652000    -1.178684494923     0.188010370566     1.007825032230
         H           -1.965298652000     0.503801505077     0.155175370566     1.007825032230
         H            1.703926348000    -0.688061494923     0.011274370566     1.007825032230

  Basis Set: AUG-CC-PVTZ
    Blend: AUG-CC-PVTZ
  Basis Set: (AUG-CC-PVTZ AUX)
    Blend: AUG-CC-PVTZ-JKFIT
	 Reference Energy          =    -243.9248134840550506 [Eh]
	 Singles Energy            =      -0.0000000000000000 [Eh]
	 Same-Spin Energy          =      -0.2316411239900882 [Eh]
	 Opposite-Spin Energy      =      -0.6877549957282270 [Eh]
	 Correlation Energy        =      -0.9193961197183151 [Eh]
	 Total Energy              =    -244.8442096037733791 [Eh]

	 ================> DF-SCS-MP2 Energies <==================
	-----------------------------------------------------------
	 SCS Same-Spin Scale       =       0.3333333333333333 [-]
	 SCS Opposite-Spin Scale   =       1.2000000000000000 [-]
	 SCS Same-Spin Energy      =      -0.0772137079966961 [Eh]
	 SCS Opposite-Spin Energy  =      -0.8253059948738724 [Eh]
	 SCS Correlation Energy    =      -0.9025197028705684 [Eh]
	 SCS Total Energy          =    -244.8273331869256140 [Eh]
	-----------------------------------------------------------

  Dipole Moment: [D]
     X:    -1.2595      Y:    -2.0072      Z:     0.6497     Total:     2.4571

*** Psi4 exiting successfully. Buy a developer a beer!
