                               Psi4 1.3.2 release

  ==> Input File <==

--------------------------------------------------------------------------
#psi4
#
memory 32 gb

molecule  {
0 1
  O        0.8108760    -1.0055400     0.0000200
  O        0.4978050     1.2581890     0.0000550
  N       -1.2743210    -0.2082740    -0.0000680
  C        0.0409300     0.1256900    -0.0000440
  H       -1.4657906    -1.1971653    -0.0000126
  H       -1.9567890     0.5320990     0.0000450
  H        1.7301120    -0.6777840     0.0000950
units angstrom
no_reorient  #important for SAPT in psi4, default
symmetry c1  #important for SAPT in psi4, default
}

set PROPERTIES_ORIGIN ["COM"]
properties('MP2/aug-cc-pvtz', properties = ['dipole'])
--------------------------------------------------------------------------

    Molecular point group: c1
  Charge       = 0
  Multiplicity = 1
  Basis Set: AUG-CC-PVTZ
    Blend: AUG-CC-PVTZ
  Basis Set: (AUG-CC-PVTZ AUX)
    Blend: AUG-CC-PVTZ-JKFIT

    Orbital Energies [Eh]
    ---------------------

    Doubly Occupied:

       1A    -20.617332     2A    -20.533930     3A    -15.599126
       4A    -11.414427     5A     -1.465251     6A     -1.353851
       7A     -1.227364     8A     -0.858067     9A     -0.759965
      10A     -0.707513    11A     -0.672560    12A     -0.646761
      13A     -0.605761    14A     -0.504974    15A     -0.461771
      16A     -0.435136

  @DF-RHF Final Energy:  -243.92459765614552

   => Energetics <=

    Nuclear Repulsion Energy =            123.0980627999934711
    One-Electron Energy =                -578.3177444671653120
    Two-Electron Energy =                 211.2950840110262902
    Total Energy =                       -243.9245976561455223
  Basis Set: (AUG-CC-PVTZ AUX)
    Blend: AUG-CC-PVTZ-RI
    Molecular point group: c1

    Geometry (in Angstrom), charge = 0, multiplicity = 1:

       Center              X                  Y                   Z               Mass
    ------------   -----------------  -----------------  -----------------  -----------------
         O            0.780174761606    -1.026510513761     0.000022494306    15.994914619570
         O            0.467103761606     1.237218486239     0.000057494306    15.994914619570
         N           -1.305022238394    -0.229244513761    -0.000065505694    14.003074004430
         C            0.010228761606     0.104719486239    -0.000041505694    12.000000000000
         H           -1.496491838394    -1.218135813761    -0.000010105694     1.007825032230
         H           -1.987490238394     0.511128486239     0.000047494306     1.007825032230
         H            1.699410761606    -0.698754513761     0.000097494306     1.007825032230

  Basis Set: AUG-CC-PVTZ
    Blend: AUG-CC-PVTZ
  Basis Set: (AUG-CC-PVTZ AUX)
    Blend: AUG-CC-PVTZ-JKFIT
	 Reference Energy          =    -243.9245976561455223 [Eh]
	 Singles Energy            =      -0.0000000000000000 [Eh]
	 Same-Spin Energy          =      -0.2317003968354991 [Eh]
	 Opposite-Spin Energy      =      -0.6875040987748178 [Eh]
	 Correlation Energy        =      -0.9192044956103169 [Eh]
	 Total Energy              =    -244.8438021517558525 [Eh]

	 ================> DF-SCS-MP2 Energies <==================
	-----------------------------------------------------------
	 SCS Same-Spin Scale       =       0.3333333333333333 [-]
	 SCS Opposite-Spin Scale   =       1.2000000000000000 [-]
	 SCS Same-Spin Energy      =      -0.0772334656118330 [Eh]
	 SCS Opposite-Spin Energy  =      -0.8250049185297813 [Eh]
	 SCS Correlation Energy    =      -0.9022383841416144 [Eh]
	 SCS Total Energy          =    -244.8268360402871338 [Eh]
	-----------------------------------------------------------

  Dipole Moment: [D]
     X:    -1.4905      Y:    -1.9346      Z:     0.0002     Total:     2.4422

*** Psi4 exiting successfully. Buy a developer a beer!
