                               Psi4 1.3.2 release

  ==> Input File <==

--------------------------------------------------------------------------
#psi4
#
memory 32 gb

molecule  {
0 1
  O        0.8108760    -1.0055400     0.0000200
  O        0.4978050     1.2581890     0.0000550
  N       -1.2743210    -0.2082740    -0.0000680
  C        0.1378543     0.1503007    -0.0000422
  H       -1.5681090    -1.1717340     0.0000060
  H       -1.9567890     0.5320990     0.0000450
  H        1.7301120    -0.6777840     0.0000950
units angstrom
no_reorient  #important for SAPT in psi4, default
symmetry c1  #important for SAPT in psi4, default
}

set PROPERTIES_ORIGIN ["COM"]
properties('MP2/aug-cc-pvtz', properties = ['dipole'])
--------------------------------------------------------------------------

    Molecular point group: c1
  Charge       = 0
  Multiplicity = 1
  Basis Set: AUG-CC-PVTZ
    Blend: AUG-CC-PVTZ
  Basis Set: (AUG-CC-PVTZ AUX)
    Blend: AUG-CC-PVTZ-JKFIT

    Orbital Energies [Eh]
    ---------------------

    Doubly Occupied:

       1A    -20.629792     2A    -20.552334     3A    -15.575949
       4A    -11.418466     5A     -1.492860     6A     -1.399243
       7A     -1.179969     8A     -0.854054     9A     -0.737396
      10A     -0.723073    11A     -0.662639    12A     -0.661491
      13A     -0.619120    14A     -0.516804    15A     -0.478083
      16A     -0.423283

  @DF-RHF Final Energy:  -243.91428506486434

   => Energetics <=

    Nuclear Repulsion Energy =            123.2074025784050377
    One-Electron Energy =                -578.3942636634369592
    Two-Electron Energy =                 211.2725760201675769
    Total Energy =                       -243.9142850648643446
  Basis Set: (AUG-CC-PVTZ AUX)
    Blend: AUG-CC-PVTZ-RI
    Molecular point group: c1

    Geometry (in Angstrom), charge = 0, multiplicity = 1:

       Center              X                  Y                   Z               Mass
    ------------   -----------------  -----------------  -----------------  -----------------
         O            0.762802826660    -1.031770719455     0.000021833081    15.994914619570
         O            0.449731826660     1.231958280545     0.000056833081    15.994914619570
         N           -1.322394173340    -0.234504719455    -0.000066166919    14.003074004430
         C            0.089781126660     0.124069980545    -0.000040366919    12.000000000000
         H           -1.616182173340    -1.197964719455     0.000007833081     1.007825032230
         H           -2.004862173340     0.505868280545     0.000046833081     1.007825032230
         H            1.682038826660    -0.704014719455     0.000096833081     1.007825032230

  Basis Set: AUG-CC-PVTZ
    Blend: AUG-CC-PVTZ
  Basis Set: (AUG-CC-PVTZ AUX)
    Blend: AUG-CC-PVTZ-JKFIT
	 Reference Energy          =    -243.9142850648643446 [Eh]
	 Singles Energy            =      -0.0000000000000000 [Eh]
	 Same-Spin Energy          =      -0.2310662922121052 [Eh]
	 Opposite-Spin Energy      =      -0.6868051567072980 [Eh]
	 Correlation Energy        =      -0.9178714489194032 [Eh]
	 Total Energy              =    -244.8321565137837581 [Eh]

	 ================> DF-SCS-MP2 Energies <==================
	-----------------------------------------------------------
	 SCS Same-Spin Scale       =       0.3333333333333333 [-]
	 SCS Opposite-Spin Scale   =       1.2000000000000000 [-]
	 SCS Same-Spin Energy      =      -0.0770220974040351 [Eh]
	 SCS Opposite-Spin Energy  =      -0.8241661880487576 [Eh]
	 SCS Correlation Energy    =      -0.9011882854527927 [Eh]
	 SCS Total Energy          =    -244.8154733503171485 [Eh]
	-----------------------------------------------------------

  Dipole Moment: [D]
     X:    -0.5660      Y:    -1.6109      Z:     0.0003     Total:     1.7074

*** Psi4 exiting successfully. Buy a developer a beer!
