                               Psi4 1.3.2 release

  ==> Input File <==

--------------------------------------------------------------------------
#psi4
#
memory 32 gb

molecule  {
0 1
  O        0.8108760    -1.0055400     0.0000200
  O        0.4779706     1.2659901     0.0000558
  N       -1.2743210    -0.2082740    -0.0000680
  C        0.0409300     0.1256900    -0.0000440
  H       -1.5681090    -1.1717340     0.0000060
  H       -1.9567890     0.5320990     0.0000450
  H        1.7301120    -0.6777840     0.0000950
units angstrom
no_reorient  #important for SAPT in psi4, default
symmetry c1  #important for SAPT in psi4, default
}

set PROPERTIES_ORIGIN ["COM"]
properties('MP2/aug-cc-pvtz', properties = ['dipole'])
--------------------------------------------------------------------------

    Molecular point group: c1
  Charge       = 0
  Multiplicity = 1
  Basis Set: AUG-CC-PVTZ
    Blend: AUG-CC-PVTZ
  Basis Set: (AUG-CC-PVTZ AUX)
    Blend: AUG-CC-PVTZ-JKFIT

    Orbital Energies [Eh]
    ---------------------

    Doubly Occupied:

       1A    -20.618141     2A    -20.534968     3A    -15.597874
       4A    -11.416522     5A     -1.464701     6A     -1.355587
       7A     -1.224705     8A     -0.861776     9A     -0.759273
      10A     -0.706955    11A     -0.667912    12A     -0.646683
      13A     -0.606567    14A     -0.505485    15A     -0.463328
      16A     -0.434389

  @DF-RHF Final Energy:  -243.92554470218124

   => Energetics <=

    Nuclear Repulsion Energy =            122.9469700239046119
    One-Electron Energy =                -578.0152977071275018
    Two-Electron Energy =                 211.1427829810416483
    Total Energy =                       -243.9255447021812415
  Basis Set: (AUG-CC-PVTZ AUX)
    Blend: AUG-CC-PVTZ-RI
    Molecular point group: c1

    Geometry (in Angstrom), charge = 0, multiplicity = 1:

       Center              X                  Y                   Z               Mass
    ------------   -----------------  -----------------  -----------------  -----------------
         O            0.787064199996    -1.028975560578     0.000021977372    15.994914619570
         O            0.454158799996     1.242554539422     0.000057777372    15.994914619570
         N           -1.298132800004    -0.231709560578    -0.000066022628    14.003074004430
         C            0.017118199996     0.102254439422    -0.000042022628    12.000000000000
         H           -1.591920800004    -1.195169560578     0.000007977372     1.007825032230
         H           -1.980600800004     0.508663439422     0.000046977372     1.007825032230
         H            1.706300199996    -0.701219560578     0.000096977372     1.007825032230

  Basis Set: AUG-CC-PVTZ
    Blend: AUG-CC-PVTZ
  Basis Set: (AUG-CC-PVTZ AUX)
    Blend: AUG-CC-PVTZ-JKFIT
	 Reference Energy          =    -243.9255447021812415 [Eh]
	 Singles Energy            =      -0.0000000000000000 [Eh]
	 Same-Spin Energy          =      -0.2316513331838122 [Eh]
	 Opposite-Spin Energy      =      -0.6875675047731731 [Eh]
	 Correlation Energy        =      -0.9192188379569852 [Eh]
	 Total Energy              =    -244.8447635401382172 [Eh]

	 ================> DF-SCS-MP2 Energies <==================
	-----------------------------------------------------------
	 SCS Same-Spin Scale       =       0.3333333333333333 [-]
	 SCS Opposite-Spin Scale   =       1.2000000000000000 [-]
	 SCS Same-Spin Energy      =      -0.0772171110612707 [Eh]
	 SCS Opposite-Spin Energy  =      -0.8250810057278076 [Eh]
	 SCS Correlation Energy    =      -0.9022981167890783 [Eh]
	 SCS Total Energy          =    -244.8278428189703106 [Eh]
	-----------------------------------------------------------

  Dipole Moment: [D]
     X:    -1.5022      Y:    -1.9428      Z:     0.0002     Total:     2.4559

*** Psi4 exiting successfully. Buy a developer a beer!
