                               Psi4 1.4a3.dev225

  ==> Input File <==

--------------------------------------------------------------------------
#psi4
#
memory 32 gb

molecule  {
0 1
  O        0.8159840    -1.0007070     0.0023930
  O        0.4905240     1.2598000     0.0069300
  N       -1.2790880    -0.2165130    -0.0579370
  C        0.0408930     0.1252930    -0.0011690
  H       -1.5563394    -1.2074378     0.1944310
  H       -1.9348860     0.5218130     0.1496860
  H        1.7343390    -0.6700500     0.0057850
units angstrom
no_reorient  #important for SAPT in psi4, default
symmetry c1  #important for SAPT in psi4, default
}

set PROPERTIES_ORIGIN ["COM"]
properties('MP2/aug-cc-pvtz', properties = ['dipole'])
--------------------------------------------------------------------------

    Molecular point group: c1
  Charge       = 0
  Multiplicity = 1
  Basis Set: AUG-CC-PVTZ
    Blend: AUG-CC-PVTZ
  Basis Set: (AUG-CC-PVTZ AUX)
    Blend: AUG-CC-PVTZ-JKFIT

    Orbital Energies [Eh]
    ---------------------

    Doubly Occupied:

       1A    -20.617788     2A    -20.538001     3A    -15.603233
       4A    -11.417226     5A     -1.466033     6A     -1.356350
       7A     -1.219816     8A     -0.857465     9A     -0.745242
      10A     -0.706997    11A     -0.661247    12A     -0.646593
      13A     -0.606521    14A     -0.505940    15A     -0.465022
      16A     -0.438608

  @DF-RHF Final Energy:  -243.92187650430768

   => Energetics <=

    Nuclear Repulsion Energy =            122.6541633135721838
    One-Electron Energy =                -577.4479157281083417
    Two-Electron Energy =                 210.8718759102284537
    Total Energy =                       -243.9218765043076758
  Basis Set: (AUG-CC-PVTZ AUX)
    Blend: AUG-CC-PVTZ-RI
    Molecular point group: c1

    Geometry (in Angstrom), charge = 0, multiplicity = 1:

       Center              X                  Y                   Z               Mass
    ------------   -----------------  -----------------  -----------------  -----------------
         O            0.788017707321    -1.021186023610     0.007695896107    15.994914619570
         O            0.462557707321     1.239320976390     0.012232896107    15.994914619570
         N           -1.307054292679    -0.236992023610    -0.052634103893    14.003074004430
         C            0.012926707321     0.104813976390     0.004133896107    12.000000000000
         H           -1.584305692679    -1.227916823610     0.199733896107     1.007825032230
         H           -1.962852292679     0.501333976390     0.154988896107     1.007825032230
         H            1.706372707321    -0.690529023610     0.011087896107     1.007825032230

  Basis Set: AUG-CC-PVTZ
    Blend: AUG-CC-PVTZ
  Basis Set: (AUG-CC-PVTZ AUX)
    Blend: AUG-CC-PVTZ-JKFIT
	 Reference Energy          =    -243.9218765043076758 [Eh]
	 Singles Energy            =      -0.0000000000000000 [Eh]
	 Same-Spin Energy          =      -0.2318712072924394 [Eh]
	 Opposite-Spin Energy      =      -0.6885594695859196 [Eh]
	 Correlation Energy        =      -0.9204306768783590 [Eh]
	 Total Energy              =    -244.8423071811860439 [Eh]

	 ================> DF-SCS-MP2 Energies <==================
	-----------------------------------------------------------
	 SCS Same-Spin Scale       =       0.3333333333333333 [-]
	 SCS Opposite-Spin Scale   =       1.2000000000000000 [-]
	 SCS Same-Spin Energy      =      -0.0772904024308131 [Eh]
	 SCS Opposite-Spin Energy  =      -0.8262713635031035 [Eh]
	 SCS Correlation Energy    =      -0.9035617659339166 [Eh]
	 SCS Total Energy          =    -244.8254382702415910 [Eh]
	-----------------------------------------------------------

  Dipole Moment: [D]
     X:    -1.3802      Y:    -1.9121      Z:     0.6597     Total:     2.4487

*** Psi4 exiting successfully. Buy a developer a beer!
