                               Psi4 1.4a3.dev225

  ==> Input File <==

--------------------------------------------------------------------------
#psi4
#
memory 32 gb

molecule  {
0 1
  O        0.8159840    -1.0007070     0.0023930
  O        0.4905240     1.2598000     0.0069300
  N       -1.2790880    -0.2165130    -0.0579370
  C        0.0602376     0.1303023    -0.0003371
  H       -1.5432550    -1.1606730     0.1825210
  H       -1.9348860     0.5218130     0.1496860
  H        1.7343390    -0.6700500     0.0057850
units angstrom
no_reorient  #important for SAPT in psi4, default
symmetry c1  #important for SAPT in psi4, default
}

set PROPERTIES_ORIGIN ["COM"]
properties('MP2/aug-cc-pvtz', properties = ['dipole'])
--------------------------------------------------------------------------

    Molecular point group: c1
  Charge       = 0
  Multiplicity = 1
  Basis Set: AUG-CC-PVTZ
    Blend: AUG-CC-PVTZ
  Basis Set: (AUG-CC-PVTZ AUX)
    Blend: AUG-CC-PVTZ-JKFIT

    Orbital Energies [Eh]
    ---------------------

    Doubly Occupied:

       1A    -20.620846     2A    -20.541552     3A    -15.594919
       4A    -11.417693     5A     -1.472023     6A     -1.365547
       7A     -1.216965     8A     -0.858174     9A     -0.750925
      10A     -0.710288    11A     -0.664132    12A     -0.649705
      13A     -0.611435    14A     -0.507702    15A     -0.469456
      16A     -0.438674

  @DF-RHF Final Energy:  -243.92559528985279

   => Energetics <=

    Nuclear Repulsion Energy =            122.9421397525401858
    One-Electron Energy =                -577.9553990412796338
    Two-Electron Energy =                 211.0876639988866543
    Total Energy =                       -243.9255952898527937
  Basis Set: (AUG-CC-PVTZ AUX)
    Blend: AUG-CC-PVTZ-RI
    Molecular point group: c1

    Geometry (in Angstrom), charge = 0, multiplicity = 1:

       Center              X                  Y                   Z               Mass
    ------------   -----------------  -----------------  -----------------  -----------------
         O            0.783997114940    -1.022943622782     0.007729008465    15.994914619570
         O            0.458537114940     1.237563377218     0.012266008465    15.994914619570
         N           -1.311074885060    -0.238749622782    -0.052600991535    14.003074004430
         C            0.028250714940     0.108065677218     0.004998908465    12.000000000000
         H           -1.575241885060    -1.182909622782     0.187857008465     1.007825032230
         H           -1.966872885060     0.499576377218     0.155022008465     1.007825032230
         H            1.702352114940    -0.692286622782     0.011121008465     1.007825032230

  Basis Set: AUG-CC-PVTZ
    Blend: AUG-CC-PVTZ
  Basis Set: (AUG-CC-PVTZ AUX)
    Blend: AUG-CC-PVTZ-JKFIT
	 Reference Energy          =    -243.9255952898527937 [Eh]
	 Singles Energy            =      -0.0000000000000000 [Eh]
	 Same-Spin Energy          =      -0.2314044630991445 [Eh]
	 Opposite-Spin Energy      =      -0.6874862091483641 [Eh]
	 Correlation Energy        =      -0.9188906722475085 [Eh]
	 Total Energy              =    -244.8444859621002934 [Eh]

	 ================> DF-SCS-MP2 Energies <==================
	-----------------------------------------------------------
	 SCS Same-Spin Scale       =       0.3333333333333333 [-]
	 SCS Opposite-Spin Scale   =       1.2000000000000000 [-]
	 SCS Same-Spin Energy      =      -0.0771348210330482 [Eh]
	 SCS Opposite-Spin Energy  =      -0.8249834509780369 [Eh]
	 SCS Correlation Energy    =      -0.9021182720110851 [Eh]
	 SCS Total Energy          =    -244.8277135618638738 [Eh]
	-----------------------------------------------------------

  Dipole Moment: [D]
     X:    -1.1711      Y:    -1.8033      Z:     0.6544     Total:     2.2476

*** Psi4 exiting successfully. Buy a developer a beer!
