                               Psi4 1.3.2 release

  ==> Input File <==

--------------------------------------------------------------------------
#psi4
#
memory 32 gb

molecule  {
0 1
  O        0.8108760    -1.0055400     0.0000200
  O        0.4978050     1.2581890     0.0000550
  N       -1.2743210    -0.2082740    -0.0000680
  C       -0.0361051     0.0692257    -0.0000503
  H       -1.5681090    -1.1717340     0.0000060
  H       -1.9567890     0.5320990     0.0000450
  H        1.7301120    -0.6777840     0.0000950
units angstrom
no_reorient  #important for SAPT in psi4, default
symmetry c1  #important for SAPT in psi4, default
}

set PROPERTIES_ORIGIN ["COM"]
properties('MP2/aug-cc-pvtz', properties = ['dipole'])
--------------------------------------------------------------------------

    Molecular point group: c1
  Charge       = 0
  Multiplicity = 1
  Basis Set: AUG-CC-PVTZ
    Blend: AUG-CC-PVTZ
  Basis Set: (AUG-CC-PVTZ AUX)
    Blend: AUG-CC-PVTZ-JKFIT

    Orbital Energies [Eh]
    ---------------------

    Doubly Occupied:

       1A    -20.613895     2A    -20.512475     3A    -15.619280
       4A    -11.415091     5A     -1.454471     6A     -1.314285
       7A     -1.256416     8A     -0.881192     9A     -0.786519
      10A     -0.714186    11A     -0.669615    12A     -0.646413
      13A     -0.571017    14A     -0.508699    15A     -0.437247
      16A     -0.423018

  @DF-RHF Final Energy:  -243.90668693732854

   => Energetics <=

    Nuclear Repulsion Energy =            122.8650295242670865
    One-Electron Energy =                -577.8957922444998303
    Two-Electron Energy =                 211.1240757829042138
    Total Energy =                       -243.9066869373285442
  Basis Set: (AUG-CC-PVTZ AUX)
    Blend: AUG-CC-PVTZ-RI
    Molecular point group: c1

    Geometry (in Angstrom), charge = 0, multiplicity = 1:

       Center              X                  Y                   Z               Mass
    ------------   -----------------  -----------------  -----------------  -----------------
         O            0.797015162049    -1.015825820291     0.000023426096    15.994914619570
         O            0.483944162049     1.247903179709     0.000058426096    15.994914619570
         N           -1.288181837951    -0.218559820291    -0.000064573904    14.003074004430
         C           -0.049965937951     0.058939879709    -0.000046873904    12.000000000000
         H           -1.581969837951    -1.182019820291     0.000009426096     1.007825032230
         H           -1.970649837951     0.521813179709     0.000048426096     1.007825032230
         H            1.716251162049    -0.688069820291     0.000098426096     1.007825032230

  Basis Set: AUG-CC-PVTZ
    Blend: AUG-CC-PVTZ
  Basis Set: (AUG-CC-PVTZ AUX)
    Blend: AUG-CC-PVTZ-JKFIT
	 Reference Energy          =    -243.9066869373285442 [Eh]
	 Singles Energy            =      -0.0000000000000000 [Eh]
	 Same-Spin Energy          =      -0.2325008771489175 [Eh]
	 Opposite-Spin Energy      =      -0.6887064056182135 [Eh]
	 Correlation Energy        =      -0.9212072827671310 [Eh]
	 Total Energy              =    -244.8278942200956863 [Eh]

	 ================> DF-SCS-MP2 Energies <==================
	-----------------------------------------------------------
	 SCS Same-Spin Scale       =       0.3333333333333333 [-]
	 SCS Opposite-Spin Scale   =       1.2000000000000000 [-]
	 SCS Same-Spin Energy      =      -0.0775002923829725 [Eh]
	 SCS Opposite-Spin Energy  =      -0.8264476867418562 [Eh]
	 SCS Correlation Energy    =      -0.9039479791248287 [Eh]
	 SCS Total Energy          =    -244.8106349164533810 [Eh]
	-----------------------------------------------------------

  Dipole Moment: [D]
     X:    -2.3625      Y:    -2.4968      Z:     0.0002     Total:     3.4374

*** Psi4 exiting successfully. Buy a developer a beer!
