                               Psi4 1.4a3.dev225

  ==> Input File <==

--------------------------------------------------------------------------
#psi4
#
memory 32 gb

molecule  {
0 1
  O        0.8159840    -1.0007070     0.0023930
  O        0.4905240     1.2598000     0.0069300
  N       -1.2790880    -0.2165130    -0.0579370
  C        0.0125427     0.1664785    -0.0012993
  H       -1.5432550    -1.1606730     0.1825210
  H       -1.9348860     0.5218130     0.1496860
  H        1.7343390    -0.6700500     0.0057850
units angstrom
no_reorient  #important for SAPT in psi4, default
symmetry c1  #important for SAPT in psi4, default
}

set PROPERTIES_ORIGIN ["COM"]
properties('MP2/aug-cc-pvtz', properties = ['dipole'])
--------------------------------------------------------------------------

    Molecular point group: c1
  Charge       = 0
  Multiplicity = 1
  Basis Set: AUG-CC-PVTZ
    Blend: AUG-CC-PVTZ
  Basis Set: (AUG-CC-PVTZ AUX)
    Blend: AUG-CC-PVTZ-JKFIT

    Orbital Energies [Eh]
    ---------------------

    Doubly Occupied:

       1A    -20.603278     2A    -20.545299     3A    -15.602533
       4A    -11.415853     5A     -1.458257     6A     -1.358244
       7A     -1.235726     8A     -0.851013     9A     -0.761744
      10A     -0.701901    11A     -0.656538    12A     -0.642312
      13A     -0.613806    14A     -0.505571    15A     -0.469328
      16A     -0.447046

  @DF-RHF Final Energy:  -243.92285732783969

   => Energetics <=

    Nuclear Repulsion Energy =            122.8981379268313958
    One-Electron Energy =                -577.9050933689121621
    Two-Electron Energy =                 211.0840981142410726
    Total Energy =                       -243.9228573278396937
  Basis Set: (AUG-CC-PVTZ AUX)
    Blend: AUG-CC-PVTZ-RI
    Molecular point group: c1

    Geometry (in Angstrom), charge = 0, multiplicity = 1:

       Center              X                  Y                   Z               Mass
    ------------   -----------------  -----------------  -----------------  -----------------
         O            0.793377199690    -1.030058342007     0.007918242902    15.994914619570
         O            0.467917199690     1.230448657993     0.012455242902    15.994914619570
         N           -1.301694800310    -0.245864342007    -0.052411757098    14.003074004430
         C           -0.010064100310     0.137127157993     0.004225942902    12.000000000000
         H           -1.565861800310    -1.190024342007     0.188046242902     1.007825032230
         H           -1.957492800310     0.492461657993     0.155211242902     1.007825032230
         H            1.711732199690    -0.699401342007     0.011310242902     1.007825032230

  Basis Set: AUG-CC-PVTZ
    Blend: AUG-CC-PVTZ
  Basis Set: (AUG-CC-PVTZ AUX)
    Blend: AUG-CC-PVTZ-JKFIT
	 Reference Energy          =    -243.9228573278396937 [Eh]
	 Singles Energy            =      -0.0000000000000000 [Eh]
	 Same-Spin Energy          =      -0.2315378413456889 [Eh]
	 Opposite-Spin Energy      =      -0.6879237175301398 [Eh]
	 Correlation Energy        =      -0.9194615588758287 [Eh]
	 Total Energy              =    -244.8423188867155318 [Eh]

	 ================> DF-SCS-MP2 Energies <==================
	-----------------------------------------------------------
	 SCS Same-Spin Scale       =       0.3333333333333333 [-]
	 SCS Opposite-Spin Scale   =       1.2000000000000000 [-]
	 SCS Same-Spin Energy      =      -0.0771792804485630 [Eh]
	 SCS Opposite-Spin Energy  =      -0.8255084610361677 [Eh]
	 SCS Correlation Energy    =      -0.9026877414847306 [Eh]
	 SCS Total Energy          =    -244.8255450693244200 [Eh]
	-----------------------------------------------------------

  Dipole Moment: [D]
     X:    -1.6276      Y:    -1.4974      Z:     0.6472     Total:     2.3043

*** Psi4 exiting successfully. Buy a developer a beer!
