                               Psi4 1.3.2 release

  ==> Input File <==

--------------------------------------------------------------------------
#psi4
#
memory 32 gb

molecule  {
0 1
  O        0.8108760    -1.0055400     0.0000200
  O        0.5370503     1.2415544     0.0000533
  N       -1.2743210    -0.2082740    -0.0000680
  C        0.0409300     0.1256900    -0.0000440
  H       -1.5681090    -1.1717340     0.0000060
  H       -1.9567890     0.5320990     0.0000450
  H        1.7301120    -0.6777840     0.0000950
units angstrom
no_reorient  #important for SAPT in psi4, default
symmetry c1  #important for SAPT in psi4, default
}

set PROPERTIES_ORIGIN ["COM"]
properties('MP2/aug-cc-pvtz', properties = ['dipole'])
--------------------------------------------------------------------------

    Molecular point group: c1
  Charge       = 0
  Multiplicity = 1
  Basis Set: AUG-CC-PVTZ
    Blend: AUG-CC-PVTZ
  Basis Set: (AUG-CC-PVTZ AUX)
    Blend: AUG-CC-PVTZ-JKFIT

    Orbital Energies [Eh]
    ---------------------

    Doubly Occupied:

       1A    -20.612881     2A    -20.534986     3A    -15.601698
       4A    -11.416616     5A     -1.464191     6A     -1.351009
       7A     -1.228890     8A     -0.861538     9A     -0.760699
      10A     -0.706835    11A     -0.666861    12A     -0.645684
      13A     -0.606496    14A     -0.502721    15A     -0.462522
      16A     -0.437367

  @DF-RHF Final Energy:  -243.92552269692868

   => Energetics <=

    Nuclear Repulsion Energy =            122.9898274018003974
    One-Electron Energy =                -578.1087121319541211
    Two-Electron Energy =                 211.1933620332250143
    Total Energy =                       -243.9255226969286809
  Basis Set: (AUG-CC-PVTZ AUX)
    Blend: AUG-CC-PVTZ-RI
    Molecular point group: c1

    Geometry (in Angstrom), charge = 0, multiplicity = 1:

       Center              X                  Y                   Z               Mass
    ------------   -----------------  -----------------  -----------------  -----------------
         O            0.771576968814    -1.022569953660     0.000022632725    15.994914619570
         O            0.497751268814     1.224524446340     0.000055932725    15.994914619570
         N           -1.313620031186    -0.225303953660    -0.000065367275    14.003074004430
         C            0.001630968814     0.108660046340    -0.000041367275    12.000000000000
         H           -1.607408031186    -1.188763953660     0.000008632725     1.007825032230
         H           -1.996088031186     0.515069046340     0.000047632725     1.007825032230
         H            1.690812968814    -0.694813953660     0.000097632725     1.007825032230

  Basis Set: AUG-CC-PVTZ
    Blend: AUG-CC-PVTZ
  Basis Set: (AUG-CC-PVTZ AUX)
    Blend: AUG-CC-PVTZ-JKFIT
	 Reference Energy          =    -243.9255226969286809 [Eh]
	 Singles Energy            =      -0.0000000000000000 [Eh]
	 Same-Spin Energy          =      -0.2315877843876153 [Eh]
	 Opposite-Spin Energy      =      -0.6874023365701663 [Eh]
	 Correlation Energy        =      -0.9189901209577815 [Eh]
	 Total Energy              =    -244.8445128178864536 [Eh]

	 ================> DF-SCS-MP2 Energies <==================
	-----------------------------------------------------------
	 SCS Same-Spin Scale       =       0.3333333333333333 [-]
	 SCS Opposite-Spin Scale   =       1.2000000000000000 [-]
	 SCS Same-Spin Energy      =      -0.0771959281292051 [Eh]
	 SCS Opposite-Spin Energy  =      -0.8248828038841994 [Eh]
	 SCS Correlation Energy    =      -0.9020787320134045 [Eh]
	 SCS Total Energy          =    -244.8276014289420743 [Eh]
	-----------------------------------------------------------

  Dipole Moment: [D]
     X:    -1.6926      Y:    -1.8749      Z:     0.0002     Total:     2.5259

*** Psi4 exiting successfully. Buy a developer a beer!
