                               Psi4 1.3.2 release

  ==> Input File <==

--------------------------------------------------------------------------
#psi4
#
memory 32 gb

molecule  {
0 1
  O        0.8108760    -1.0055400     0.0000200
  O        0.4978050     1.2581890     0.0000550
  N       -1.2743210    -0.2082740    -0.0000680
  C       -0.0338950    -0.0597857    -0.0000602
  H       -1.5681090    -1.1717340     0.0000060
  H       -1.9567890     0.5320990     0.0000450
  H        1.7301120    -0.6777840     0.0000950
units angstrom
no_reorient  #important for SAPT in psi4, default
symmetry c1  #important for SAPT in psi4, default
}

set PROPERTIES_ORIGIN ["COM"]
properties('MP2/aug-cc-pvtz', properties = ['dipole'])
--------------------------------------------------------------------------

    Molecular point group: c1
  Charge       = 0
  Multiplicity = 1
  Basis Set: AUG-CC-PVTZ
    Blend: AUG-CC-PVTZ
  Basis Set: (AUG-CC-PVTZ AUX)
    Blend: AUG-CC-PVTZ-JKFIT

    Orbital Energies [Eh]
    ---------------------

    Doubly Occupied:

       1A    -20.639561     2A    -20.484914     3A    -15.626402
       4A    -11.414142     5A     -1.503887     6A     -1.313454
       7A     -1.205331     8A     -0.909912     9A     -0.798739
      10A     -0.752130    11A     -0.691172    12A     -0.672904
      13A     -0.516770    14A     -0.514849    15A     -0.406060
      16A     -0.391999

  @DF-RHF Final Energy:  -243.86426590046906

   => Energetics <=

    Nuclear Repulsion Energy =            123.0717989198961675
    One-Electron Energy =                -578.1876764793485108
    Two-Electron Energy =                 211.2516116589832507
    Total Energy =                       -243.8642659004690643
  Basis Set: (AUG-CC-PVTZ AUX)
    Blend: AUG-CC-PVTZ-RI
    Molecular point group: c1

    Geometry (in Angstrom), charge = 0, multiplicity = 1:

       Center              X                  Y                   Z               Mass
    ------------   -----------------  -----------------  -----------------  -----------------
         O            0.796580504982    -0.990453340931     0.000025373114    15.994914619570
         O            0.483509504982     1.273275659069     0.000060373114    15.994914619570
         N           -1.288616495018    -0.193187340931    -0.000062626886    14.003074004430
         C           -0.048190495018    -0.044699040931    -0.000054826886    12.000000000000
         H           -1.582404495018    -1.156647340931     0.000011373114     1.007825032230
         H           -1.971084495018     0.547185659069     0.000050373114     1.007825032230
         H            1.715816504982    -0.662697340931     0.000100373114     1.007825032230

  Basis Set: AUG-CC-PVTZ
    Blend: AUG-CC-PVTZ
  Basis Set: (AUG-CC-PVTZ AUX)
    Blend: AUG-CC-PVTZ-JKFIT
	 Reference Energy          =    -243.8642659004690643 [Eh]
	 Singles Energy            =      -0.0000000000000000 [Eh]
	 Same-Spin Energy          =      -0.2330467514139565 [Eh]
	 Opposite-Spin Energy      =      -0.6893651300190820 [Eh]
	 Correlation Energy        =      -0.9224118814330384 [Eh]
	 Total Energy              =    -244.7866777819021138 [Eh]

	 ================> DF-SCS-MP2 Energies <==================
	-----------------------------------------------------------
	 SCS Same-Spin Scale       =       0.3333333333333333 [-]
	 SCS Opposite-Spin Scale   =       1.2000000000000000 [-]
	 SCS Same-Spin Energy      =      -0.0776822504713188 [Eh]
	 SCS Opposite-Spin Energy  =      -0.8272381560228983 [Eh]
	 SCS Correlation Energy    =      -0.9049204064942171 [Eh]
	 SCS Total Energy          =    -244.7691863069632916 [Eh]
	-----------------------------------------------------------

  Dipole Moment: [D]
     X:    -2.3883      Y:    -3.6215      Z:     0.0001     Total:     4.3381

*** Psi4 exiting successfully. Buy a developer a beer!
