                               Psi4 1.3.2 release

  ==> Input File <==

--------------------------------------------------------------------------
#psi4
#
memory 32 gb

molecule  {
0 1
  O        0.8108760    -1.0055400     0.0000200
  O        0.4978050     1.2581890     0.0000550
  N       -1.2743210    -0.2082740    -0.0000680
  C       -0.0716029     0.2910271    -0.0000534
  H       -1.5681090    -1.1717340     0.0000060
  H       -1.9567890     0.5320990     0.0000450
  H        1.7301120    -0.6777840     0.0000950
units angstrom
no_reorient  #important for SAPT in psi4, default
symmetry c1  #important for SAPT in psi4, default
}

set PROPERTIES_ORIGIN ["COM"]
properties('MP2/aug-cc-pvtz', properties = ['dipole'])
--------------------------------------------------------------------------

    Molecular point group: c1
  Charge       = 0
  Multiplicity = 1
  Basis Set: AUG-CC-PVTZ
    Blend: AUG-CC-PVTZ
  Basis Set: (AUG-CC-PVTZ AUX)
    Blend: AUG-CC-PVTZ-JKFIT

    Orbital Energies [Eh]
    ---------------------

    Doubly Occupied:

       1A    -20.566804     2A    -20.552112     3A    -15.614874
       4A    -11.415017     5A     -1.490564     6A     -1.320462
       7A     -1.255573     8A     -0.849912     9A     -0.776163
      10A     -0.714426    11A     -0.655732    12A     -0.636932
      13A     -0.604165    14A     -0.481033    15A     -0.463613
      16A     -0.454011

  @DF-RHF Final Energy:  -243.88399490670272

   => Energetics <=

    Nuclear Repulsion Energy =            123.0598384486494439
    One-Electron Energy =                -578.1848797669546229
    Two-Electron Energy =                 211.2410464116024684
    Total Energy =                       -243.8839949067027248
  Basis Set: (AUG-CC-PVTZ AUX)
    Blend: AUG-CC-PVTZ-RI
    Molecular point group: c1

    Geometry (in Angstrom), charge = 0, multiplicity = 1:

       Center              X                  Y                   Z               Mass
    ------------   -----------------  -----------------  -----------------  -----------------
         O            0.803996461358    -1.059447170367     0.000024035769    15.994914619570
         O            0.490925461358     1.204281829633     0.000059035769    15.994914619570
         N           -1.281200538642    -0.262181170367    -0.000063964231    14.003074004430
         C           -0.078482438642     0.237119929633    -0.000049364231    12.000000000000
         H           -1.574988538642    -1.225641170367     0.000010035769     1.007825032230
         H           -1.963668538642     0.478191829633     0.000049035769     1.007825032230
         H            1.723232461358    -0.731691170367     0.000099035769     1.007825032230

  Basis Set: AUG-CC-PVTZ
    Blend: AUG-CC-PVTZ
  Basis Set: (AUG-CC-PVTZ AUX)
    Blend: AUG-CC-PVTZ-JKFIT
	 Reference Energy          =    -243.8839949067027248 [Eh]
	 Singles Energy            =      -0.0000000000000000 [Eh]
	 Same-Spin Energy          =      -0.2322912263464417 [Eh]
	 Opposite-Spin Energy      =      -0.6898775443610572 [Eh]
	 Correlation Energy        =      -0.9221687707074988 [Eh]
	 Total Energy              =    -244.8061636774102112 [Eh]

	 ================> DF-SCS-MP2 Energies <==================
	-----------------------------------------------------------
	 SCS Same-Spin Scale       =       0.3333333333333333 [-]
	 SCS Opposite-Spin Scale   =       1.2000000000000000 [-]
	 SCS Same-Spin Energy      =      -0.0774304087821472 [Eh]
	 SCS Opposite-Spin Energy  =      -0.8278530532332686 [Eh]
	 SCS Correlation Energy    =      -0.9052834620154159 [Eh]
	 SCS Total Energy          =    -244.7892783687181293 [Eh]
	-----------------------------------------------------------

  Dipole Moment: [D]
     X:    -2.6305      Y:    -0.3727      Z:     0.0002     Total:     2.6567

*** Psi4 exiting successfully. Buy a developer a beer!
