                               Psi4 1.4a3.dev225

  ==> Input File <==

--------------------------------------------------------------------------
#psi4
#
memory 32 gb

molecule  {
0 1
  O        0.8159840    -1.0007070     0.0023930
  O        0.4905240     1.2598000     0.0069300
  N       -1.2790880    -0.2165130    -0.0579370
  C        0.0593147     0.1717745    -0.0008372
  H       -1.5432550    -1.1606730     0.1825210
  H       -1.9348860     0.5218130     0.1496860
  H        1.7343390    -0.6700500     0.0057850
units angstrom
no_reorient  #important for SAPT in psi4, default
symmetry c1  #important for SAPT in psi4, default
}

set PROPERTIES_ORIGIN ["COM"]
properties('MP2/aug-cc-pvtz', properties = ['dipole'])
--------------------------------------------------------------------------

    Molecular point group: c1
  Charge       = 0
  Multiplicity = 1
  Basis Set: AUG-CC-PVTZ
    Blend: AUG-CC-PVTZ
  Basis Set: (AUG-CC-PVTZ AUX)
    Blend: AUG-CC-PVTZ-JKFIT

    Orbital Energies [Eh]
    ---------------------

    Doubly Occupied:

       1A    -20.610934     2A    -20.551522     3A    -15.592378
       4A    -11.415682     5A     -1.473070     6A     -1.376497
       7A     -1.212937     8A     -0.846464     9A     -0.750349
      10A     -0.709322    11A     -0.656984    12A     -0.648556
      13A     -0.619866    14A     -0.510736    15A     -0.477049
      16A     -0.441950

  @DF-RHF Final Energy:  -243.92279502321003

   => Energetics <=

    Nuclear Repulsion Energy =            123.0140494283419770
    One-Electron Energy =                -578.0851003204639937
    Two-Electron Energy =                 211.1482558689119742
    Total Energy =                       -243.9227950232100284
  Basis Set: (AUG-CC-PVTZ AUX)
    Blend: AUG-CC-PVTZ-RI
    Molecular point group: c1

    Geometry (in Angstrom), charge = 0, multiplicity = 1:

       Center              X                  Y                   Z               Mass
    ------------   -----------------  -----------------  -----------------  -----------------
         O            0.784178620305    -1.031099898417     0.007827362385    15.994914619570
         O            0.458718620305     1.229407101583     0.012364362385    15.994914619570
         N           -1.310893379695    -0.246905898417    -0.052502637615    14.003074004430
         C            0.027509320305     0.141381601583     0.004597162385    12.000000000000
         H           -1.575060379695    -1.191065898417     0.187955362385     1.007825032230
         H           -1.966691379695     0.491420101583     0.155120362385     1.007825032230
         H            1.702533620305    -0.700442898417     0.011219362385     1.007825032230

  Basis Set: AUG-CC-PVTZ
    Blend: AUG-CC-PVTZ
  Basis Set: (AUG-CC-PVTZ AUX)
    Blend: AUG-CC-PVTZ-JKFIT
	 Reference Energy          =    -243.9227950232100284 [Eh]
	 Singles Energy            =      -0.0000000000000000 [Eh]
	 Same-Spin Energy          =      -0.2310606861012126 [Eh]
	 Opposite-Spin Energy      =      -0.6871492699967052 [Eh]
	 Correlation Energy        =      -0.9182099560979178 [Eh]
	 Total Energy              =    -244.8410049793079395 [Eh]

	 ================> DF-SCS-MP2 Energies <==================
	-----------------------------------------------------------
	 SCS Same-Spin Scale       =       0.3333333333333333 [-]
	 SCS Opposite-Spin Scale   =       1.2000000000000000 [-]
	 SCS Same-Spin Energy      =      -0.0770202287004042 [Eh]
	 SCS Opposite-Spin Energy  =      -0.8245791239960463 [Eh]
	 SCS Correlation Energy    =      -0.9015993526964504 [Eh]
	 SCS Total Energy          =    -244.8243943759064791 [Eh]
	-----------------------------------------------------------

  Dipole Moment: [D]
     X:    -1.1607      Y:    -1.4117      Z:     0.6572     Total:     1.9422

*** Psi4 exiting successfully. Buy a developer a beer!
