                               Psi4 1.3.2 release

  ==> Input File <==

--------------------------------------------------------------------------
#psi4
#
memory 32 gb

molecule  {
0 1
  O        0.8108760    -1.0055400     0.0000200
  O        0.4580030     1.2734438     0.0000565
  N       -1.2743210    -0.2082740    -0.0000680
  C        0.0409300     0.1256900    -0.0000440
  H       -1.5681090    -1.1717340     0.0000060
  H       -1.9567890     0.5320990     0.0000450
  H        1.7301120    -0.6777840     0.0000950
units angstrom
no_reorient  #important for SAPT in psi4, default
symmetry c1  #important for SAPT in psi4, default
}

set PROPERTIES_ORIGIN ["COM"]
properties('MP2/aug-cc-pvtz', properties = ['dipole'])
--------------------------------------------------------------------------

    Molecular point group: c1
  Charge       = 0
  Multiplicity = 1
  Basis Set: AUG-CC-PVTZ
    Blend: AUG-CC-PVTZ
  Basis Set: (AUG-CC-PVTZ AUX)
    Blend: AUG-CC-PVTZ-JKFIT

    Orbital Energies [Eh]
    ---------------------

    Doubly Occupied:

       1A    -20.619850     2A    -20.534925     3A    -15.596576
       4A    -11.416505     5A     -1.464933     6A     -1.357062
       7A     -1.223258     8A     -0.861874     9A     -0.758784
      10A     -0.707005    11A     -0.668180    12A     -0.647037
      13A     -0.606596    14A     -0.506380    15A     -0.463445
      16A     -0.433348

  @DF-RHF Final Energy:  -243.92520014577050

   => Energetics <=

    Nuclear Repulsion Energy =            122.9405243114699289
    One-Electron Energy =                -577.9999277380645708
    Two-Electron Energy =                 211.1342032808241527
    Total Energy =                       -243.9252001457705035
  Basis Set: (AUG-CC-PVTZ AUX)
    Blend: AUG-CC-PVTZ-RI
    Molecular point group: c1

    Geometry (in Angstrom), charge = 0, multiplicity = 1:

       Center              X                  Y                   Z               Mass
    ------------   -----------------  -----------------  -----------------  -----------------
         O            0.792298533233    -1.030929483415     0.000021793873    15.994914619570
         O            0.439425533233     1.248054316585     0.000058293873    15.994914619570
         N           -1.292898466767    -0.233663483415    -0.000066206127    14.003074004430
         C            0.022352533233     0.100300516585    -0.000042206127    12.000000000000
         H           -1.586686466767    -1.197123483415     0.000007793873     1.007825032230
         H           -1.975366466767     0.506709516585     0.000046793873     1.007825032230
         H            1.711534533233    -0.703173483415     0.000096793873     1.007825032230

  Basis Set: AUG-CC-PVTZ
    Blend: AUG-CC-PVTZ
  Basis Set: (AUG-CC-PVTZ AUX)
    Blend: AUG-CC-PVTZ-JKFIT
	 Reference Energy          =    -243.9252001457705035 [Eh]
	 Singles Energy            =      -0.0000000000000000 [Eh]
	 Same-Spin Energy          =      -0.2316838033112608 [Eh]
	 Opposite-Spin Energy      =      -0.6876450356304598 [Eh]
	 Correlation Energy        =      -0.9193288389417206 [Eh]
	 Total Energy              =    -244.8445289847122126 [Eh]

	 ================> DF-SCS-MP2 Energies <==================
	-----------------------------------------------------------
	 SCS Same-Spin Scale       =       0.3333333333333333 [-]
	 SCS Opposite-Spin Scale   =       1.2000000000000000 [-]
	 SCS Same-Spin Energy      =      -0.0772279344370869 [Eh]
	 SCS Opposite-Spin Energy  =      -0.8251740427565517 [Eh]
	 SCS Correlation Energy    =      -0.9024019771936387 [Eh]
	 SCS Total Energy          =    -244.8276021229641515 [Eh]
	-----------------------------------------------------------

  Dipole Moment: [D]
     X:    -1.4380      Y:    -1.9634      Z:     0.0002     Total:     2.4337

*** Psi4 exiting successfully. Buy a developer a beer!
