                               Psi4 1.3.2 release

  ==> Input File <==

--------------------------------------------------------------------------
#psi4
#
memory 32 gb

molecule  {
0 1
  O        0.8108760    -1.0055400     0.0000200
  O        0.4978050     1.2581890     0.0000550
  N       -1.2743210    -0.2082740    -0.0000680
  C        0.0409300     0.1256900    -0.0000440
  H       -1.5681090    -1.1717340     0.0000060
  H       -1.9567890     0.5320990     0.0000450
  H        1.6359202    -0.7113683     0.0000873
units angstrom
no_reorient  #important for SAPT in psi4, default
symmetry c1  #important for SAPT in psi4, default
}

set PROPERTIES_ORIGIN ["COM"]
properties('MP2/aug-cc-pvtz', properties = ['dipole'])
--------------------------------------------------------------------------

    Molecular point group: c1
  Charge       = 0
  Multiplicity = 1
  Basis Set: AUG-CC-PVTZ
    Blend: AUG-CC-PVTZ
  Basis Set: (AUG-CC-PVTZ AUX)
    Blend: AUG-CC-PVTZ-JKFIT

    Orbital Energies [Eh]
    ---------------------

    Doubly Occupied:

       1A    -20.609308     2A    -20.536979     3A    -15.600245
       4A    -11.418703     5A     -1.482416     6A     -1.364359
       7A     -1.229343     8A     -0.879669     9A     -0.766061
      10A     -0.710297    11A     -0.679577    12A     -0.649852
      13A     -0.611892    14A     -0.508652    15A     -0.465376
      16A     -0.436521

  @DF-RHF Final Energy:  -243.92051662275176

   => Energetics <=

    Nuclear Repulsion Energy =            123.5778739391551824
    One-Electron Energy =                -579.0982814713695461
    Two-Electron Energy =                 211.5998909094625731
    Total Energy =                       -243.9205166227517623
  Basis Set: (AUG-CC-PVTZ AUX)
    Blend: AUG-CC-PVTZ-RI
    Molecular point group: c1

    Geometry (in Angstrom), charge = 0, multiplicity = 1:

       Center              X                  Y                   Z               Mass
    ------------   -----------------  -----------------  -----------------  -----------------
         O            0.783420576977    -1.026375848320     0.000022314268    15.994914619570
         O            0.470349576977     1.237353151680     0.000057314268    15.994914619570
         N           -1.301776423023    -0.229109848320    -0.000065685732    14.003074004430
         C            0.013474576977     0.104854151680    -0.000041685732    12.000000000000
         H           -1.595564423023    -1.192569848320     0.000008314268     1.007825032230
         H           -1.984244423023     0.511263151680     0.000047314268     1.007825032230
         H            1.608464776977    -0.732204148320     0.000089614268     1.007825032230

  Basis Set: AUG-CC-PVTZ
    Blend: AUG-CC-PVTZ
  Basis Set: (AUG-CC-PVTZ AUX)
    Blend: AUG-CC-PVTZ-JKFIT
	 Reference Energy          =    -243.9205166227517623 [Eh]
	 Singles Energy            =      -0.0000000000000000 [Eh]
	 Same-Spin Energy          =      -0.2304757441530271 [Eh]
	 Opposite-Spin Energy      =      -0.6848605531302506 [Eh]
	 Correlation Energy        =      -0.9153362972832777 [Eh]
	 Total Energy              =    -244.8358529200350517 [Eh]

	 ================> DF-SCS-MP2 Energies <==================
	-----------------------------------------------------------
	 SCS Same-Spin Scale       =       0.3333333333333333 [-]
	 SCS Opposite-Spin Scale   =       1.2000000000000000 [-]
	 SCS Same-Spin Energy      =      -0.0768252480510090 [Eh]
	 SCS Opposite-Spin Energy  =      -0.8218326637563007 [Eh]
	 SCS Correlation Energy    =      -0.8986579118073097 [Eh]
	 SCS Total Energy          =    -244.8191745345590675 [Eh]
	-----------------------------------------------------------

  Dipole Moment: [D]
     X:    -1.7083      Y:    -1.9259      Z:     0.0002     Total:     2.5744

*** Psi4 exiting successfully. Buy a developer a beer!
