                               Psi4 1.3.2 release

  ==> Input File <==

--------------------------------------------------------------------------
#psi4
#
memory 32 gb

molecule  {
0 1
  O        0.8108760    -1.0055400     0.0000200
  O        0.3769238     1.2997415     0.0000592
  N       -1.2743210    -0.2082740    -0.0000680
  C        0.0409300     0.1256900    -0.0000440
  H       -1.5681090    -1.1717340     0.0000060
  H       -1.9567890     0.5320990     0.0000450
  H        1.7301120    -0.6777840     0.0000950
units angstrom
no_reorient  #important for SAPT in psi4, default
symmetry c1  #important for SAPT in psi4, default
}

set PROPERTIES_ORIGIN ["COM"]
properties('MP2/aug-cc-pvtz', properties = ['dipole'])
--------------------------------------------------------------------------

    Molecular point group: c1
  Charge       = 0
  Multiplicity = 1
  Basis Set: AUG-CC-PVTZ
    Blend: AUG-CC-PVTZ
  Basis Set: (AUG-CC-PVTZ AUX)
    Blend: AUG-CC-PVTZ-JKFIT

    Orbital Energies [Eh]
    ---------------------

    Doubly Occupied:

       1A    -20.626482     2A    -20.534578     3A    -15.591261
       4A    -11.416517     5A     -1.466138     6A     -1.362757
       7A     -1.217198     8A     -0.862359     9A     -0.756767
      10A     -0.707286    11A     -0.668857    12A     -0.648553
      13A     -0.606699    14A     -0.509832    15A     -0.463172
      16A     -0.428945

  @DF-RHF Final Energy:  -243.92206333531735

   => Energetics <=

    Nuclear Repulsion Energy =            122.9538215690529910
    One-Electron Energy =                -578.0169671917867618
    Two-Electron Energy =                 211.1410822874164239
    Total Energy =                       -243.9220633353173469
  Basis Set: (AUG-CC-PVTZ AUX)
    Blend: AUG-CC-PVTZ-RI
    Molecular point group: c1

    Geometry (in Angstrom), charge = 0, multiplicity = 1:

       Center              X                  Y                   Z               Mass
    ------------   -----------------  -----------------  -----------------  -----------------
         O            0.813552742622    -1.037823197491     0.000021086091    15.994914619570
         O            0.379600542622     1.267458302509     0.000060286091    15.994914619570
         N           -1.271644257378    -0.240557197491    -0.000066913909    14.003074004430
         C            0.043606742622     0.093406802509    -0.000042913909    12.000000000000
         H           -1.565432257378    -1.204017197491     0.000007086091     1.007825032230
         H           -1.954112257378     0.499815802509     0.000046086091     1.007825032230
         H            1.732788742622    -0.710067197491     0.000096086091     1.007825032230

  Basis Set: AUG-CC-PVTZ
    Blend: AUG-CC-PVTZ
  Basis Set: (AUG-CC-PVTZ AUX)
    Blend: AUG-CC-PVTZ-JKFIT
	 Reference Energy          =    -243.9220633353173469 [Eh]
	 Singles Energy            =      -0.0000000000000000 [Eh]
	 Same-Spin Energy          =      -0.2318698214692723 [Eh]
	 Opposite-Spin Energy      =      -0.6880687967772633 [Eh]
	 Correlation Energy        =      -0.9199386182465357 [Eh]
	 Total Energy              =    -244.8420019535638801 [Eh]

	 ================> DF-SCS-MP2 Energies <==================
	-----------------------------------------------------------
	 SCS Same-Spin Scale       =       0.3333333333333333 [-]
	 SCS Opposite-Spin Scale   =       1.2000000000000000 [-]
	 SCS Same-Spin Energy      =      -0.0772899404897574 [Eh]
	 SCS Opposite-Spin Energy  =      -0.8256825561327159 [Eh]
	 SCS Correlation Energy    =      -0.9029724966224734 [Eh]
	 SCS Total Energy          =    -244.8250358319398288 [Eh]
	-----------------------------------------------------------

  Dipole Moment: [D]
     X:    -1.1780      Y:    -2.0350      Z:     0.0002     Total:     2.3513

*** Psi4 exiting successfully. Buy a developer a beer!
