                               Psi4 1.3.2 release

  ==> Input File <==

--------------------------------------------------------------------------
#psi4
#
memory 32 gb

molecule  {
0 1
  O        0.8305014    -0.9919303     0.0000200
  O        0.4978050     1.2581890     0.0000550
  N       -1.2743210    -0.2082740    -0.0000680
  C        0.0409300     0.1256900    -0.0000440
  H       -1.5681090    -1.1717340     0.0000060
  H       -1.9567890     0.5320990     0.0000450
  H        1.7301120    -0.6777840     0.0000950
units angstrom
no_reorient  #important for SAPT in psi4, default
symmetry c1  #important for SAPT in psi4, default
}

set PROPERTIES_ORIGIN ["COM"]
properties('MP2/aug-cc-pvtz', properties = ['dipole'])
--------------------------------------------------------------------------

    Molecular point group: c1
  Charge       = 0
  Multiplicity = 1
  Basis Set: AUG-CC-PVTZ
    Blend: AUG-CC-PVTZ
  Basis Set: (AUG-CC-PVTZ AUX)
    Blend: AUG-CC-PVTZ-JKFIT

    Orbital Energies [Eh]
    ---------------------

    Doubly Occupied:

       1A    -20.613697     2A    -20.533823     3A    -15.600533
       4A    -11.416834     5A     -1.466712     6A     -1.354496
       7A     -1.227576     8A     -0.866305     9A     -0.761853
      10A     -0.707058    11A     -0.671799    12A     -0.646327
      13A     -0.605566    14A     -0.504887    15A     -0.462182
      16A     -0.435547

  @DF-RHF Final Energy:  -243.92690562313066

   => Energetics <=

    Nuclear Repulsion Energy =            123.0321003298714260
    One-Electron Energy =                -578.1676228360419145
    Two-Electron Energy =                 211.2086168830398378
    Total Energy =                       -243.9269056231306649
  Basis Set: (AUG-CC-PVTZ AUX)
    Blend: AUG-CC-PVTZ-RI
    Molecular point group: c1

    Geometry (in Angstrom), charge = 0, multiplicity = 1:

       Center              X                  Y                   Z               Mass
    ------------   -----------------  -----------------  -----------------  -----------------
         O            0.796345555510    -1.016888534712     0.000022187085    15.994914619570
         O            0.463649155510     1.233230765288     0.000057187085    15.994914619570
         N           -1.308476844490    -0.233232234712    -0.000065812915    14.003074004430
         C            0.006774155510     0.100731765288    -0.000041812915    12.000000000000
         H           -1.602264844490    -1.196692234712     0.000008187085     1.007825032230
         H           -1.990944844490     0.507140765288     0.000047187085     1.007825032230
         H            1.695956155510    -0.702742234712     0.000097187085     1.007825032230

  Basis Set: AUG-CC-PVTZ
    Blend: AUG-CC-PVTZ
  Basis Set: (AUG-CC-PVTZ AUX)
    Blend: AUG-CC-PVTZ-JKFIT
	 Reference Energy          =    -243.9269056231306649 [Eh]
	 Singles Energy            =      -0.0000000000000000 [Eh]
	 Same-Spin Energy          =      -0.2312153458874581 [Eh]
	 Opposite-Spin Energy      =      -0.6865930665386918 [Eh]
	 Correlation Energy        =      -0.9178084124261499 [Eh]
	 Total Energy              =    -244.8447140355568195 [Eh]

	 ================> DF-SCS-MP2 Energies <==================
	-----------------------------------------------------------
	 SCS Same-Spin Scale       =       0.3333333333333333 [-]
	 SCS Opposite-Spin Scale   =       1.2000000000000000 [-]
	 SCS Same-Spin Energy      =      -0.0770717819624860 [Eh]
	 SCS Opposite-Spin Energy  =      -0.8239116798464301 [Eh]
	 SCS Correlation Energy    =      -0.9009834618089161 [Eh]
	 SCS Total Energy          =    -244.8278890849395850 [Eh]
	-----------------------------------------------------------

  Dipole Moment: [D]
     X:    -1.6141      Y:    -1.9384      Z:     0.0002     Total:     2.5224

*** Psi4 exiting successfully. Buy a developer a beer!
