                               Psi4 1.3.2 release

  ==> Input File <==

--------------------------------------------------------------------------
#psi4
#
memory 32 gb

molecule  {
0 1
  O        0.8108760    -1.0055400     0.0000200
  O        0.4978050     1.2581890     0.0000550
  N       -1.2743210    -0.2082740    -0.0000680
  C        0.0409300     0.1256900    -0.0000440
  H       -1.5681090    -1.1717340     0.0000060
  H       -1.9567890     0.5320990     0.0000450
  H        1.7301120    -0.6777840     0.0000950
units angstrom
no_reorient  #important for SAPT in psi4, default
symmetry c1  #important for SAPT in psi4, default
}

set PROPERTIES_ORIGIN ["COM"]
properties('MP2/aug-cc-pvtz', properties = ['dipole'])
--------------------------------------------------------------------------

    Molecular point group: c1
  Charge       = 0
  Multiplicity = 1
  Basis Set: AUG-CC-PVTZ
    Blend: AUG-CC-PVTZ
  Basis Set: (AUG-CC-PVTZ AUX)
    Blend: AUG-CC-PVTZ-JKFIT

    Orbital Energies [Eh]
    ---------------------

    Doubly Occupied:

       1A    -20.616410     2A    -20.534992     3A    -15.599161
       4A    -11.416546     5A     -1.464500     6A     -1.354088
       7A     -1.226126     8A     -0.861687     9A     -0.759755
      10A     -0.706910    11A     -0.667603    12A     -0.646339
      13A     -0.606539    14A     -0.504577    15A     -0.463136
      16A     -0.435406

  @DF-RHF Final Energy:  -243.92571367974665

   => Energetics <=

    Nuclear Repulsion Energy =            122.9573315997021297
    One-Electron Energy =                -578.0385422044861343
    Two-Electron Energy =                 211.1554969250373688
    Total Energy =                       -243.9257136797466501
  Basis Set: (AUG-CC-PVTZ AUX)
    Blend: AUG-CC-PVTZ-RI
    Molecular point group: c1

    Geometry (in Angstrom), charge = 0, multiplicity = 1:

       Center              X                  Y                   Z               Mass
    ------------   -----------------  -----------------  -----------------  -----------------
         O            0.781864783984    -1.026930569842     0.000022187085    15.994914619570
         O            0.468793783984     1.236798430158     0.000057187085    15.994914619570
         N           -1.303332216016    -0.229664569842    -0.000065812915    14.003074004430
         C            0.011918783984     0.104299430158    -0.000041812915    12.000000000000
         H           -1.597120216016    -1.193124569842     0.000008187085     1.007825032230
         H           -1.985800216016     0.510708430158     0.000047187085     1.007825032230
         H            1.701100783984    -0.699174569842     0.000097187085     1.007825032230

  Basis Set: AUG-CC-PVTZ
    Blend: AUG-CC-PVTZ
  Basis Set: (AUG-CC-PVTZ AUX)
    Blend: AUG-CC-PVTZ-JKFIT
	 Reference Energy          =    -243.9257136797466501 [Eh]
	 Singles Energy            =      -0.0000000000000000 [Eh]
	 Same-Spin Energy          =      -0.2316244869064589 [Eh]
	 Opposite-Spin Energy      =      -0.6875012330723500 [Eh]
	 Correlation Energy        =      -0.9191257199788089 [Eh]
	 Total Energy              =    -244.8448393997254584 [Eh]

	 ================> DF-SCS-MP2 Energies <==================
	-----------------------------------------------------------
	 SCS Same-Spin Scale       =       0.3333333333333333 [-]
	 SCS Opposite-Spin Scale   =       1.2000000000000000 [-]
	 SCS Same-Spin Energy      =      -0.0772081623021530 [Eh]
	 SCS Opposite-Spin Energy  =      -0.8250014796868200 [Eh]
	 SCS Correlation Energy    =      -0.9022096419889730 [Eh]
	 SCS Total Energy          =    -244.8279233217356250 [Eh]
	-----------------------------------------------------------

  Dipole Moment: [D]
     X:    -1.5661      Y:    -1.9212      Z:     0.0002     Total:     2.4786

*** Psi4 exiting successfully. Buy a developer a beer!
