                               Psi4 1.3.2 release

  ==> Input File <==

--------------------------------------------------------------------------
#psi4
#
memory 32 gb

molecule  {
0 1
  O        0.8498863    -0.9779802     0.0000200
  O        0.4978050     1.2581890     0.0000550
  N       -1.2743210    -0.2082740    -0.0000680
  C        0.0409300     0.1256900    -0.0000440
  H       -1.5681090    -1.1717340     0.0000060
  H       -1.9567890     0.5320990     0.0000450
  H        1.7301120    -0.6777840     0.0000950
units angstrom
no_reorient  #important for SAPT in psi4, default
symmetry c1  #important for SAPT in psi4, default
}

set PROPERTIES_ORIGIN ["COM"]
properties('MP2/aug-cc-pvtz', properties = ['dipole'])
--------------------------------------------------------------------------

    Molecular point group: c1
  Charge       = 0
  Multiplicity = 1
  Basis Set: AUG-CC-PVTZ
    Blend: AUG-CC-PVTZ
  Basis Set: (AUG-CC-PVTZ AUX)
    Blend: AUG-CC-PVTZ-JKFIT

    Orbital Energies [Eh]
    ---------------------

    Doubly Occupied:

       1A    -20.610833     2A    -20.532665     3A    -15.601915
       4A    -11.417193     5A     -1.469158     6A     -1.355024
       7A     -1.228980     8A     -0.871299     9A     -0.764047
      10A     -0.707477    11A     -0.675479    12A     -0.646340
      13A     -0.604416    14A     -0.505228    15A     -0.461192
      16A     -0.435658

  @DF-RHF Final Energy:  -243.92671222217933

   => Energetics <=

    Nuclear Repulsion Energy =            123.1155215943997945
    One-Electron Energy =                -578.3106592642782289
    Two-Electron Energy =                 211.2684254476990873
    Total Energy =                       -243.9267122221793329
  Basis Set: (AUG-CC-PVTZ AUX)
    Blend: AUG-CC-PVTZ-RI
    Molecular point group: c1

    Geometry (in Angstrom), charge = 0, multiplicity = 1:

       Center              X                  Y                   Z               Mass
    ------------   -----------------  -----------------  -----------------  -----------------
         O            0.810648872026    -1.006595332491     0.000022187085    15.994914619570
         O            0.458567572026     1.229573867509     0.000057187085    15.994914619570
         N           -1.313558427974    -0.236889132491    -0.000065812915    14.003074004430
         C            0.001692572026     0.097074867509    -0.000041812915    12.000000000000
         H           -1.607346427974    -1.200349132491     0.000008187085     1.007825032230
         H           -1.996026427974     0.503483867509     0.000047187085     1.007825032230
         H            1.690874572026    -0.706399132491     0.000097187085     1.007825032230

  Basis Set: AUG-CC-PVTZ
    Blend: AUG-CC-PVTZ
  Basis Set: (AUG-CC-PVTZ AUX)
    Blend: AUG-CC-PVTZ-JKFIT
	 Reference Energy          =    -243.9267122221793329 [Eh]
	 Singles Energy            =      -0.0000000000000000 [Eh]
	 Same-Spin Energy          =      -0.2308247964128004 [Eh]
	 Opposite-Spin Energy      =      -0.6857346865268971 [Eh]
	 Correlation Energy        =      -0.9165594829396975 [Eh]
	 Total Energy              =    -244.8432717051190366 [Eh]

	 ================> DF-SCS-MP2 Energies <==================
	-----------------------------------------------------------
	 SCS Same-Spin Scale       =       0.3333333333333333 [-]
	 SCS Opposite-Spin Scale   =       1.2000000000000000 [-]
	 SCS Same-Spin Energy      =      -0.0769415988042668 [Eh]
	 SCS Opposite-Spin Energy  =      -0.8228816238322765 [Eh]
	 SCS Correlation Energy    =      -0.8998232226365432 [Eh]
	 SCS Total Energy          =    -244.8265354448158746 [Eh]
	-----------------------------------------------------------

  Dipole Moment: [D]
     X:    -1.6633      Y:    -1.9555      Z:     0.0002     Total:     2.5672

*** Psi4 exiting successfully. Buy a developer a beer!
