                               Psi4 1.3.2 release

  ==> Input File <==

--------------------------------------------------------------------------
#psi4
#
memory 32 gb

molecule  {
0 1
  O        0.7709276    -1.0317216     0.0000199
  O        0.4978050     1.2581890     0.0000550
  N       -1.2743210    -0.2082740    -0.0000680
  C        0.0409300     0.1256900    -0.0000440
  H       -1.5681090    -1.1717340     0.0000060
  H       -1.9567890     0.5320990     0.0000450
  H        1.7301120    -0.6777840     0.0000950
units angstrom
no_reorient  #important for SAPT in psi4, default
symmetry c1  #important for SAPT in psi4, default
}

set PROPERTIES_ORIGIN ["COM"]
properties('MP2/aug-cc-pvtz', properties = ['dipole'])
--------------------------------------------------------------------------

    Molecular point group: c1
  Charge       = 0
  Multiplicity = 1
  Basis Set: AUG-CC-PVTZ
    Blend: AUG-CC-PVTZ
  Basis Set: (AUG-CC-PVTZ AUX)
    Blend: AUG-CC-PVTZ-JKFIT

    Orbital Energies [Eh]
    ---------------------

    Doubly Occupied:

       1A    -20.621378     2A    -20.537365     3A    -15.596447
       4A    -11.416175     5A     -1.460732     6A     -1.353630
       7A     -1.223097     8A     -0.853548     9A     -0.755861
      10A     -0.707089    11A     -0.658341    12A     -0.646444
      13A     -0.607723    14A     -0.504066    15A     -0.464940
      16A     -0.435035

  @DF-RHF Final Energy:  -243.91975536300001

   => Energetics <=

    Nuclear Repulsion Energy =            122.8331443051419711
    One-Electron Energy =                -577.8220608028972265
    Two-Electron Energy =                 211.0691611347552623
    Total Energy =                       -243.9197553630000073
  Basis Set: (AUG-CC-PVTZ AUX)
    Blend: AUG-CC-PVTZ-RI
    Molecular point group: c1

    Geometry (in Angstrom), charge = 0, multiplicity = 1:

       Center              X                  Y                   Z               Mass
    ------------   -----------------  -----------------  -----------------  -----------------
         O            0.752388510724    -1.046248890375     0.000022113299    15.994914619570
         O            0.479265910724     1.243661709625     0.000057213299    15.994914619570
         N           -1.292860089276    -0.222801290375    -0.000065786701    14.003074004430
         C            0.022390910724     0.111162709625    -0.000041786701    12.000000000000
         H           -1.586648089276    -1.186261290375     0.000008213299     1.007825032230
         H           -1.975328089276     0.517571709625     0.000047213299     1.007825032230
         H            1.711572910724    -0.692311290375     0.000097213299     1.007825032230

  Basis Set: AUG-CC-PVTZ
    Blend: AUG-CC-PVTZ
  Basis Set: (AUG-CC-PVTZ AUX)
    Blend: AUG-CC-PVTZ-JKFIT
	 Reference Energy          =    -243.9197553630000073 [Eh]
	 Singles Energy            =      -0.0000000000000000 [Eh]
	 Same-Spin Energy          =      -0.2324934052016921 [Eh]
	 Opposite-Spin Energy      =      -0.6894627781834373 [Eh]
	 Correlation Energy        =      -0.9219561833851293 [Eh]
	 Total Energy              =    -244.8417115463851417 [Eh]

	 ================> DF-SCS-MP2 Energies <==================
	-----------------------------------------------------------
	 SCS Same-Spin Scale       =       0.3333333333333333 [-]
	 SCS Opposite-Spin Scale   =       1.2000000000000000 [-]
	 SCS Same-Spin Energy      =      -0.0774978017338974 [Eh]
	 SCS Opposite-Spin Energy  =      -0.8273553338201247 [Eh]
	 SCS Correlation Energy    =      -0.9048531355540220 [Eh]
	 SCS Total Energy          =    -244.8246084985540278 [Eh]
	-----------------------------------------------------------

  Dipole Moment: [D]
     X:    -1.4736      Y:    -1.8865      Z:     0.0002     Total:     2.3938

*** Psi4 exiting successfully. Buy a developer a beer!
