                               Psi4 1.4a3.dev225

  ==> Input File <==

--------------------------------------------------------------------------
#psi4
#
memory 32 gb

molecule  {
0 1
  O        0.8159840    -1.0007070     0.0023930
  O        0.4905240     1.2598000     0.0069300
  N       -1.2790880    -0.2165130    -0.0579370
  C        0.0408930     0.1252930    -0.0011690
  H       -1.5432550    -1.1606730     0.1825210
  H       -1.9348860     0.5218130     0.1496860
  H        1.7813823    -0.6531119     0.0059588
units angstrom
no_reorient  #important for SAPT in psi4, default
symmetry c1  #important for SAPT in psi4, default
}

set PROPERTIES_ORIGIN ["COM"]
properties('MP2/aug-cc-pvtz', properties = ['dipole'])
--------------------------------------------------------------------------

    Molecular point group: c1
  Charge       = 0
  Multiplicity = 1
  Basis Set: AUG-CC-PVTZ
    Blend: AUG-CC-PVTZ
  Basis Set: (AUG-CC-PVTZ AUX)
    Blend: AUG-CC-PVTZ-JKFIT

    Orbital Energies [Eh]
    ---------------------

    Doubly Occupied:

       1A    -20.620978     2A    -20.537287     3A    -15.598762
       4A    -11.416536     5A     -1.460119     6A     -1.351915
       7A     -1.224888     8A     -0.852179     9A     -0.753111
      10A     -0.705748    11A     -0.659578    12A     -0.645578
      13A     -0.604125    14A     -0.504618    15A     -0.464655
      16A     -0.439112

  @DF-RHF Final Energy:  -243.92055958010607

   => Energetics <=

    Nuclear Repulsion Energy =            122.6242164363013813
    One-Electron Energy =                -577.4111766803954424
    Two-Electron Energy =                 210.8664006639880029
    Total Energy =                       -243.9205595801060724
  Basis Set: (AUG-CC-PVTZ AUX)
    Blend: AUG-CC-PVTZ-RI
    Molecular point group: c1

    Geometry (in Angstrom), charge = 0, multiplicity = 1:

       Center              X                  Y                   Z               Mass
    ------------   -----------------  -----------------  -----------------  -----------------
         O            0.787024560844    -1.022238222691     0.007889746291    15.994914619570
         O            0.461564560844     1.238268777309     0.012426746291    15.994914619570
         N           -1.308047439156    -0.238044222691    -0.052440253709    14.003074004430
         C            0.011933560844     0.103761777309     0.004327746291    12.000000000000
         H           -1.572214439156    -1.182204222691     0.188017746291     1.007825032230
         H           -1.963845439156     0.500281777309     0.155182746291     1.007825032230
         H            1.752422860844    -0.674643122691     0.011455546291     1.007825032230

  Basis Set: AUG-CC-PVTZ
    Blend: AUG-CC-PVTZ
  Basis Set: (AUG-CC-PVTZ AUX)
    Blend: AUG-CC-PVTZ-JKFIT
	 Reference Energy          =    -243.9205595801060724 [Eh]
	 Singles Energy            =      -0.0000000000000000 [Eh]
	 Same-Spin Energy          =      -0.2321624027631676 [Eh]
	 Opposite-Spin Energy      =      -0.6891806098301625 [Eh]
	 Correlation Energy        =      -0.9213430125933302 [Eh]
	 Total Energy              =    -244.8419025926993982 [Eh]

	 ================> DF-SCS-MP2 Energies <==================
	-----------------------------------------------------------
	 SCS Same-Spin Scale       =       0.3333333333333333 [-]
	 SCS Opposite-Spin Scale   =       1.2000000000000000 [-]
	 SCS Same-Spin Energy      =      -0.0773874675877225 [Eh]
	 SCS Opposite-Spin Energy  =      -0.8270167317961949 [Eh]
	 SCS Correlation Energy    =      -0.9044041993839175 [Eh]
	 SCS Total Energy          =    -244.8249637794899911 [Eh]
	-----------------------------------------------------------

  Dipole Moment: [D]
     X:    -1.2939      Y:    -1.8574      Z:     0.6492     Total:     2.3549

*** Psi4 exiting successfully. Buy a developer a beer!
