                               Psi4 1.3.2 release

  ==> Input File <==

--------------------------------------------------------------------------
#psi4
#
memory 32 gb

molecule  {
0 1
  O        0.8108760    -1.0055400     0.0000200
  O        0.4978050     1.2581890     0.0000550
  N       -1.2743210    -0.2082740    -0.0000680
  C        0.0409300     0.1256900    -0.0000440
  H       -1.6672086    -1.1357469     0.0000238
  H       -1.9567890     0.5320990     0.0000450
  H        1.7301120    -0.6777840     0.0000950
units angstrom
no_reorient  #important for SAPT in psi4, default
symmetry c1  #important for SAPT in psi4, default
}

set PROPERTIES_ORIGIN ["COM"]
properties('MP2/aug-cc-pvtz', properties = ['dipole'])
--------------------------------------------------------------------------

    Molecular point group: c1
  Charge       = 0
  Multiplicity = 1
  Basis Set: AUG-CC-PVTZ
    Blend: AUG-CC-PVTZ
  Basis Set: (AUG-CC-PVTZ AUX)
    Blend: AUG-CC-PVTZ-JKFIT

    Orbital Energies [Eh]
    ---------------------

    Doubly Occupied:

       1A    -20.615753     2A    -20.536052     3A    -15.599024
       4A    -11.418907     5A     -1.464067     6A     -1.354436
       7A     -1.225298     8A     -0.866531     9A     -0.759021
      10A     -0.706213    11A     -0.661417    12A     -0.646138
      13A     -0.607289    14A     -0.504325    15A     -0.464427
      16A     -0.435625

  @DF-RHF Final Energy:  -243.92408294810181

   => Energetics <=

    Nuclear Repulsion Energy =            122.8370407450849484
    One-Electron Energy =                -577.7932029721569052
    Two-Electron Energy =                 211.0320792789701443
    Total Energy =                       -243.9240829481018125
  Basis Set: (AUG-CC-PVTZ AUX)
    Blend: AUG-CC-PVTZ-RI
    Molecular point group: c1

    Geometry (in Angstrom), charge = 0, multiplicity = 1:

       Center              X                  Y                   Z               Mass
    ------------   -----------------  -----------------  -----------------  -----------------
         O            0.783501640518    -1.027524979101     0.000021893077    15.994914619570
         O            0.470430640518     1.236204020899     0.000056893077    15.994914619570
         N           -1.301695359482    -0.230258979101    -0.000066106923    14.003074004430
         C            0.013555640518     0.103705020899    -0.000042106923    12.000000000000
         H           -1.694582959482    -1.157731879101     0.000025693077     1.007825032230
         H           -1.984163359482     0.510114020899     0.000046893077     1.007825032230
         H            1.702737640518    -0.699768979101     0.000096893077     1.007825032230

  Basis Set: AUG-CC-PVTZ
    Blend: AUG-CC-PVTZ
  Basis Set: (AUG-CC-PVTZ AUX)
    Blend: AUG-CC-PVTZ-JKFIT
	 Reference Energy          =    -243.9240829481018125 [Eh]
	 Singles Energy            =      -0.0000000000000000 [Eh]
	 Same-Spin Energy          =      -0.2316828800218389 [Eh]
	 Opposite-Spin Energy      =      -0.6877299137083008 [Eh]
	 Correlation Energy        =      -0.9194127937301397 [Eh]
	 Total Energy              =    -244.8434957418319584 [Eh]

	 ================> DF-SCS-MP2 Energies <==================
	-----------------------------------------------------------
	 SCS Same-Spin Scale       =       0.3333333333333333 [-]
	 SCS Opposite-Spin Scale   =       1.2000000000000000 [-]
	 SCS Same-Spin Energy      =      -0.0772276266739463 [Eh]
	 SCS Opposite-Spin Energy  =      -0.8252758964499610 [Eh]
	 SCS Correlation Energy    =      -0.9025035231239074 [Eh]
	 SCS Total Energy          =    -244.8265864712257098 [Eh]
	-----------------------------------------------------------

  Dipole Moment: [D]
     X:    -1.6365      Y:    -1.8938      Z:     0.0002     Total:     2.5029

*** Psi4 exiting successfully. Buy a developer a beer!
