                               Psi4 1.4a3.dev225

  ==> Input File <==

--------------------------------------------------------------------------
#psi4
#
memory 32 gb

molecule  {
0 1
  O        0.8159840    -1.0007070     0.0023930
  O        0.4905240     1.2598000     0.0069300
  N       -1.2790880    -0.2165130    -0.0579370
  C        0.0408930     0.1252930    -0.0011690
  H       -1.5432550    -1.1606730     0.1825210
  H       -1.9348860     0.5218130     0.1496860
  H        1.7155217    -0.6768252     0.0057155
units angstrom
no_reorient  #important for SAPT in psi4, default
symmetry c1  #important for SAPT in psi4, default
}

set PROPERTIES_ORIGIN ["COM"]
properties('MP2/aug-cc-pvtz', properties = ['dipole'])
--------------------------------------------------------------------------

    Molecular point group: c1
  Charge       = 0
  Multiplicity = 1
  Basis Set: AUG-CC-PVTZ
    Blend: AUG-CC-PVTZ
  Basis Set: (AUG-CC-PVTZ AUX)
    Blend: AUG-CC-PVTZ-JKFIT

    Orbital Energies [Eh]
    ---------------------

    Doubly Occupied:

       1A    -20.617041     2A    -20.538656     3A    -15.599467
       4A    -11.418021     5A     -1.469659     6A     -1.358696
       7A     -1.227023     8A     -0.863285     9A     -0.757375
      10A     -0.708176    11A     -0.667891    12A     -0.647947
      13A     -0.608764    14A     -0.507324    15A     -0.466225
      16A     -0.439893

  @DF-RHF Final Energy:  -243.92634337075017

   => Energetics <=

    Nuclear Repulsion Energy =            123.0135094150154202
    One-Electron Energy =                -578.0888202343561488
    Two-Electron Energy =                 211.1489674485905823
    Total Energy =                       -243.9263433707501747
  Basis Set: (AUG-CC-PVTZ AUX)
    Blend: AUG-CC-PVTZ-RI
    Molecular point group: c1

    Geometry (in Angstrom), charge = 0, multiplicity = 1:

       Center              X                  Y                   Z               Mass
    ------------   -----------------  -----------------  -----------------  -----------------
         O            0.788112399275    -1.021846543309     0.007893764947    15.994914619570
         O            0.462652399275     1.238660456691     0.012430764947    15.994914619570
         N           -1.306959600725    -0.237652543309    -0.052436235053    14.003074004430
         C            0.013021399275     0.104153456691     0.004331764947    12.000000000000
         H           -1.571126600725    -1.181812543309     0.188021764947     1.007825032230
         H           -1.962757600725     0.500673456691     0.155186764947     1.007825032230
         H            1.687650099275    -0.697964743309     0.011216264947     1.007825032230

  Basis Set: AUG-CC-PVTZ
    Blend: AUG-CC-PVTZ
  Basis Set: (AUG-CC-PVTZ AUX)
    Blend: AUG-CC-PVTZ-JKFIT
	 Reference Energy          =    -243.9263433707501747 [Eh]
	 Singles Energy            =      -0.0000000000000000 [Eh]
	 Same-Spin Energy          =      -0.2313511289660614 [Eh]
	 Opposite-Spin Energy      =      -0.6871929846795575 [Eh]
	 Correlation Energy        =      -0.9185441136456188 [Eh]
	 Total Energy              =    -244.8448874843957981 [Eh]

	 ================> DF-SCS-MP2 Energies <==================
	-----------------------------------------------------------
	 SCS Same-Spin Scale       =       0.3333333333333333 [-]
	 SCS Opposite-Spin Scale   =       1.2000000000000000 [-]
	 SCS Same-Spin Energy      =      -0.0771170429886871 [Eh]
	 SCS Opposite-Spin Energy  =      -0.8246315816154689 [Eh]
	 SCS Correlation Energy    =      -0.9017486246041561 [Eh]
	 SCS Total Energy          =    -244.8280919953543275 [Eh]
	-----------------------------------------------------------

  Dipole Moment: [D]
     X:    -1.3928      Y:    -1.8648      Z:     0.6489     Total:     2.4163

*** Psi4 exiting successfully. Buy a developer a beer!
