                               Psi4 1.3.2 release

  ==> Input File <==

--------------------------------------------------------------------------
#psi4
#
memory 32 gb

molecule  {
0 1
  O        0.8108760    -1.0055400     0.0000200
  O        0.4978050     1.2581890     0.0000550
  N       -1.2743210    -0.2082740    -0.0000680
  C        0.0409300     0.1256900    -0.0000440
  H       -1.5681090    -1.1717340     0.0000060
  H       -1.9567890     0.5320990     0.0000450
  H        1.8243038    -0.6441997     0.0001027
units angstrom
no_reorient  #important for SAPT in psi4, default
symmetry c1  #important for SAPT in psi4, default
}

set PROPERTIES_ORIGIN ["COM"]
properties('MP2/aug-cc-pvtz', properties = ['dipole'])
--------------------------------------------------------------------------

    Molecular point group: c1
  Charge       = 0
  Multiplicity = 1
  Basis Set: AUG-CC-PVTZ
    Blend: AUG-CC-PVTZ
  Basis Set: (AUG-CC-PVTZ AUX)
    Blend: AUG-CC-PVTZ-JKFIT

    Orbital Energies [Eh]
    ---------------------

    Doubly Occupied:

       1A    -20.621302     2A    -20.533107     3A    -15.598155
       4A    -11.414466     5A     -1.452553     6A     -1.344900
       7A     -1.223132     8A     -0.848077     9A     -0.753866
      10A     -0.703679    11A     -0.654502    12A     -0.643119
      13A     -0.599266    14A     -0.500818    15A     -0.460885
      16A     -0.434327

  @DF-RHF Final Energy:  -243.91267282275805

   => Energetics <=

    Nuclear Repulsion Energy =            122.4303497065616853
    One-Electron Energy =                -577.1137406446159730
    Two-Electron Energy =                 210.7707181152962335
    Total Energy =                       -243.9126728227580543
  Basis Set: (AUG-CC-PVTZ AUX)
    Blend: AUG-CC-PVTZ-RI
    Molecular point group: c1

    Geometry (in Angstrom), charge = 0, multiplicity = 1:

       Center              X                  Y                   Z               Mass
    ------------   -----------------  -----------------  -----------------  -----------------
         O            0.780308990991    -1.027485291363     0.000022059901    15.994914619570
         O            0.467237990991     1.236243708637     0.000057059901    15.994914619570
         N           -1.304888009009    -0.230219291363    -0.000065940099    14.003074004430
         C            0.010362990991     0.103744708637    -0.000041940099    12.000000000000
         H           -1.598676009009    -1.193679291363     0.000008059901     1.007825032230
         H           -1.987356009009     0.510153708637     0.000047059901     1.007825032230
         H            1.793736790991    -0.666144991363     0.000104759901     1.007825032230

  Basis Set: AUG-CC-PVTZ
    Blend: AUG-CC-PVTZ
  Basis Set: (AUG-CC-PVTZ AUX)
    Blend: AUG-CC-PVTZ-JKFIT
	 Reference Energy          =    -243.9126728227580543 [Eh]
	 Singles Energy            =      -0.0000000000000000 [Eh]
	 Same-Spin Energy          =      -0.2327734512641778 [Eh]
	 Opposite-Spin Energy      =      -0.6904289791722995 [Eh]
	 Correlation Energy        =      -0.9232024304364773 [Eh]
	 Total Energy              =    -244.8358752531945299 [Eh]

	 ================> DF-SCS-MP2 Energies <==================
	-----------------------------------------------------------
	 SCS Same-Spin Scale       =       0.3333333333333333 [-]
	 SCS Opposite-Spin Scale   =       1.2000000000000000 [-]
	 SCS Same-Spin Energy      =      -0.0775911504213926 [Eh]
	 SCS Opposite-Spin Energy  =      -0.8285147750067594 [Eh]
	 SCS Correlation Energy    =      -0.9061059254281520 [Eh]
	 SCS Total Energy          =    -244.8187787481862188 [Eh]
	-----------------------------------------------------------

  Dipole Moment: [D]
     X:    -1.4251      Y:    -1.9077      Z:     0.0002     Total:     2.3813

*** Psi4 exiting successfully. Buy a developer a beer!
