                               Psi4 1.3.2 release

  ==> Input File <==

--------------------------------------------------------------------------
#psi4
#
memory 32 gb

molecule  {
0 1
  O        0.8108760    -1.0055400     0.0000200
  O        0.4978050     1.2581890     0.0000550
  N       -1.2743210    -0.2082740    -0.0000680
  C        0.0409300     0.1256900    -0.0000440
  H       -1.5972761    -1.2673859     0.0000133
  H       -1.9567890     0.5320990     0.0000450
  H        1.7301120    -0.6777840     0.0000950
units angstrom
no_reorient  #important for SAPT in psi4, default
symmetry c1  #important for SAPT in psi4, default
}

set PROPERTIES_ORIGIN ["COM"]
properties('MP2/aug-cc-pvtz', properties = ['dipole'])
--------------------------------------------------------------------------

    Molecular point group: c1
  Charge       = 0
  Multiplicity = 1
  Basis Set: AUG-CC-PVTZ
    Blend: AUG-CC-PVTZ
  Basis Set: (AUG-CC-PVTZ AUX)
    Blend: AUG-CC-PVTZ-JKFIT

    Orbital Energies [Eh]
    ---------------------

    Doubly Occupied:

       1A    -20.615375     2A    -20.534325     3A    -15.606433
       4A    -11.415741     5A     -1.463200     6A     -1.353277
       7A     -1.214013     8A     -0.856888     9A     -0.737971
      10A     -0.705855    11A     -0.658394    12A     -0.645184
      13A     -0.604266    14A     -0.503418    15A     -0.461530
      16A     -0.433142

  @DF-RHF Final Energy:  -243.91512399572645

   => Energetics <=

    Nuclear Repulsion Energy =            122.4843198996161391
    One-Electron Energy =                -577.1808622902506158
    Two-Electron Energy =                 210.7814183949080302
    Total Energy =                       -243.9151239957264465
  Basis Set: (AUG-CC-PVTZ AUX)
    Blend: AUG-CC-PVTZ-RI
    Molecular point group: c1

    Geometry (in Angstrom), charge = 0, multiplicity = 1:

       Center              X                  Y                   Z               Mass
    ------------   -----------------  -----------------  -----------------  -----------------
         O            0.782346545345    -1.025350659958     0.000022066508    15.994914619570
         O            0.469275545345     1.238378340042     0.000057066508    15.994914619570
         N           -1.302850454655    -0.228084659958    -0.000065933492    14.003074004430
         C            0.012400545345     0.105879340042    -0.000041933492    12.000000000000
         H           -1.625805554655    -1.287196559958     0.000015366508     1.007825032230
         H           -1.985318454655     0.512288340042     0.000047066508     1.007825032230
         H            1.701582545345    -0.697594659958     0.000097066508     1.007825032230

  Basis Set: AUG-CC-PVTZ
    Blend: AUG-CC-PVTZ
  Basis Set: (AUG-CC-PVTZ AUX)
    Blend: AUG-CC-PVTZ-JKFIT
	 Reference Energy          =    -243.9151239957264465 [Eh]
	 Singles Energy            =      -0.0000000000000000 [Eh]
	 Same-Spin Energy          =      -0.2322319984091832 [Eh]
	 Opposite-Spin Energy      =      -0.6892078702497875 [Eh]
	 Correlation Energy        =      -0.9214398686589707 [Eh]
	 Total Energy              =    -244.8365638643854254 [Eh]

	 ================> DF-SCS-MP2 Energies <==================
	-----------------------------------------------------------
	 SCS Same-Spin Scale       =       0.3333333333333333 [-]
	 SCS Opposite-Spin Scale   =       1.2000000000000000 [-]
	 SCS Same-Spin Energy      =      -0.0774106661363944 [Eh]
	 SCS Opposite-Spin Energy  =      -0.8270494442997449 [Eh]
	 SCS Correlation Energy    =      -0.9044601104361394 [Eh]
	 SCS Total Energy          =    -244.8195841061625799 [Eh]
	-----------------------------------------------------------

  Dipole Moment: [D]
     X:    -1.6054      Y:    -2.0311      Z:     0.0002     Total:     2.5890

*** Psi4 exiting successfully. Buy a developer a beer!
