                               Psi4 1.3.2 release

  ==> Input File <==

--------------------------------------------------------------------------
#psi4
#
memory 32 gb

molecule  {
0 1
  O        0.8108760    -1.0055400     0.0000200
  O        0.4978050     1.2581890     0.0000550
  N       -1.2743210    -0.2082740    -0.0000680
  C        0.0409300     0.1256900    -0.0000440
  H       -1.6015543    -1.1608940     0.0000120
  H       -1.9567890     0.5320990     0.0000450
  H        1.7301120    -0.6777840     0.0000950
units angstrom
no_reorient  #important for SAPT in psi4, default
symmetry c1  #important for SAPT in psi4, default
}

set PROPERTIES_ORIGIN ["COM"]
properties('MP2/aug-cc-pvtz', properties = ['dipole'])
--------------------------------------------------------------------------

    Molecular point group: c1
  Charge       = 0
  Multiplicity = 1
  Basis Set: AUG-CC-PVTZ
    Blend: AUG-CC-PVTZ
  Basis Set: (AUG-CC-PVTZ AUX)
    Blend: AUG-CC-PVTZ-JKFIT

    Orbital Energies [Eh]
    ---------------------

    Doubly Occupied:

       1A    -20.616164     2A    -20.535348     3A    -15.599133
       4A    -11.417310     5A     -1.464325     6A     -1.354195
       7A     -1.225805     8A     -0.863186     9A     -0.759554
      10A     -0.706681    11A     -0.665682    12A     -0.646251
      13A     -0.606795    14A     -0.504479    15A     -0.463576
      16A     -0.435485

  @DF-RHF Final Energy:  -243.92547056716978

   => Energetics <=

    Nuclear Repulsion Energy =            122.9150456189040170
    One-Electron Energy =                -577.9530957146947685
    Two-Electron Energy =                 211.1125795286209836
    Total Energy =                       -243.9254705671697820
  Basis Set: (AUG-CC-PVTZ AUX)
    Blend: AUG-CC-PVTZ-RI
    Molecular point group: c1

    Geometry (in Angstrom), charge = 0, multiplicity = 1:

       Center              X                  Y                   Z               Mass
    ------------   -----------------  -----------------  -----------------  -----------------
         O            0.782417209602    -1.027109617233     0.000022087981    15.994914619570
         O            0.469346209602     1.236619382767     0.000057087981    15.994914619570
         N           -1.302779790398    -0.229843617233    -0.000065912019    14.003074004430
         C            0.012471209602     0.104120382767    -0.000041912019    12.000000000000
         H           -1.630013090398    -1.182463617233     0.000014087981     1.007825032230
         H           -1.985247790398     0.510529382767     0.000047087981     1.007825032230
         H            1.701653209602    -0.699353617233     0.000097087981     1.007825032230

  Basis Set: AUG-CC-PVTZ
    Blend: AUG-CC-PVTZ
  Basis Set: (AUG-CC-PVTZ AUX)
    Blend: AUG-CC-PVTZ-JKFIT
	 Reference Energy          =    -243.9254705671697820 [Eh]
	 Singles Energy            =      -0.0000000000000000 [Eh]
	 Same-Spin Energy          =      -0.2316295708938937 [Eh]
	 Opposite-Spin Energy      =      -0.6875524164352367 [Eh]
	 Correlation Energy        =      -0.9191819873291304 [Eh]
	 Total Energy              =    -244.8446525544989072 [Eh]

	 ================> DF-SCS-MP2 Energies <==================
	-----------------------------------------------------------
	 SCS Same-Spin Scale       =       0.3333333333333333 [-]
	 SCS Opposite-Spin Scale   =       1.2000000000000000 [-]
	 SCS Same-Spin Energy      =      -0.0772098569646312 [Eh]
	 SCS Opposite-Spin Energy  =      -0.8250628997222840 [Eh]
	 SCS Correlation Energy    =      -0.9022727566869152 [Eh]
	 SCS Total Energy          =    -244.8277433238567085 [Eh]
	-----------------------------------------------------------

  Dipole Moment: [D]
     X:    -1.5900      Y:    -1.9136      Z:     0.0002     Total:     2.4880

*** Psi4 exiting successfully. Buy a developer a beer!
