                               Psi4 1.3.2 release

  ==> Input File <==

--------------------------------------------------------------------------
#psi4
#
memory 32 gb

molecule  {
0 1
  O        0.7300898    -1.0564931     0.0000075
  O        0.4978050     1.2581890     0.0000550
  N       -1.2743210    -0.2082740    -0.0000680
  C        0.0409300     0.1256900    -0.0000440
  H       -1.5681090    -1.1717340     0.0000060
  H       -1.9567890     0.5320990     0.0000450
  H        1.7301120    -0.6777840     0.0000950
units angstrom
no_reorient  #important for SAPT in psi4, default
symmetry c1  #important for SAPT in psi4, default
}

set PROPERTIES_ORIGIN ["COM"]
properties('MP2/aug-cc-pvtz', properties = ['dipole'])
--------------------------------------------------------------------------

    Molecular point group: c1
  Charge       = 0
  Multiplicity = 1
  Basis Set: AUG-CC-PVTZ
    Blend: AUG-CC-PVTZ
  Basis Set: (AUG-CC-PVTZ AUX)
    Blend: AUG-CC-PVTZ-JKFIT

    Orbital Energies [Eh]
    ---------------------

    Doubly Occupied:

       1A    -20.625753     2A    -20.539783     3A    -15.593775
       4A    -11.416056     5A     -1.457765     6A     -1.353640
       7A     -1.219904     8A     -0.846777     9A     -0.752382
      10A     -0.707523    11A     -0.649217    12A     -0.646665
      13A     -0.607189    14A     -0.503714    15A     -0.466615
      16A     -0.434539

  @DF-RHF Final Energy:  -243.90985874715926

   => Energetics <=

    Nuclear Repulsion Energy =            122.7417854117181975
    One-Electron Energy =                -577.6606954155379299
    Two-Electron Energy =                 211.0090512566604843
    Total Energy =                       -243.9098587471592623
  Basis Set: (AUG-CC-PVTZ AUX)
    Blend: AUG-CC-PVTZ-RI
    Molecular point group: c1

    Geometry (in Angstrom), charge = 0, multiplicity = 1:

       Center              X                  Y                   Z               Mass
    ------------   -----------------  -----------------  -----------------  -----------------
         O            0.722255985963    -1.064526756399     0.000012963851    15.994914619570
         O            0.489971185963     1.250155343601     0.000060463851    15.994914619570
         N           -1.282154814037    -0.216307656399    -0.000062536149    14.003074004430
         C            0.033096185963     0.117656343601    -0.000038536149    12.000000000000
         H           -1.575942814037    -1.179767656399     0.000011463851     1.007825032230
         H           -1.964622814037     0.524065343601     0.000050463851     1.007825032230
         H            1.722278185963    -0.685817656399     0.000100463851     1.007825032230

  Basis Set: AUG-CC-PVTZ
    Blend: AUG-CC-PVTZ
  Basis Set: (AUG-CC-PVTZ AUX)
    Blend: AUG-CC-PVTZ-JKFIT
	 Reference Energy          =    -243.9098587471592623 [Eh]
	 Singles Energy            =      -0.0000000000000000 [Eh]
	 Same-Spin Energy          =      -0.2334234429952605 [Eh]
	 Opposite-Spin Energy      =      -0.6916126591319365 [Eh]
	 Correlation Energy        =      -0.9250361021271970 [Eh]
	 Total Energy              =    -244.8348948492864565 [Eh]

	 ================> DF-SCS-MP2 Energies <==================
	-----------------------------------------------------------
	 SCS Same-Spin Scale       =       0.3333333333333333 [-]
	 SCS Opposite-Spin Scale   =       1.2000000000000000 [-]
	 SCS Same-Spin Energy      =      -0.0778078143317535 [Eh]
	 SCS Opposite-Spin Energy  =      -0.8299351909583238 [Eh]
	 SCS Correlation Energy    =      -0.9077430052900773 [Eh]
	 SCS Total Energy          =    -244.8176017524493489 [Eh]
	-----------------------------------------------------------

  Dipole Moment: [D]
     X:    -1.3860      Y:    -1.8512      Z:     0.0002     Total:     2.3125

*** Psi4 exiting successfully. Buy a developer a beer!
