                               Psi4 1.3.2 release

  ==> Input File <==

--------------------------------------------------------------------------
#psi4
#
memory 32 gb

molecule  {
0 1
  O        0.8108760    -1.0055400     0.0000200
  O        0.4978050     1.2581890     0.0000550
  N       -1.2743210    -0.2082740    -0.0000680
  C        0.0409300     0.1256900    -0.0000440
  H       -1.5848789    -1.1664600     0.0000090
  H       -1.9567890     0.5320990     0.0000450
  H        1.7301120    -0.6777840     0.0000950
units angstrom
no_reorient  #important for SAPT in psi4, default
symmetry c1  #important for SAPT in psi4, default
}

set PROPERTIES_ORIGIN ["COM"]
properties('MP2/aug-cc-pvtz', properties = ['dipole'])
--------------------------------------------------------------------------

    Molecular point group: c1
  Charge       = 0
  Multiplicity = 1
  Basis Set: AUG-CC-PVTZ
    Blend: AUG-CC-PVTZ
  Basis Set: (AUG-CC-PVTZ AUX)
    Blend: AUG-CC-PVTZ-JKFIT

    Orbital Energies [Eh]
    ---------------------

    Doubly Occupied:

       1A    -20.616283     2A    -20.535170     3A    -15.599149
       4A    -11.416925     5A     -1.464408     6A     -1.354140
       7A     -1.225960     8A     -0.862420     9A     -0.759661
      10A     -0.706797    11A     -0.666660    12A     -0.646292
      13A     -0.606668    14A     -0.504526    15A     -0.463357
      16A     -0.435446

  @DF-RHF Final Energy:  -243.92563002794034

   => Energetics <=

    Nuclear Repulsion Energy =            122.9359087487826940
    One-Electron Energy =                -577.9953532772466360
    Two-Electron Energy =                 211.1338145005235845
    Total Energy =                       -243.9256300279403433
  Basis Set: (AUG-CC-PVTZ AUX)
    Blend: AUG-CC-PVTZ-RI
    Molecular point group: c1

    Geometry (in Angstrom), charge = 0, multiplicity = 1:

       Center              X                  Y                   Z               Mass
    ------------   -----------------  -----------------  -----------------  -----------------
         O            0.782141777235    -1.027017682013     0.000022137533    15.994914619570
         O            0.469070777235     1.236711317987     0.000057137533    15.994914619570
         N           -1.303055222765    -0.229751682013    -0.000065862467    14.003074004430
         C            0.012195777235     0.104212317987    -0.000041862467    12.000000000000
         H           -1.613613122765    -1.187937682013     0.000011137533     1.007825032230
         H           -1.985523222765     0.510621317987     0.000047137533     1.007825032230
         H            1.701377777235    -0.699261682013     0.000097137533     1.007825032230

  Basis Set: AUG-CC-PVTZ
    Blend: AUG-CC-PVTZ
  Basis Set: (AUG-CC-PVTZ AUX)
    Blend: AUG-CC-PVTZ-JKFIT
	 Reference Energy          =    -243.9256300279403433 [Eh]
	 Singles Energy            =      -0.0000000000000000 [Eh]
	 Same-Spin Energy          =      -0.2316251936804796 [Eh]
	 Opposite-Spin Energy      =      -0.6875236302246297 [Eh]
	 Correlation Energy        =      -0.9191488239051093 [Eh]
	 Total Energy              =    -244.8447788518454615 [Eh]

	 ================> DF-SCS-MP2 Energies <==================
	-----------------------------------------------------------
	 SCS Same-Spin Scale       =       0.3333333333333333 [-]
	 SCS Opposite-Spin Scale   =       1.2000000000000000 [-]
	 SCS Same-Spin Energy      =      -0.0772083978934932 [Eh]
	 SCS Opposite-Spin Energy  =      -0.8250283562695556 [Eh]
	 SCS Correlation Energy    =      -0.9022367541630488 [Eh]
	 SCS Total Energy          =    -244.8278667821033991 [Eh]
	-----------------------------------------------------------

  Dipole Moment: [D]
     X:    -1.5781      Y:    -1.9176      Z:     0.0002     Total:     2.4835

*** Psi4 exiting successfully. Buy a developer a beer!
