                               Psi4 1.3.2 release

  ==> Input File <==

--------------------------------------------------------------------------
#psi4
#
memory 32 gb

molecule  {
0 1
  O        0.9249039    -0.9188617     0.0000199
  O        0.4978050     1.2581890     0.0000550
  N       -1.2743210    -0.2082740    -0.0000680
  C        0.0409300     0.1256900    -0.0000440
  H       -1.5681090    -1.1717340     0.0000060
  H       -1.9567890     0.5320990     0.0000450
  H        1.7301120    -0.6777840     0.0000950
units angstrom
no_reorient  #important for SAPT in psi4, default
symmetry c1  #important for SAPT in psi4, default
}

set PROPERTIES_ORIGIN ["COM"]
properties('MP2/aug-cc-pvtz', properties = ['dipole'])
--------------------------------------------------------------------------

    Molecular point group: c1
  Charge       = 0
  Multiplicity = 1
  Basis Set: AUG-CC-PVTZ
    Blend: AUG-CC-PVTZ
  Basis Set: (AUG-CC-PVTZ AUX)
    Blend: AUG-CC-PVTZ-JKFIT

    Orbital Energies [Eh]
    ---------------------

    Doubly Occupied:

       1A    -20.597897     2A    -20.528132     3A    -15.607542
       4A    -11.419418     5A     -1.481460     6A     -1.358281
       7A     -1.234126     8A     -0.894907     9A     -0.773582
      10A     -0.713179    11A     -0.682858    12A     -0.646610
      13A     -0.598633    14A     -0.506857    15A     -0.456815
      16A     -0.435818

  @DF-RHF Final Energy:  -243.90856974380887

   => Energetics <=

    Nuclear Repulsion Energy =            123.5387690639117437
    One-Electron Energy =                -579.0224485364931297
    Two-Electron Energy =                 211.5751097287725315
    Total Energy =                       -243.9085697438088687
  Basis Set: (AUG-CC-PVTZ AUX)
    Blend: AUG-CC-PVTZ-RI
    Molecular point group: c1

    Geometry (in Angstrom), charge = 0, multiplicity = 1:

       Center              X                  Y                   Z               Mass
    ------------   -----------------  -----------------  -----------------  -----------------
         O            0.866001258528    -0.962974234757     0.000022113299    15.994914619570
         O            0.438902358528     1.214076465243     0.000057213299    15.994914619570
         N           -1.333223641472    -0.252386534757    -0.000065786701    14.003074004430
         C           -0.017972641472     0.081577465243    -0.000041786701    12.000000000000
         H           -1.627011641472    -1.215846534757     0.000008213299     1.007825032230
         H           -2.015691641472     0.487986465243     0.000047213299     1.007825032230
         H            1.671209358528    -0.721896534757     0.000097213299     1.007825032230

  Basis Set: AUG-CC-PVTZ
    Blend: AUG-CC-PVTZ
  Basis Set: (AUG-CC-PVTZ AUX)
    Blend: AUG-CC-PVTZ-JKFIT
	 Reference Energy          =    -243.9085697438088687 [Eh]
	 Singles Energy            =      -0.0000000000000000 [Eh]
	 Same-Spin Energy          =      -0.2294799271559489 [Eh]
	 Opposite-Spin Energy      =      -0.6828301326413617 [Eh]
	 Correlation Energy        =      -0.9123100597973106 [Eh]
	 Total Energy              =    -244.8208798036061751 [Eh]

	 ================> DF-SCS-MP2 Energies <==================
	-----------------------------------------------------------
	 SCS Same-Spin Scale       =       0.3333333333333333 [-]
	 SCS Opposite-Spin Scale   =       1.2000000000000000 [-]
	 SCS Same-Spin Energy      =      -0.0764933090519830 [Eh]
	 SCS Opposite-Spin Energy  =      -0.8193961591696340 [Eh]
	 SCS Correlation Energy    =      -0.8958894682216170 [Eh]
	 SCS Total Energy          =    -244.8044592120304799 [Eh]
	-----------------------------------------------------------

  Dipole Moment: [D]
     X:    -1.8706      Y:    -2.0241      Z:     0.0002     Total:     2.7561

*** Psi4 exiting successfully. Buy a developer a beer!
