                               Psi4 1.3.2 release

  ==> Input File <==

--------------------------------------------------------------------------
#psi4
#
memory 32 gb

molecule  {
0 1
  N       -2.7135790    -0.4632030    -0.3840900
  C       -0.4348490     0.2437790     0.1629790
  C       -1.9077720     0.5229750     0.3447380
  C        0.0419710    -1.0733410     0.1956580
  C        0.5016913     1.3039524     0.1877628
  C        1.4056430    -1.3329900     0.0574270
  C        1.8423760     1.0332520    -0.1440090
  C        2.3106710    -0.2811520    -0.1094010
  H       -2.1693300     0.4340790     1.4066040
  H       -2.1065270     1.5697560     0.0595480
  H       -0.6702630    -1.8854740     0.3139460
  H        0.1142300     2.3180440    -0.0466590
  H        1.7649670    -2.3594270     0.0823620
  H        2.5387490     1.8574450    -0.2810770
  H        3.3732230    -0.4857460    -0.2175780
  H       -2.5517210    -0.3499480    -1.3840470
  H       -3.7041130    -0.2797630    -0.2275250
units angstrom
no_reorient  #important for SAPT in psi4, default
symmetry c1  #important for SAPT in psi4, default
}

set PROPERTIES_ORIGIN ["COM"]
properties('MP2/aug-cc-pvtz', properties = ['dipole'])
--------------------------------------------------------------------------

    Molecular point group: c1
  Charge       = 0
  Multiplicity = 1
  Basis Set: AUG-CC-PVTZ
    Blend: AUG-CC-PVTZ
  Basis Set: (AUG-CC-PVTZ AUX)
    Blend: AUG-CC-PVTZ-JKFIT

    Orbital Energies [Eh]
    ---------------------

    Doubly Occupied:

       1A    -15.547160     2A    -11.258611     3A    -11.240242
       4A    -11.236470     5A    -11.234138     6A    -11.233996
       7A    -11.229988     8A    -11.225283     9A     -1.188636
      10A     -1.139028    11A     -1.022749    12A     -1.006842
      13A     -0.900325    14A     -0.820769    15A     -0.787896
      16A     -0.693890    17A     -0.661258    18A     -0.641975
      19A     -0.621762    20A     -0.583894    21A     -0.573442
      22A     -0.564396    23A     -0.547348    24A     -0.489515
      25A     -0.481439    26A     -0.480277    27A     -0.401845
      28A     -0.332353    29A     -0.321967

  @DF-RHF Final Energy:  -324.86129830809813

   => Energetics <=

    Nuclear Repulsion Energy =            340.5964941101876207
    One-Electron Energy =               -1113.9805916845634783
    Two-Electron Energy =                 448.5227992662776728
    Total Energy =                       -324.8612983080981280
  Basis Set: (AUG-CC-PVTZ AUX)
    Blend: AUG-CC-PVTZ-RI
    Molecular point group: c1

    Geometry (in Angstrom), charge = 0, multiplicity = 1:

       Center              X                  Y                   Z               Mass
    ------------   -----------------  -----------------  -----------------  -----------------
         N           -2.747955886604    -0.457009248445    -0.408995200916    14.003074004430
         C           -0.469225886604     0.249972751555     0.138073799084    12.000000000000
         C           -1.942148886604     0.529168751555     0.319832799084    12.000000000000
         C            0.007594113396    -1.067147248445     0.170752799084    12.000000000000
         C            0.467314413396     1.310146151555     0.162857599084    12.000000000000
         C            1.371266113396    -1.326796248445     0.032521799084    12.000000000000
         C            1.807999113396     1.039445751555    -0.168914200916    12.000000000000
         C            2.276294113396    -0.274958248445    -0.134306200916    12.000000000000
         H           -2.203706886604     0.440272751555     1.381698799084     1.007825032230
         H           -2.140903886604     1.575949751555     0.034642799084     1.007825032230
         H           -0.704639886604    -1.879280248445     0.289040799084     1.007825032230
         H            0.079853113396     2.324237751555    -0.071564200916     1.007825032230
         H            1.730590113396    -2.353233248445     0.057456799084     1.007825032230
         H            2.504372113396     1.863638751555    -0.305982200916     1.007825032230
         H            3.338846113396    -0.479552248445    -0.242483200916     1.007825032230
         H           -2.586097886604    -0.343754248445    -1.408952200916     1.007825032230
         H           -3.738489886604    -0.273569248445    -0.252430200916     1.007825032230

  Basis Set: AUG-CC-PVTZ
    Blend: AUG-CC-PVTZ
  Basis Set: (AUG-CC-PVTZ AUX)
    Blend: AUG-CC-PVTZ-JKFIT
	 Reference Energy          =    -324.8612983080981280 [Eh]
	 Singles Energy            =      -0.0000000000000000 [Eh]
	 Same-Spin Energy          =      -0.3584636276326810 [Eh]
	 Opposite-Spin Energy      =      -1.1518977288006993 [Eh]
	 Correlation Energy        =      -1.5103613564333802 [Eh]
	 Total Energy              =    -326.3716596645315349 [Eh]

	 ================> DF-SCS-MP2 Energies <==================
	-----------------------------------------------------------
	 SCS Same-Spin Scale       =       0.3333333333333333 [-]
	 SCS Opposite-Spin Scale   =       1.2000000000000000 [-]
	 SCS Same-Spin Energy      =      -0.1194878758775603 [Eh]
	 SCS Opposite-Spin Energy  =      -1.3822772745608392 [Eh]
	 SCS Correlation Energy    =      -1.5017651504383995 [Eh]
	 SCS Total Energy          =    -326.3630634585365442 [Eh]
	-----------------------------------------------------------

  Dipole Moment: [D]
     X:    -0.7359      Y:     0.9321      Z:    -0.4722     Total:     1.2780

*** Psi4 exiting successfully. Buy a developer a beer!
