                               Psi4 1.3.2 release

  ==> Input File <==

--------------------------------------------------------------------------
#psi4
#
memory 32 gb

molecule  {
0 1
  N       -2.7135790    -0.4632030    -0.3840900
  C       -0.4348490     0.2437790     0.1629790
  C       -1.9077720     0.5229750     0.3447380
  C        0.0419710    -1.0733410     0.1956580
  C        0.4953347     1.3008108     0.1382681
  C        1.4056430    -1.3329900     0.0574270
  C        1.8423760     1.0332520    -0.1440090
  C        2.3106710    -0.2811520    -0.1094010
  H       -2.1693300     0.4340790     1.4066040
  H       -2.1065270     1.5697560     0.0595480
  H       -0.6702630    -1.8854740     0.3139460
  H        0.1142300     2.3180440    -0.0466590
  H        1.7649670    -2.3594270     0.0823620
  H        2.5387490     1.8574450    -0.2810770
  H        3.3732230    -0.4857460    -0.2175780
  H       -2.5517210    -0.3499480    -1.3840470
  H       -3.7041130    -0.2797630    -0.2275250
units angstrom
no_reorient  #important for SAPT in psi4, default
symmetry c1  #important for SAPT in psi4, default
}

set PROPERTIES_ORIGIN ["COM"]
properties('MP2/aug-cc-pvtz', properties = ['dipole'])
--------------------------------------------------------------------------

    Molecular point group: c1
  Charge       = 0
  Multiplicity = 1
  Basis Set: AUG-CC-PVTZ
    Blend: AUG-CC-PVTZ
  Basis Set: (AUG-CC-PVTZ AUX)
    Blend: AUG-CC-PVTZ-JKFIT

    Orbital Energies [Eh]
    ---------------------

    Doubly Occupied:

       1A    -15.547011     2A    -11.258485     3A    -11.238669
       4A    -11.235062     5A    -11.233115     6A    -11.232715
       7A    -11.230098     8A    -11.225394     9A     -1.188572
      10A     -1.139425    11A     -1.022961    12A     -1.007352
      13A     -0.900405    14A     -0.821227    15A     -0.788755
      16A     -0.694514    17A     -0.661352    18A     -0.642595
      19A     -0.622193    20A     -0.584110    21A     -0.574261
      22A     -0.565659    23A     -0.546863    24A     -0.489235
      25A     -0.483418    26A     -0.480829    27A     -0.401697
      28A     -0.332201    29A     -0.322531

  @DF-RHF Final Energy:  -324.86684524813535

   => Energetics <=

    Nuclear Repulsion Energy =            340.8052955894105480
    One-Electron Energy =               -1114.4028740611449848
    Two-Electron Energy =                 448.7307332235990884
    Total Energy =                       -324.8668452481353484
  Basis Set: (AUG-CC-PVTZ AUX)
    Blend: AUG-CC-PVTZ-RI
    Molecular point group: c1

    Geometry (in Angstrom), charge = 0, multiplicity = 1:

       Center              X                  Y                   Z               Mass
    ------------   -----------------  -----------------  -----------------  -----------------
         N           -2.747243486239    -0.456657161325    -0.403448203723    14.003074004430
         C           -0.468513486239     0.250324838675     0.143620796277    12.000000000000
         C           -1.941436486239     0.529520838675     0.325379796277    12.000000000000
         C            0.008306513761    -1.066795161325     0.176299796277    12.000000000000
         C            0.461670213761     1.307356638675     0.118909896277    12.000000000000
         C            1.371978513761    -1.326444161325     0.038068796277    12.000000000000
         C            1.808711513761     1.039797838675    -0.163367203723    12.000000000000
         C            2.277006513761    -0.274606161325    -0.128759203723    12.000000000000
         H           -2.202994486239     0.440624838675     1.387245796277     1.007825032230
         H           -2.140191486239     1.576301838675     0.040189796277     1.007825032230
         H           -0.703927486239    -1.878928161325     0.294587796277     1.007825032230
         H            0.080565513761     2.324589838675    -0.066017203723     1.007825032230
         H            1.731302513761    -2.352881161325     0.063003796277     1.007825032230
         H            2.505084513761     1.863990838675    -0.300435203723     1.007825032230
         H            3.339558513761    -0.479200161325    -0.236936203723     1.007825032230
         H           -2.585385486239    -0.343402161325    -1.403405203723     1.007825032230
         H           -3.737777486239    -0.273217161325    -0.246883203723     1.007825032230

  Basis Set: AUG-CC-PVTZ
    Blend: AUG-CC-PVTZ
  Basis Set: (AUG-CC-PVTZ AUX)
    Blend: AUG-CC-PVTZ-JKFIT
	 Reference Energy          =    -324.8668452481353484 [Eh]
	 Singles Energy            =      -0.0000000000000000 [Eh]
	 Same-Spin Energy          =      -0.3582186428796327 [Eh]
	 Opposite-Spin Energy      =      -1.1511190746951017 [Eh]
	 Correlation Energy        =      -1.5093377175747342 [Eh]
	 Total Energy              =    -326.3761829657100861 [Eh]

	 ================> DF-SCS-MP2 Energies <==================
	-----------------------------------------------------------
	 SCS Same-Spin Scale       =       0.3333333333333333 [-]
	 SCS Opposite-Spin Scale   =       1.2000000000000000 [-]
	 SCS Same-Spin Energy      =      -0.1194062142932109 [Eh]
	 SCS Opposite-Spin Energy  =      -1.3813428896341220 [Eh]
	 SCS Correlation Energy    =      -1.5007491039273329 [Eh]
	 SCS Total Energy          =    -326.3675943520626674 [Eh]
	-----------------------------------------------------------

  Dipole Moment: [D]
     X:    -0.7400      Y:     0.9712      Z:    -0.4423     Total:     1.2986

*** Psi4 exiting successfully. Buy a developer a beer!
