                               Psi4 1.3.2 release

  ==> Input File <==

--------------------------------------------------------------------------
#psi4
#
memory 32 gb

molecule  {
0 1
  N       -2.7135790    -0.4632030    -0.3840900
  C       -0.4348490     0.2437790     0.1629790
  C       -1.9077720     0.5229750     0.3447380
  C        0.0419710    -1.0733410     0.1956580
  C        0.4889781     1.2976692     0.0887734
  C        1.4056430    -1.3329900     0.0574270
  C        1.8423760     1.0332520    -0.1440090
  C        2.3106710    -0.2811520    -0.1094010
  H       -2.1693300     0.4340790     1.4066040
  H       -2.1065270     1.5697560     0.0595480
  H       -0.6702630    -1.8854740     0.3139460
  H        0.1142300     2.3180440    -0.0466590
  H        1.7649670    -2.3594270     0.0823620
  H        2.5387490     1.8574450    -0.2810770
  H        3.3732230    -0.4857460    -0.2175780
  H       -2.5517210    -0.3499480    -1.3840470
  H       -3.7041130    -0.2797630    -0.2275250
units angstrom
no_reorient  #important for SAPT in psi4, default
symmetry c1  #important for SAPT in psi4, default
}

set PROPERTIES_ORIGIN ["COM"]
properties('MP2/aug-cc-pvtz', properties = ['dipole'])
--------------------------------------------------------------------------

    Molecular point group: c1
  Charge       = 0
  Multiplicity = 1
  Basis Set: AUG-CC-PVTZ
    Blend: AUG-CC-PVTZ
  Basis Set: (AUG-CC-PVTZ AUX)
    Blend: AUG-CC-PVTZ-JKFIT

    Orbital Energies [Eh]
    ---------------------

    Doubly Occupied:

       1A    -15.546891     2A    -11.258387     3A    -11.237521
       4A    -11.234073     5A    -11.232501     6A    -11.231695
       7A    -11.230170     8A    -11.225490     9A     -1.188526
      10A     -1.139701    11A     -1.023128    12A     -1.007690
      13A     -0.900465    14A     -0.821604    15A     -0.789412
      16A     -0.695021    17A     -0.661394    18A     -0.643062
      19A     -0.622517    20A     -0.584317    21A     -0.574864
      22A     -0.566665    23A     -0.546372    24A     -0.488877
      25A     -0.485237    26A     -0.480953    27A     -0.401571
      28A     -0.332083    29A     -0.323001

  @DF-RHF Final Energy:  -324.87079094766779

   => Energetics <=

    Nuclear Repulsion Energy =            340.9607336434583544
    One-Electron Energy =               -1114.7166754485710953
    Two-Electron Energy =                 448.8851508574450122
    Total Energy =                       -324.8707909476677855
  Basis Set: (AUG-CC-PVTZ AUX)
    Blend: AUG-CC-PVTZ-RI
    Molecular point group: c1

    Geometry (in Angstrom), charge = 0, multiplicity = 1:

       Center              X                  Y                   Z               Mass
    ------------   -----------------  -----------------  -----------------  -----------------
         N           -2.746531085874    -0.456305074205    -0.397901206530    14.003074004430
         C           -0.467801085874     0.250676925795     0.149167793470    12.000000000000
         C           -1.940724085874     0.529872925795     0.330926793470    12.000000000000
         C            0.009018914126    -1.066443074205     0.181846793470    12.000000000000
         C            0.456026014126     1.304567125795     0.074962193470    12.000000000000
         C            1.372690914126    -1.326092074205     0.043615793470    12.000000000000
         C            1.809423914126     1.040149925795    -0.157820206530    12.000000000000
         C            2.277718914126    -0.274254074205    -0.123212206530    12.000000000000
         H           -2.202282085874     0.440976925795     1.392792793470     1.007825032230
         H           -2.139479085874     1.576653925795     0.045736793470     1.007825032230
         H           -0.703215085874    -1.878576074205     0.300134793470     1.007825032230
         H            0.081277914126     2.324941925795    -0.060470206530     1.007825032230
         H            1.732014914126    -2.352529074205     0.068550793470     1.007825032230
         H            2.505796914126     1.864342925795    -0.294888206530     1.007825032230
         H            3.340270914126    -0.478848074205    -0.231389206530     1.007825032230
         H           -2.584673085874    -0.343050074205    -1.397858206530     1.007825032230
         H           -3.737065085874    -0.272865074205    -0.241336206530     1.007825032230

  Basis Set: AUG-CC-PVTZ
    Blend: AUG-CC-PVTZ
  Basis Set: (AUG-CC-PVTZ AUX)
    Blend: AUG-CC-PVTZ-JKFIT
	 Reference Energy          =    -324.8707909476677855 [Eh]
	 Singles Energy            =      -0.0000000000000000 [Eh]
	 Same-Spin Energy          =      -0.3580397520460759 [Eh]
	 Opposite-Spin Energy      =      -1.1505733891896663 [Eh]
	 Correlation Energy        =      -1.5086131412357422 [Eh]
	 Total Energy              =    -326.3794040889035273 [Eh]

	 ================> DF-SCS-MP2 Energies <==================
	-----------------------------------------------------------
	 SCS Same-Spin Scale       =       0.3333333333333333 [-]
	 SCS Opposite-Spin Scale   =       1.2000000000000000 [-]
	 SCS Same-Spin Energy      =      -0.1193465840153586 [Eh]
	 SCS Opposite-Spin Energy  =      -1.3806880670275996 [Eh]
	 SCS Correlation Energy    =      -1.5000346510429583 [Eh]
	 SCS Total Energy          =    -326.3708255987107236 [Eh]
	-----------------------------------------------------------

  Dipole Moment: [D]
     X:    -0.7415      Y:     1.0000      Z:    -0.4128     Total:     1.3116

*** Psi4 exiting successfully. Buy a developer a beer!
