                               Psi4 1.3.2 release

  ==> Input File <==

--------------------------------------------------------------------------
#psi4
#
memory 32 gb

molecule  {
0 1
  N       -2.7135790    -0.4632030    -0.3840900
  C       -0.4348490     0.2437790     0.1629790
  C       -1.9077720     0.5229750     0.3447380
  C        0.0419710    -1.0733410     0.1956580
  C        0.5080478     1.3070941     0.2372575
  C        1.4056430    -1.3329900     0.0574270
  C        1.8423760     1.0332520    -0.1440090
  C        2.3106710    -0.2811520    -0.1094010
  H       -2.1693300     0.4340790     1.4066040
  H       -2.1065270     1.5697560     0.0595480
  H       -0.6702630    -1.8854740     0.3139460
  H        0.1142300     2.3180440    -0.0466590
  H        1.7649670    -2.3594270     0.0823620
  H        2.5387490     1.8574450    -0.2810770
  H        3.3732230    -0.4857460    -0.2175780
  H       -2.5517210    -0.3499480    -1.3840470
  H       -3.7041130    -0.2797630    -0.2275250
units angstrom
no_reorient  #important for SAPT in psi4, default
symmetry c1  #important for SAPT in psi4, default
}

set PROPERTIES_ORIGIN ["COM"]
properties('MP2/aug-cc-pvtz', properties = ['dipole'])
--------------------------------------------------------------------------

    Molecular point group: c1
  Charge       = 0
  Multiplicity = 1
  Basis Set: AUG-CC-PVTZ
    Blend: AUG-CC-PVTZ
  Basis Set: (AUG-CC-PVTZ AUX)
    Blend: AUG-CC-PVTZ-JKFIT

    Orbital Energies [Eh]
    ---------------------

    Doubly Occupied:

       1A    -15.547339     2A    -11.258763     3A    -11.242217
       4A    -11.238278     5A    -11.235892     6A    -11.235192
       7A    -11.229851     8A    -11.225169     9A     -1.188720
      10A     -1.138523    11A     -1.022505    12A     -1.006154
      13A     -0.900219    14A     -0.820244    15A     -0.786868
      16A     -0.693216    17A     -0.661130    18A     -0.641222
      19A     -0.621248    20A     -0.583679    21A     -0.572456
      22A     -0.562849    23A     -0.547819    24A     -0.489697
      25A     -0.480325    26A     -0.478231    27A     -0.402015
      28A     -0.332558    29A     -0.321325

  @DF-RHF Final Energy:  -324.85412283134730

   => Energetics <=

    Nuclear Repulsion Energy =            340.3361712886264172
    One-Electron Energy =               -1113.4531771145905168
    Two-Electron Energy =                 448.2628829946167457
    Total Energy =                       -324.8541228313472971
  Basis Set: (AUG-CC-PVTZ AUX)
    Blend: AUG-CC-PVTZ-RI
    Molecular point group: c1

    Geometry (in Angstrom), charge = 0, multiplicity = 1:

       Center              X                  Y                   Z               Mass
    ------------   -----------------  -----------------  -----------------  -----------------
         N           -2.748668275762    -0.457361346773    -0.414542198109    14.003074004430
         C           -0.469938275762     0.249620653227     0.132526801891    12.000000000000
         C           -1.942861275762     0.528816653227     0.314285801891    12.000000000000
         C            0.006881724238    -1.067499346773     0.165205801891    12.000000000000
         C            0.472958524238     1.312935753227     0.206805301891    12.000000000000
         C            1.370553724238    -1.327148346773     0.026974801891    12.000000000000
         C            1.807286724238     1.039093653227    -0.174461198109    12.000000000000
         C            2.275581724238    -0.275310346773    -0.139853198109    12.000000000000
         H           -2.204419275762     0.439920653227     1.376151801891     1.007825032230
         H           -2.141616275762     1.575597653227     0.029095801891     1.007825032230
         H           -0.705352275762    -1.879632346773     0.283493801891     1.007825032230
         H            0.079140724238     2.323885653227    -0.077111198109     1.007825032230
         H            1.729877724238    -2.353585346773     0.051909801891     1.007825032230
         H            2.503659724238     1.863286653227    -0.311529198109     1.007825032230
         H            3.338133724238    -0.479904346773    -0.248030198109     1.007825032230
         H           -2.586810275762    -0.344106346773    -1.414499198109     1.007825032230
         H           -3.739202275762    -0.273921346773    -0.257977198109     1.007825032230

  Basis Set: AUG-CC-PVTZ
    Blend: AUG-CC-PVTZ
  Basis Set: (AUG-CC-PVTZ AUX)
    Blend: AUG-CC-PVTZ-JKFIT
	 Reference Energy          =    -324.8541228313472971 [Eh]
	 Singles Energy            =      -0.0000000000000000 [Eh]
	 Same-Spin Energy          =      -0.3587696357152094 [Eh]
	 Opposite-Spin Energy      =      -1.1528942562483824 [Eh]
	 Correlation Energy        =      -1.5116638919635919 [Eh]
	 Total Energy              =    -326.3657867233108618 [Eh]

	 ================> DF-SCS-MP2 Energies <==================
	-----------------------------------------------------------
	 SCS Same-Spin Scale       =       0.3333333333333333 [-]
	 SCS Opposite-Spin Scale   =       1.2000000000000000 [-]
	 SCS Same-Spin Energy      =      -0.1195898785717364 [Eh]
	 SCS Opposite-Spin Energy  =      -1.3834731074980589 [Eh]
	 SCS Correlation Energy    =      -1.5030629860697953 [Eh]
	 SCS Total Energy          =    -326.3571858174170757 [Eh]
	-----------------------------------------------------------

  Dipole Moment: [D]
     X:    -0.7291      Y:     0.8830      Z:    -0.5027     Total:     1.2506

*** Psi4 exiting successfully. Buy a developer a beer!
