                               Psi4 1.3.2 release

  ==> Input File <==

--------------------------------------------------------------------------
#psi4
#
memory 32 gb

molecule  {
0 1
  N       -2.7135790    -0.4632030    -0.3840900
  C       -0.4348490     0.2437790     0.1629790
  C       -1.9077720     0.5229750     0.3447380
  C        0.0419710    -1.0733410     0.1956580
  C        0.5144044     1.3102357     0.2867521
  C        1.4056430    -1.3329900     0.0574270
  C        1.8423760     1.0332520    -0.1440090
  C        2.3106710    -0.2811520    -0.1094010
  H       -2.1693300     0.4340790     1.4066040
  H       -2.1065270     1.5697560     0.0595480
  H       -0.6702630    -1.8854740     0.3139460
  H        0.1142300     2.3180440    -0.0466590
  H        1.7649670    -2.3594270     0.0823620
  H        2.5387490     1.8574450    -0.2810770
  H        3.3732230    -0.4857460    -0.2175780
  H       -2.5517210    -0.3499480    -1.3840470
  H       -3.7041130    -0.2797630    -0.2275250
units angstrom
no_reorient  #important for SAPT in psi4, default
symmetry c1  #important for SAPT in psi4, default
}

set PROPERTIES_ORIGIN ["COM"]
properties('MP2/aug-cc-pvtz', properties = ['dipole'])
--------------------------------------------------------------------------

    Molecular point group: c1
  Charge       = 0
  Multiplicity = 1
  Basis Set: AUG-CC-PVTZ
    Blend: AUG-CC-PVTZ
  Basis Set: (AUG-CC-PVTZ AUX)
    Blend: AUG-CC-PVTZ-JKFIT

    Orbital Energies [Eh]
    ---------------------

    Doubly Occupied:

       1A    -15.547544     2A    -11.258941     3A    -11.244562
       4A    -11.240455     5A    -11.237967     6A    -11.236677
       7A    -11.229705     8A    -11.225063     9A     -1.188827
      10A     -1.137928    11A     -1.022247    12A     -1.005280
      13A     -0.900082    14A     -0.819666    15A     -0.785713
      16A     -0.692560    17A     -0.660995    18A     -0.640361
      19A     -0.620683    20A     -0.583472    21A     -0.571361
      22A     -0.561018    23A     -0.548260    24A     -0.489783
      25A     -0.479473    26A     -0.475218    27A     -0.402206
      28A     -0.332841    29A     -0.320620

  @DF-RHF Final Energy:  -324.84529667752582

   => Energetics <=

    Nuclear Repulsion Energy =            340.0265989759874969
    One-Electron Energy =               -1112.8247813698783375
    Two-Electron Energy =                 447.9528857163649604
    Total Energy =                       -324.8452966775258233
  Basis Set: (AUG-CC-PVTZ AUX)
    Blend: AUG-CC-PVTZ-RI
    Molecular point group: c1

    Geometry (in Angstrom), charge = 0, multiplicity = 1:

       Center              X                  Y                   Z               Mass
    ------------   -----------------  -----------------  -----------------  -----------------
         N           -2.749380676127    -0.457713433893    -0.420089184094    14.003074004430
         C           -0.470650676127     0.249268566107     0.126979815906    12.000000000000
         C           -1.943573676127     0.528464566107     0.308738815906    12.000000000000
         C            0.006169323873    -1.067851433893     0.159658815906    12.000000000000
         C            0.478602723873     1.315725266107     0.250752915906    12.000000000000
         C            1.369841323873    -1.327500433893     0.021427815906    12.000000000000
         C            1.806574323873     1.038741566107    -0.180008184094    12.000000000000
         C            2.274869323873    -0.275662433893    -0.145400184094    12.000000000000
         H           -2.205131676127     0.439568566107     1.370604815906     1.007825032230
         H           -2.142328676127     1.575245566107     0.023548815906     1.007825032230
         H           -0.706064676127    -1.879984433893     0.277946815906     1.007825032230
         H            0.078428323873     2.323533566107    -0.082658184094     1.007825032230
         H            1.729165323873    -2.353937433893     0.046362815906     1.007825032230
         H            2.502947323873     1.862934566107    -0.317076184094     1.007825032230
         H            3.337421323873    -0.480256433893    -0.253577184094     1.007825032230
         H           -2.587522676127    -0.344458433893    -1.420046184094     1.007825032230
         H           -3.739914676127    -0.274273433893    -0.263524184094     1.007825032230

  Basis Set: AUG-CC-PVTZ
    Blend: AUG-CC-PVTZ
  Basis Set: (AUG-CC-PVTZ AUX)
    Blend: AUG-CC-PVTZ-JKFIT
	 Reference Energy          =    -324.8452966775258233 [Eh]
	 Singles Energy            =      -0.0000000000000000 [Eh]
	 Same-Spin Energy          =      -0.3591301180103521 [Eh]
	 Opposite-Spin Energy      =      -1.1540975034364802 [Eh]
	 Correlation Energy        =      -1.5132276214468323 [Eh]
	 Total Energy              =    -326.3585242989726680 [Eh]

	 ================> DF-SCS-MP2 Energies <==================
	-----------------------------------------------------------
	 SCS Same-Spin Scale       =       0.3333333333333333 [-]
	 SCS Opposite-Spin Scale   =       1.2000000000000000 [-]
	 SCS Same-Spin Energy      =      -0.1197100393367840 [Eh]
	 SCS Opposite-Spin Energy  =      -1.3849170041237762 [Eh]
	 SCS Correlation Energy    =      -1.5046270434605602 [Eh]
	 SCS Total Energy          =    -326.3499237209863963 [Eh]
	-----------------------------------------------------------

  Dipole Moment: [D]
     X:    -0.7197      Y:     0.8244      Z:    -0.5336     Total:     1.2175

*** Psi4 exiting successfully. Buy a developer a beer!
