                               Psi4 1.3.2 release

  ==> Input File <==

--------------------------------------------------------------------------
#psi4
#
memory 32 gb

molecule  {
0 1
  N       -2.7135790    -0.4632030    -0.3840900
  C       -0.4348490     0.2437790     0.1629790
  C       -1.9077720     0.5229750     0.3447380
  C        0.0419710    -1.0733410     0.1956580
  C        0.4826216     1.2945276     0.0392787
  C        1.4056430    -1.3329900     0.0574270
  C        1.8423760     1.0332520    -0.1440090
  C        2.3106710    -0.2811520    -0.1094010
  H       -2.1693300     0.4340790     1.4066040
  H       -2.1065270     1.5697560     0.0595480
  H       -0.6702630    -1.8854740     0.3139460
  H        0.1142300     2.3180440    -0.0466590
  H        1.7649670    -2.3594270     0.0823620
  H        2.5387490     1.8574450    -0.2810770
  H        3.3732230    -0.4857460    -0.2175780
  H       -2.5517210    -0.3499480    -1.3840470
  H       -3.7041130    -0.2797630    -0.2275250
units angstrom
no_reorient  #important for SAPT in psi4, default
symmetry c1  #important for SAPT in psi4, default
}

set PROPERTIES_ORIGIN ["COM"]
properties('MP2/aug-cc-pvtz', properties = ['dipole'])
--------------------------------------------------------------------------

    Molecular point group: c1
  Charge       = 0
  Multiplicity = 1
  Basis Set: AUG-CC-PVTZ
    Blend: AUG-CC-PVTZ
  Basis Set: (AUG-CC-PVTZ AUX)
    Blend: AUG-CC-PVTZ-JKFIT

    Orbital Energies [Eh]
    ---------------------

    Doubly Occupied:

       1A    -15.546802     2A    -11.258316     3A    -11.236819
       4A    -11.233515     5A    -11.232157     6A    -11.231089
       7A    -11.230209     8A    -11.225565     9A     -1.188494
      10A     -1.139848    11A     -1.023240    12A     -1.007862
      13A     -0.900507    14A     -0.821887    15A     -0.789839
      16A     -0.695353    17A     -0.661371    18A     -0.643361
      19A     -0.622721    20A     -0.584502    21A     -0.575215
      22A     -0.567446    23A     -0.545879    24A     -0.488588
      25A     -0.486578    26A     -0.480859    27A     -0.401466
      28A     -0.331987    29A     -0.323362

  @DF-RHF Final Energy:  -324.87316128060957

   => Energetics <=

    Nuclear Repulsion Energy =            341.0614461477727559
    One-Electron Energy =               -1114.9195402403136086
    Two-Electron Energy =                 448.9849328119312304
    Total Energy =                       -324.8731612806095654
  Basis Set: (AUG-CC-PVTZ AUX)
    Blend: AUG-CC-PVTZ-RI
    Molecular point group: c1

    Geometry (in Angstrom), charge = 0, multiplicity = 1:

       Center              X                  Y                   Z               Mass
    ------------   -----------------  -----------------  -----------------  -----------------
         N           -2.745818696716    -0.455952987085    -0.392354209338    14.003074004430
         C           -0.467088696716     0.251029012915     0.154714790662    12.000000000000
         C           -1.940011696716     0.530225012915     0.336473790662    12.000000000000
         C            0.009731303284    -1.066090987085     0.187393790662    12.000000000000
         C            0.450381903284     1.301777612915     0.031014490662    12.000000000000
         C            1.373403303284    -1.325739987085     0.049162790662    12.000000000000
         C            1.810136303284     1.040502012915    -0.152273209338    12.000000000000
         C            2.278431303284    -0.273901987085    -0.117665209338    12.000000000000
         H           -2.201569696716     0.441329012915     1.398339790662     1.007825032230
         H           -2.138766696716     1.577006012915     0.051283790662     1.007825032230
         H           -0.702502696716    -1.878223987085     0.305681790662     1.007825032230
         H            0.081990303284     2.325294012915    -0.054923209338     1.007825032230
         H            1.732727303284    -2.352176987085     0.074097790662     1.007825032230
         H            2.506509303284     1.864695012915    -0.289341209338     1.007825032230
         H            3.340983303284    -0.478495987085    -0.225842209338     1.007825032230
         H           -2.583960696716    -0.342697987085    -1.392311209338     1.007825032230
         H           -3.736352696716    -0.272512987085    -0.235789209338     1.007825032230

  Basis Set: AUG-CC-PVTZ
    Blend: AUG-CC-PVTZ
  Basis Set: (AUG-CC-PVTZ AUX)
    Blend: AUG-CC-PVTZ-JKFIT
	 Reference Energy          =    -324.8731612806095654 [Eh]
	 Singles Energy            =      -0.0000000000000000 [Eh]
	 Same-Spin Energy          =      -0.3579301895058746 [Eh]
	 Opposite-Spin Energy      =      -1.1502719425140133 [Eh]
	 Correlation Energy        =      -1.5082021320198880 [Eh]
	 Total Energy              =    -326.3813634126294687 [Eh]

	 ================> DF-SCS-MP2 Energies <==================
	-----------------------------------------------------------
	 SCS Same-Spin Scale       =       0.3333333333333333 [-]
	 SCS Opposite-Spin Scale   =       1.2000000000000000 [-]
	 SCS Same-Spin Energy      =      -0.1193100631686249 [Eh]
	 SCS Opposite-Spin Energy  =      -1.3803263310168159 [Eh]
	 SCS Correlation Energy    =      -1.4996363941854407 [Eh]
	 SCS Total Energy          =    -326.3727976747949810 [Eh]
	-----------------------------------------------------------

  Dipole Moment: [D]
     X:    -0.7404      Y:     1.0184      Z:    -0.3834     Total:     1.3162

*** Psi4 exiting successfully. Buy a developer a beer!
