                               Psi4 1.4a3.dev225

  ==> Input File <==

--------------------------------------------------------------------------
#psi4
#
memory 32 gb

molecule  {
0 1
 Br       -1.3836660    -0.1471400     0.0000000
  O        0.8235020     1.5925660     0.0000000
  C        1.4590730    -0.7608090     0.0000000
  C        2.9264910    -0.3527110    -0.0000010
  C        0.5359283     0.4110273     0.0000000
  H        1.1958170    -1.3664940     0.8741710
  H        1.1958160    -1.3664970    -0.8741670
  H        3.1663090     0.2422710    -0.8834470
  H        3.1663120     0.2422700     0.8834460
  H        3.5586990    -1.2438130    -0.0000020
units angstrom
no_reorient  #important for SAPT in psi4, default
symmetry c1  #important for SAPT in psi4, default
}

set PROPERTIES_ORIGIN ["COM"]
properties('MP2/aug-cc-pvtz', properties = ['dipole'])
--------------------------------------------------------------------------

    Molecular point group: c1
  Charge       = 0
  Multiplicity = 1
  Basis Set: AUG-CC-PVTZ
    Blend: AUG-CC-PVTZ
  Basis Set: (AUG-CC-PVTZ AUX)
    Blend: AUG-CC-PVTZ-JKFIT

    Orbital Energies [Eh]
    ---------------------

    Doubly Occupied:

       1A   -490.029129     2A    -65.169018     3A    -58.524210
       4A    -58.522979     5A    -58.522852     6A    -20.600284
       7A    -11.414153     8A    -11.275322     9A    -11.241830
      10A     -9.841654    11A     -7.452695    12A     -7.446848
      13A     -7.446316    14A     -3.196160    15A     -3.193323
      16A     -3.192593    17A     -3.185122    18A     -3.185104
      19A     -1.428898    20A     -1.098966    21A     -1.026327
      22A     -0.914065    23A     -0.762240    24A     -0.676094
      25A     -0.662936    26A     -0.639844    27A     -0.564394
      28A     -0.562676    29A     -0.541837    30A     -0.519100
      31A     -0.433246    32A     -0.424998    33A     -0.421851

  @DF-RHF Final Energy: -2763.91336225429131

   => Energetics <=

    Nuclear Repulsion Energy =            306.5772890045232089
    One-Electron Energy =               -4452.7471770215588549
    Two-Electron Energy =                1382.2565257627441042
    Total Energy =                      -2763.9133622542913145
  Basis Set: (AUG-CC-PVTZ AUX)
    Blend: AUG-CC-PVTZ-RI
    Molecular point group: c1

    Geometry (in Angstrom), charge = 0, multiplicity = 1:

       Center              X                  Y                   Z               Mass
    ------------   -----------------  -----------------  -----------------  -----------------
         BR          -1.202810014211    -0.161199412331     0.000000080853    78.918337600000
         O            1.004357985789     1.578506587669     0.000000080853    15.994914619570
         C            1.639928985789    -0.774868412331     0.000000080853    12.000000000000
         C            3.107346985789    -0.366770412331    -0.000000919147    12.000000000000
         C            0.716784285789     0.396967887669     0.000000080853    12.000000000000
         H            1.376672985789    -1.380553412331     0.874171080853     1.007825032230
         H            1.376671985789    -1.380556412331    -0.874166919147     1.007825032230
         H            3.347164985789     0.228211587669    -0.883446919147     1.007825032230
         H            3.347167985789     0.228210587669     0.883446080853     1.007825032230
         H            3.739554985789    -1.257872412331    -0.000001919147     1.007825032230

  Basis Set: AUG-CC-PVTZ
    Blend: AUG-CC-PVTZ
  Basis Set: (AUG-CC-PVTZ AUX)
    Blend: AUG-CC-PVTZ-JKFIT
	 Reference Energy          =   -2763.9133622542913145 [Eh]
	 Singles Energy            =      -0.0000000000000000 [Eh]
	 Same-Spin Energy          =      -0.2816274918717183 [Eh]
	 Opposite-Spin Energy      =      -0.8317939286547056 [Eh]
	 Correlation Energy        =      -1.1134214205264239 [Eh]
	 Total Energy              =   -2765.0267836748175796 [Eh]

	 ================> DF-SCS-MP2 Energies <==================
	-----------------------------------------------------------
	 SCS Same-Spin Scale       =       0.3333333333333333 [-]
	 SCS Opposite-Spin Scale   =       1.2000000000000000 [-]
	 SCS Same-Spin Energy      =      -0.0938758306239061 [Eh]
	 SCS Opposite-Spin Energy  =      -0.9981527143856467 [Eh]
	 SCS Correlation Energy    =      -1.0920285450095528 [Eh]
	 SCS Total Energy          =   -2765.0053907993010398 [Eh]
	-----------------------------------------------------------

  Dipole Moment: [D]
     X:     2.1021      Y:    -2.1204      Z:     0.0000     Total:     2.9858

*** Psi4 exiting successfully. Buy a developer a beer!
