                               Psi4 1.3.2 release

  ==> Input File <==

--------------------------------------------------------------------------
#psi4
#
memory 32 gb

molecule  {
0 1
 Br       -1.3836610    -0.1471480    -0.0001220
  O        0.8234410     1.5925820     0.0002040
  C        1.4590910    -0.7608190     0.0007700
  C        2.9264930    -0.3526980    -0.0006480
  C        0.5643088     0.5276249     0.0002397
  H        1.1964500    -1.3653870     0.8759120
  H        1.1952150    -1.3675680    -0.8724330
  H        3.1657420     0.2413720    -0.8848640
  H        3.1669300     0.2432120     0.8819950
  H        3.5587740    -1.2437650    -0.0001660
units angstrom
no_reorient  #important for SAPT in psi4, default
symmetry c1  #important for SAPT in psi4, default
}

set PROPERTIES_ORIGIN ["COM"]
properties('MP2/aug-cc-pvtz', properties = ['dipole'])
--------------------------------------------------------------------------

    Molecular point group: c1
  Charge       = 0
  Multiplicity = 1
  Basis Set: AUG-CC-PVTZ
    Blend: AUG-CC-PVTZ
  Basis Set: (AUG-CC-PVTZ AUX)
    Blend: AUG-CC-PVTZ-JKFIT

    Orbital Energies [Eh]
    ---------------------

    Doubly Occupied:

       1A   -490.004590     2A    -65.144768     3A    -58.499814
       4A    -58.498788     5A    -58.498676     6A    -20.623113
       7A    -11.406184     8A    -11.281450     9A    -11.244169
      10A     -9.817525    11A     -7.427998    12A     -7.423068
      13A     -7.422629    14A     -3.171064    15A     -3.168741
      16A     -3.168122    17A     -3.161882    18A     -3.161866
      19A     -1.533135    20A     -1.086499    21A     -1.005895
      22A     -0.901371    23A     -0.782166    24A     -0.710771
      25A     -0.676940    26A     -0.660838    27A     -0.612423
      28A     -0.573828    29A     -0.548960    30A     -0.527912
      31A     -0.409500    32A     -0.408596    33A     -0.403380

  @DF-RHF Final Energy: -2763.90905128969189

   => Energetics <=

    Nuclear Repulsion Energy =            306.3984158778574169
    One-Electron Energy =               -4452.6816085066338928
    Two-Electron Energy =                1382.3741413390841899
    Total Energy =                      -2763.9090512896918881
  Basis Set: (AUG-CC-PVTZ AUX)
    Blend: AUG-CC-PVTZ-RI
    Molecular point group: c1

    Geometry (in Angstrom), charge = 0, multiplicity = 1:

       Center              X                  Y                   Z               Mass
    ------------   -----------------  -----------------  -----------------  -----------------
         BR          -1.205308715469    -0.171497484434    -0.000110398877    78.918337600000
         O            1.001793284531     1.568232515566     0.000215601123    15.994914619570
         C            1.637443284531    -0.785168484434     0.000781601123    12.000000000000
         C            3.104845284531    -0.377047484434    -0.000636398877    12.000000000000
         C            0.742661084531     0.503275415566     0.000251301123    12.000000000000
         H            1.374802284531    -1.389736484434     0.875923601123     1.007825032230
         H            1.373567284531    -1.391917484434    -0.872421398877     1.007825032230
         H            3.344094284531     0.217022515566    -0.884852398877     1.007825032230
         H            3.345282284531     0.218862515566     0.882006601123     1.007825032230
         H            3.737126284531    -1.268114484434    -0.000154398877     1.007825032230

  Basis Set: AUG-CC-PVTZ
    Blend: AUG-CC-PVTZ
  Basis Set: (AUG-CC-PVTZ AUX)
    Blend: AUG-CC-PVTZ-JKFIT
	 Reference Energy          =   -2763.9090512896918881 [Eh]
	 Singles Energy            =      -0.0000000000000000 [Eh]
	 Same-Spin Energy          =      -0.2779373954489167 [Eh]
	 Opposite-Spin Energy      =      -0.8236747717714992 [Eh]
	 Correlation Energy        =      -1.1016121672204158 [Eh]
	 Total Energy              =   -2765.0106634569124253 [Eh]

	 ================> DF-SCS-MP2 Energies <==================
	-----------------------------------------------------------
	 SCS Same-Spin Scale       =       0.3333333333333333 [-]
	 SCS Opposite-Spin Scale   =       1.2000000000000000 [-]
	 SCS Same-Spin Energy      =      -0.0926457984829722 [Eh]
	 SCS Opposite-Spin Energy  =      -0.9884097261257989 [Eh]
	 SCS Correlation Energy    =      -1.0810555246087712 [Eh]
	 SCS Total Energy          =   -2764.9901068143008160 [Eh]
	-----------------------------------------------------------

  Dipole Moment: [D]
     X:     2.9717      Y:    -1.4023      Z:     0.0009     Total:     3.2860

*** Psi4 exiting successfully. Buy a developer a beer!
