                               Psi4 1.3.2 release

  ==> Input File <==

--------------------------------------------------------------------------
#psi4
#
memory 32 gb

molecule  {
0 1
 Br       -1.3836610    -0.1471480    -0.0001220
  O        0.8234410     1.5925820     0.0002040
  C        1.4590910    -0.7608190     0.0007700
  C        2.9398424    -0.4041582    -0.0006070
  C        0.5406660     0.4304600     0.0002430
  H        1.1964500    -1.3653870     0.8759120
  H        1.1952150    -1.3675680    -0.8724330
  H        3.1657420     0.2413720    -0.8848640
  H        3.1669300     0.2432120     0.8819950
  H        3.5587740    -1.2437650    -0.0001660
units angstrom
no_reorient  #important for SAPT in psi4, default
symmetry c1  #important for SAPT in psi4, default
}

set PROPERTIES_ORIGIN ["COM"]
properties('MP2/aug-cc-pvtz', properties = ['dipole'])
--------------------------------------------------------------------------

    Molecular point group: c1
  Charge       = 0
  Multiplicity = 1
  Basis Set: AUG-CC-PVTZ
    Blend: AUG-CC-PVTZ
  Basis Set: (AUG-CC-PVTZ AUX)
    Blend: AUG-CC-PVTZ-JKFIT

    Orbital Energies [Eh]
    ---------------------

    Doubly Occupied:

       1A   -490.026336     2A    -65.166245     3A    -58.521425
       4A    -58.520210     5A    -58.520086     6A    -20.604046
       7A    -11.413910     8A    -11.275753     9A    -11.242203
      10A     -9.838875    11A     -7.449859    12A     -7.444094
      13A     -7.443581    14A     -3.193281    15A     -3.190495
      16A     -3.189787    17A     -3.182423    18A     -3.182406
      19A     -1.444934    20A     -1.096097    21A     -1.023728
      22A     -0.912960    23A     -0.764253    24A     -0.682294
      25A     -0.660569    26A     -0.643553    27A     -0.581205
      28A     -0.567033    29A     -0.538266    30A     -0.512472
      31A     -0.430819    32A     -0.423452    33A     -0.420260

  @DF-RHF Final Energy: -2763.91318609454356

   => Energetics <=

    Nuclear Repulsion Energy =            306.2178053974817544
    One-Electron Energy =               -4452.0481727724063603
    Two-Electron Energy =                1381.9171812803806461
    Total Energy =                      -2763.9131860945435619
  Basis Set: (AUG-CC-PVTZ AUX)
    Blend: AUG-CC-PVTZ-RI
    Molecular point group: c1

    Geometry (in Angstrom), charge = 0, multiplicity = 1:

       Center              X                  Y                   Z               Mass
    ------------   -----------------  -----------------  -----------------  -----------------
         BR          -1.204400156146    -0.158378911339    -0.000114309069    78.918337600000
         O            1.002701843854     1.581351088661     0.000211690931    15.994914619570
         C            1.638351843854    -0.772049911339     0.000777690931    12.000000000000
         C            3.119103243854    -0.415389111339    -0.000599309069    12.000000000000
         C            0.719926843854     0.419229088661     0.000250690931    12.000000000000
         H            1.375710843854    -1.376617911339     0.875919690931     1.007825032230
         H            1.374475843854    -1.378798911339    -0.872425309069     1.007825032230
         H            3.345002843854     0.230141088661    -0.884856309069     1.007825032230
         H            3.346190843854     0.231981088661     0.882002690931     1.007825032230
         H            3.738034843854    -1.254995911339    -0.000158309069     1.007825032230

  Basis Set: AUG-CC-PVTZ
    Blend: AUG-CC-PVTZ
  Basis Set: (AUG-CC-PVTZ AUX)
    Blend: AUG-CC-PVTZ-JKFIT
	 Reference Energy          =   -2763.9131860945435619 [Eh]
	 Singles Energy            =      -0.0000000000000000 [Eh]
	 Same-Spin Energy          =      -0.2810139880547939 [Eh]
	 Opposite-Spin Energy      =      -0.8306120100683512 [Eh]
	 Correlation Energy        =      -1.1116259981231451 [Eh]
	 Total Energy              =   -2765.0248120926667070 [Eh]

	 ================> DF-SCS-MP2 Energies <==================
	-----------------------------------------------------------
	 SCS Same-Spin Scale       =       0.3333333333333333 [-]
	 SCS Opposite-Spin Scale   =       1.2000000000000000 [-]
	 SCS Same-Spin Energy      =      -0.0936713293515980 [Eh]
	 SCS Opposite-Spin Energy  =      -0.9967344120820214 [Eh]
	 SCS Correlation Energy    =      -1.0904057414336195 [Eh]
	 SCS Total Energy          =   -2765.0035918359772040 [Eh]
	-----------------------------------------------------------

  Dipole Moment: [D]
     X:     2.2017      Y:    -2.0230      Z:     0.0009     Total:     2.9900

*** Psi4 exiting successfully. Buy a developer a beer!
