                               Psi4 1.3.2 release

  ==> Input File <==

--------------------------------------------------------------------------
#psi4
#
memory 32 gb

molecule  {
0 1
 Br       -1.3836610    -0.1471480    -0.0001220
  O        0.9433667     1.5566577     0.0002571
  C        1.4590910    -0.7608190     0.0007700
  C        2.9264930    -0.3526980    -0.0006480
  C        0.5406660     0.4304600     0.0002430
  H        1.1964500    -1.3653870     0.8759120
  H        1.1952150    -1.3675680    -0.8724330
  H        3.1657420     0.2413720    -0.8848640
  H        3.1669300     0.2432120     0.8819950
  H        3.5587740    -1.2437650    -0.0001660
units angstrom
no_reorient  #important for SAPT in psi4, default
symmetry c1  #important for SAPT in psi4, default
}

set PROPERTIES_ORIGIN ["COM"]
properties('MP2/aug-cc-pvtz', properties = ['dipole'])
--------------------------------------------------------------------------

    Molecular point group: c1
  Charge       = 0
  Multiplicity = 1
  Basis Set: AUG-CC-PVTZ
    Blend: AUG-CC-PVTZ
  Basis Set: (AUG-CC-PVTZ AUX)
    Blend: AUG-CC-PVTZ-JKFIT

    Orbital Energies [Eh]
    ---------------------

    Doubly Occupied:

       1A   -490.032701     2A    -65.172479     3A    -58.527697
       4A    -58.526431     5A    -58.526306     6A    -20.602263
       7A    -11.410883     8A    -11.270082     9A    -11.237801
      10A     -9.844992    11A     -7.456063    12A     -7.450119
      13A     -7.449605    14A     -3.199557    15A     -3.196679
      16A     -3.195979    17A     -3.188359    18A     -3.188343
      19A     -1.444372    20A     -1.091835    21A     -1.026901
      22A     -0.908597    23A     -0.762162    24A     -0.679513
      25A     -0.660701    26A     -0.643448    27A     -0.567630
      28A     -0.558146    29A     -0.538215    30A     -0.518100
      31A     -0.431013    32A     -0.428432    33A     -0.425568

  @DF-RHF Final Energy: -2763.91316319995849

   => Energetics <=

    Nuclear Repulsion Energy =            306.0065251704781986
    One-Electron Energy =               -4451.5174284050199276
    Two-Electron Energy =                1381.5977400345830119
    Total Energy =                      -2763.9131631999589445
  Basis Set: (AUG-CC-PVTZ AUX)
    Blend: AUG-CC-PVTZ-RI
    Molecular point group: c1

    Geometry (in Angstrom), charge = 0, multiplicity = 1:

       Center              X                  Y                   Z               Mass
    ------------   -----------------  -----------------  -----------------  -----------------
         BR          -1.217331217493    -0.158694582824    -0.000116937416    78.918337600000
         O            1.109696482507     1.545111117176     0.000262162584    15.994914619570
         C            1.625420782507    -0.772365582824     0.000775062584    12.000000000000
         C            3.092822782507    -0.364244582824    -0.000642937416    12.000000000000
         C            0.706995782507     0.418913417176     0.000248062584    12.000000000000
         H            1.362779782507    -1.376933582824     0.875917062584     1.007825032230
         H            1.361544782507    -1.379114582824    -0.872427937416     1.007825032230
         H            3.332071782507     0.229825417176    -0.884858937416     1.007825032230
         H            3.333259782507     0.231665417176     0.882000062584     1.007825032230
         H            3.725103782507    -1.255311582824    -0.000160937416     1.007825032230

  Basis Set: AUG-CC-PVTZ
    Blend: AUG-CC-PVTZ
  Basis Set: (AUG-CC-PVTZ AUX)
    Blend: AUG-CC-PVTZ-JKFIT
	 Reference Energy          =   -2763.9131631999584897 [Eh]
	 Singles Energy            =      -0.0000000000000000 [Eh]
	 Same-Spin Energy          =      -0.2812612430617357 [Eh]
	 Opposite-Spin Energy      =      -0.8311010066244510 [Eh]
	 Correlation Energy        =      -1.1123622496861867 [Eh]
	 Total Energy              =   -2765.0255254496446469 [Eh]

	 ================> DF-SCS-MP2 Energies <==================
	-----------------------------------------------------------
	 SCS Same-Spin Scale       =       0.3333333333333333 [-]
	 SCS Opposite-Spin Scale   =       1.2000000000000000 [-]
	 SCS Same-Spin Energy      =      -0.0937537476872452 [Eh]
	 SCS Opposite-Spin Energy  =      -0.9973212079493411 [Eh]
	 SCS Correlation Energy    =      -1.0910749556365864 [Eh]
	 SCS Total Energy          =   -2765.0042381555949760 [Eh]
	-----------------------------------------------------------

  Dipole Moment: [D]
     X:     1.8711      Y:    -1.9612      Z:     0.0008     Total:     2.7106

*** Psi4 exiting successfully. Buy a developer a beer!
