                               Psi4 1.4a3.dev225

  ==> Input File <==

--------------------------------------------------------------------------
#psi4
#
memory 32 gb

molecule  {
0 1
 Br       -1.3836660    -0.1471400     0.0000000
  O        0.8235020     1.5925660     0.0000000
  C        1.4590730    -0.7608090     0.0000000
  C        2.9264910    -0.3527110    -0.0000010
  C        0.5598137     0.4362097     0.0000000
  H        1.1958170    -1.3664940     0.8741710
  H        1.1958160    -1.3664970    -0.8741670
  H        3.1663090     0.2422710    -0.8834470
  H        3.1663120     0.2422700     0.8834460
  H        3.5586990    -1.2438130    -0.0000020
units angstrom
no_reorient  #important for SAPT in psi4, default
symmetry c1  #important for SAPT in psi4, default
}

set PROPERTIES_ORIGIN ["COM"]
properties('MP2/aug-cc-pvtz', properties = ['dipole'])
--------------------------------------------------------------------------

    Molecular point group: c1
  Charge       = 0
  Multiplicity = 1
  Basis Set: AUG-CC-PVTZ
    Blend: AUG-CC-PVTZ
  Basis Set: (AUG-CC-PVTZ AUX)
    Blend: AUG-CC-PVTZ-JKFIT

    Orbital Energies [Eh]
    ---------------------

    Doubly Occupied:

       1A   -490.020757     2A    -65.160689     3A    -58.515845
       4A    -58.514668     5A    -58.514549     6A    -20.607674
       7A    -11.414205     8A    -11.277622     9A    -11.243454
      10A     -9.833297    11A     -7.444156    12A     -7.438585
      13A     -7.438096    14A     -3.187494    15A     -3.184825
      16A     -3.184147    17A     -3.177026    18A     -3.177009
      19A     -1.454721    20A     -1.099007    21A     -1.018347
      22A     -0.913213    23A     -0.767408    24A     -0.685955
      25A     -0.666526    26A     -0.645280    27A     -0.575934
      28A     -0.566428    29A     -0.545556    30A     -0.524036
      31A     -0.426144    32A     -0.419599    33A     -0.416238

  @DF-RHF Final Energy: -2763.91704743325545

   => Energetics <=

    Nuclear Repulsion Energy =            306.2809873712519675
    One-Electron Energy =               -4452.2790940282739029
    Two-Electron Energy =                1382.0810592237662604
    Total Energy =                      -2763.9170474332554477
  Basis Set: (AUG-CC-PVTZ AUX)
    Blend: AUG-CC-PVTZ-RI
    Molecular point group: c1

    Geometry (in Angstrom), charge = 0, multiplicity = 1:

       Center              X                  Y                   Z               Mass
    ------------   -----------------  -----------------  -----------------  -----------------
         BR          -1.204918287752    -0.163422167136     0.000000080853    78.918337600000
         O            1.002249712248     1.576283832864     0.000000080853    15.994914619570
         C            1.637820712248    -0.777091167136     0.000000080853    12.000000000000
         C            3.105238712248    -0.368993167136    -0.000000919147    12.000000000000
         C            0.738561412248     0.419927532864     0.000000080853    12.000000000000
         H            1.374564712248    -1.382776167136     0.874171080853     1.007825032230
         H            1.374563712248    -1.382779167136    -0.874166919147     1.007825032230
         H            3.345056712248     0.225988832864    -0.883446919147     1.007825032230
         H            3.345059712248     0.225987832864     0.883446080853     1.007825032230
         H            3.737446712248    -1.260095167136    -0.000001919147     1.007825032230

  Basis Set: AUG-CC-PVTZ
    Blend: AUG-CC-PVTZ
  Basis Set: (AUG-CC-PVTZ AUX)
    Blend: AUG-CC-PVTZ-JKFIT
	 Reference Energy          =   -2763.9170474332554477 [Eh]
	 Singles Energy            =      -0.0000000000000000 [Eh]
	 Same-Spin Energy          =      -0.2808253447762041 [Eh]
	 Opposite-Spin Energy      =      -0.8298805971196215 [Eh]
	 Correlation Energy        =      -1.1107059418958256 [Eh]
	 Total Energy              =   -2765.0277533751514056 [Eh]

	 ================> DF-SCS-MP2 Energies <==================
	-----------------------------------------------------------
	 SCS Same-Spin Scale       =       0.3333333333333333 [-]
	 SCS Opposite-Spin Scale   =       1.2000000000000000 [-]
	 SCS Same-Spin Energy      =      -0.0936084482587347 [Eh]
	 SCS Opposite-Spin Energy  =      -0.9958567165435457 [Eh]
	 SCS Correlation Energy    =      -1.0894651648022804 [Eh]
	 SCS Total Energy          =   -2765.0065125980577250 [Eh]
	-----------------------------------------------------------

  Dipole Moment: [D]
     X:     2.4609      Y:    -1.9450      Z:     0.0000     Total:     3.1367

*** Psi4 exiting successfully. Buy a developer a beer!
