                               Psi4 1.3.2 release

  ==> Input File <==

--------------------------------------------------------------------------
#psi4
#
memory 32 gb

molecule  {
0 1
 Br       -1.3836610    -0.1471480    -0.0001220
  O        0.8234410     1.5925820     0.0002040
  C        1.4590910    -0.7608190     0.0007700
  C        2.9264930    -0.3526980    -0.0006480
  C        0.4768804     0.3708212    -0.1307711
  H        1.1964500    -1.3653870     0.8759120
  H        1.1952150    -1.3675680    -0.8724330
  H        3.1657420     0.2413720    -0.8848640
  H        3.1669300     0.2432120     0.8819950
  H        3.5587740    -1.2437650    -0.0001660
units angstrom
no_reorient  #important for SAPT in psi4, default
symmetry c1  #important for SAPT in psi4, default
}

set PROPERTIES_ORIGIN ["COM"]
properties('MP2/aug-cc-pvtz', properties = ['dipole'])
--------------------------------------------------------------------------

    Molecular point group: c1
  Charge       = 0
  Multiplicity = 1
  Basis Set: AUG-CC-PVTZ
    Blend: AUG-CC-PVTZ
  Basis Set: (AUG-CC-PVTZ AUX)
    Blend: AUG-CC-PVTZ-JKFIT

    Orbital Energies [Eh]
    ---------------------

    Doubly Occupied:

       1A   -490.044866     2A    -65.184756     3A    -58.539996
       4A    -58.538684     5A    -58.538538     6A    -20.588467
       7A    -11.414703     8A    -11.272316     9A    -11.238317
      10A     -9.857564    11A     -7.468945    12A     -7.462611
      13A     -7.461977    14A     -3.212643    15A     -3.209487
      16A     -3.208639    17A     -3.200584    18A     -3.200563
      19A     -1.382282    20A     -1.096792    21A     -1.041054
      22A     -0.912279    23A     -0.754952    24A     -0.661148
      25A     -0.653541    26A     -0.627695    27A     -0.556475
      28A     -0.548652    29A     -0.533923    30A     -0.505894
      31A     -0.442523    32A     -0.433439    33A     -0.431042

  @DF-RHF Final Energy: -2763.89304455805495

   => Energetics <=

    Nuclear Repulsion Energy =            307.1209487927949340
    One-Electron Energy =               -4453.5772922004562133
    Two-Electron Energy =                1382.5632988496058715
    Total Energy =                      -2763.8930445580549531
  Basis Set: (AUG-CC-PVTZ AUX)
    Blend: AUG-CC-PVTZ-RI
    Molecular point group: c1

    Geometry (in Angstrom), charge = 0, multiplicity = 1:

       Center              X                  Y                   Z               Mass
    ------------   -----------------  -----------------  -----------------  -----------------
         BR          -1.197591742657    -0.157657017380     0.011453426856    78.918337600000
         O            1.009510257343     1.582072982620     0.011779426856    15.994914619570
         C            1.645160257343    -0.771328017380     0.012345426856    12.000000000000
         C            3.112562257343    -0.363207017380     0.010927426856    12.000000000000
         C            0.662949657343     0.360312182620    -0.119195673144    12.000000000000
         H            1.382519257343    -1.375896017380     0.887487426856     1.007825032230
         H            1.381284257343    -1.378077017380    -0.860857573144     1.007825032230
         H            3.351811257343     0.230862982620    -0.873288573144     1.007825032230
         H            3.352999257343     0.232702982620     0.893570426856     1.007825032230
         H            3.744843257343    -1.254274017380     0.011409426856     1.007825032230

  Basis Set: AUG-CC-PVTZ
    Blend: AUG-CC-PVTZ
  Basis Set: (AUG-CC-PVTZ AUX)
    Blend: AUG-CC-PVTZ-JKFIT
	 Reference Energy          =   -2763.8930445580549531 [Eh]
	 Singles Energy            =      -0.0000000000000000 [Eh]
	 Same-Spin Energy          =      -0.2833945578942916 [Eh]
	 Opposite-Spin Energy      =      -0.8364198644750342 [Eh]
	 Correlation Energy        =      -1.1198144223693258 [Eh]
	 Total Energy              =   -2765.0128589804244257 [Eh]

	 ================> DF-SCS-MP2 Energies <==================
	-----------------------------------------------------------
	 SCS Same-Spin Scale       =       0.3333333333333333 [-]
	 SCS Opposite-Spin Scale   =       1.2000000000000000 [-]
	 SCS Same-Spin Energy      =      -0.0944648526314305 [Eh]
	 SCS Opposite-Spin Energy  =      -1.0037038373700411 [Eh]
	 SCS Correlation Energy    =      -1.0981686900014715 [Eh]
	 SCS Total Energy          =   -2764.9912132480562832 [Eh]
	-----------------------------------------------------------

  Dipole Moment: [D]
     X:     1.3783      Y:    -2.3792      Z:    -0.0347     Total:     2.7498

*** Psi4 exiting successfully. Buy a developer a beer!
