                               Psi4 1.3.2 release

  ==> Input File <==

--------------------------------------------------------------------------
#psi4
#
memory 32 gb

molecule  {
0 1
 Br       -1.3836610    -0.1471480    -0.0001220
  O        0.8234410     1.5925820     0.0002040
  C        1.4590910    -0.7608190     0.0007700
  C        2.9264930    -0.3526980    -0.0006480
  C        0.5888278     0.4630026     0.0876777
  H        1.1964500    -1.3653870     0.8759120
  H        1.1952150    -1.3675680    -0.8724330
  H        3.1657420     0.2413720    -0.8848640
  H        3.1669300     0.2432120     0.8819950
  H        3.5587740    -1.2437650    -0.0001660
units angstrom
no_reorient  #important for SAPT in psi4, default
symmetry c1  #important for SAPT in psi4, default
}

set PROPERTIES_ORIGIN ["COM"]
properties('MP2/aug-cc-pvtz', properties = ['dipole'])
--------------------------------------------------------------------------

    Molecular point group: c1
  Charge       = 0
  Multiplicity = 1
  Basis Set: AUG-CC-PVTZ
    Blend: AUG-CC-PVTZ
  Basis Set: (AUG-CC-PVTZ AUX)
    Blend: AUG-CC-PVTZ-JKFIT

    Orbital Energies [Eh]
    ---------------------

    Doubly Occupied:

       1A   -490.010686     2A    -65.150674     3A    -58.505786
       4A    -58.504674     5A    -58.504565     6A    -20.617129
       7A    -11.415455     8A    -11.281136     9A    -11.245653
      10A     -9.823263    11A     -7.433909    12A     -7.428661
      13A     -7.428223    14A     -3.177099    15A     -3.174625
      16A     -3.174009    17A     -3.167299    18A     -3.167285
      19A     -1.482469    20A     -1.099794    21A     -1.008524
      22A     -0.912442    23A     -0.774548    24A     -0.697413
      25A     -0.671645    26A     -0.651056    27A     -0.589563
      28A     -0.570566    29A     -0.549943    30A     -0.527994
      31A     -0.417573    32A     -0.412003    33A     -0.409016

  @DF-RHF Final Energy: -2763.91482302873146

   => Energetics <=

    Nuclear Repulsion Energy =            305.8219061863183583
    One-Electron Energy =               -4451.5040983203180076
    Two-Electron Energy =                1381.7673691052680169
    Total Energy =                      -2763.9148230287319166
  Basis Set: (AUG-CC-PVTZ AUX)
    Blend: AUG-CC-PVTZ-RI
    Molecular point group: c1

    Geometry (in Angstrom), charge = 0, multiplicity = 1:

       Center              X                  Y                   Z               Mass
    ------------   -----------------  -----------------  -----------------  -----------------
         BR          -1.207472914475    -0.165793519450    -0.007828219044    78.918337600000
         O            0.999629085525     1.573936480550    -0.007502219044    15.994914619570
         C            1.635279085525    -0.779464519450    -0.006936219044    12.000000000000
         C            3.102681085525    -0.371343519450    -0.008354219044    12.000000000000
         C            0.765015885525     0.444357080550     0.079971480956    12.000000000000
         H            1.372638085525    -1.384032519450     0.868205780956     1.007825032230
         H            1.371403085525    -1.386213519450    -0.880139219044     1.007825032230
         H            3.341930085525     0.222726480550    -0.892570219044     1.007825032230
         H            3.343118085525     0.224566480550     0.874288780956     1.007825032230
         H            3.734962085525    -1.262410519450    -0.007872219044     1.007825032230

  Basis Set: AUG-CC-PVTZ
    Blend: AUG-CC-PVTZ
  Basis Set: (AUG-CC-PVTZ AUX)
    Blend: AUG-CC-PVTZ-JKFIT
	 Reference Energy          =   -2763.9148230287314618 [Eh]
	 Singles Energy            =      -0.0000000000000000 [Eh]
	 Same-Spin Energy          =      -0.2801320170936997 [Eh]
	 Opposite-Spin Energy      =      -0.8283410632263637 [Eh]
	 Correlation Energy        =      -1.1084730803200635 [Eh]
	 Total Energy              =   -2765.0232961090514436 [Eh]

	 ================> DF-SCS-MP2 Energies <==================
	-----------------------------------------------------------
	 SCS Same-Spin Scale       =       0.3333333333333333 [-]
	 SCS Opposite-Spin Scale   =       1.2000000000000000 [-]
	 SCS Same-Spin Energy      =      -0.0933773390312332 [Eh]
	 SCS Opposite-Spin Energy  =      -0.9940092758716363 [Eh]
	 SCS Correlation Energy    =      -1.0873866149028695 [Eh]
	 SCS Total Energy          =   -2765.0022096436341599 [Eh]
	-----------------------------------------------------------

  Dipole Moment: [D]
     X:     2.8940      Y:    -1.7371      Z:     0.0549     Total:     3.3757

*** Psi4 exiting successfully. Buy a developer a beer!
