                               Psi4 1.3.2 release

  ==> Input File <==

--------------------------------------------------------------------------
#psi4
#
memory 32 gb

molecule  {
0 1
 Br       -1.3386815    -0.2799752    -0.0000783
  O        0.8234410     1.5925820     0.0002040
  C        1.4590910    -0.7608190     0.0007700
  C        2.9264930    -0.3526980    -0.0006480
  C        0.5406660     0.4304600     0.0002430
  H        1.1964500    -1.3653870     0.8759120
  H        1.1952150    -1.3675680    -0.8724330
  H        3.1657420     0.2413720    -0.8848640
  H        3.1669300     0.2432120     0.8819950
  H        3.5587740    -1.2437650    -0.0001660
units angstrom
no_reorient  #important for SAPT in psi4, default
symmetry c1  #important for SAPT in psi4, default
}

set PROPERTIES_ORIGIN ["COM"]
properties('MP2/aug-cc-pvtz', properties = ['dipole'])
--------------------------------------------------------------------------

    Molecular point group: c1
  Charge       = 0
  Multiplicity = 1
  Basis Set: AUG-CC-PVTZ
    Blend: AUG-CC-PVTZ
  Basis Set: (AUG-CC-PVTZ AUX)
    Blend: AUG-CC-PVTZ-JKFIT

    Orbital Energies [Eh]
    ---------------------

    Doubly Occupied:

       1A   -490.026457     2A    -65.166424     3A    -58.521591
       4A    -58.520393     5A    -58.520262     6A    -20.606929
       7A    -11.414259     8A    -11.273962     9A    -11.240441
      10A     -9.839105    11A     -7.450058    12A     -7.444360
      13A     -7.443832    14A     -3.193456    15A     -3.190709
      16A     -3.189981    17A     -3.182708    18A     -3.182689
      19A     -1.446213    20A     -1.098059    21A     -1.023796
      22A     -0.909918    23A     -0.765489    24A     -0.680307
      25A     -0.663145    26A     -0.644988    27A     -0.571782
      28A     -0.564019    29A     -0.542732    30A     -0.521089
      31A     -0.428491    32A     -0.424453    33A     -0.420742

  @DF-RHF Final Energy: -2763.91436208588129

   => Energetics <=

    Nuclear Repulsion Energy =            307.3263671175332092
    One-Electron Energy =               -4454.2557830049390759
    Two-Electron Energy =                1383.0150538015238908
    Total Energy =                      -2763.9143620858812938
  Basis Set: (AUG-CC-PVTZ AUX)
    Blend: AUG-CC-PVTZ-RI
    Molecular point group: c1

    Geometry (in Angstrom), charge = 0, multiplicity = 1:

       Center              X                  Y                   Z               Mass
    ------------   -----------------  -----------------  -----------------  -----------------
         BR          -1.184352287585    -0.218644089239    -0.000092357357    78.918337600000
         O            0.977770212415     1.653913110761     0.000189942643    15.994914619570
         C            1.613420212415    -0.699487889239     0.000755942643    12.000000000000
         C            3.080822212415    -0.291366889239    -0.000662057357    12.000000000000
         C            0.694995212415     0.491791110761     0.000228942643    12.000000000000
         H            1.350779212415    -1.304055889239     0.875897942643     1.007825032230
         H            1.349544212415    -1.306236889239    -0.872447057357     1.007825032230
         H            3.320071212415     0.302703110761    -0.884878057357     1.007825032230
         H            3.321259212415     0.304543110761     0.881980942643     1.007825032230
         H            3.713103212415    -1.182433889239    -0.000180057357     1.007825032230

  Basis Set: AUG-CC-PVTZ
    Blend: AUG-CC-PVTZ
  Basis Set: (AUG-CC-PVTZ AUX)
    Blend: AUG-CC-PVTZ-JKFIT
	 Reference Energy          =   -2763.9143620858812938 [Eh]
	 Singles Energy            =      -0.0000000000000000 [Eh]
	 Same-Spin Energy          =      -0.2814737414388245 [Eh]
	 Opposite-Spin Energy      =      -0.8311939303725399 [Eh]
	 Correlation Energy        =      -1.1126676718113644 [Eh]
	 Total Energy              =   -2765.0270297576926168 [Eh]

	 ================> DF-SCS-MP2 Energies <==================
	-----------------------------------------------------------
	 SCS Same-Spin Scale       =       0.3333333333333333 [-]
	 SCS Opposite-Spin Scale   =       1.2000000000000000 [-]
	 SCS Same-Spin Energy      =      -0.0938245804796081 [Eh]
	 SCS Opposite-Spin Energy  =      -0.9974327164470478 [Eh]
	 SCS Correlation Energy    =      -1.0912572969266559 [Eh]
	 SCS Total Energy          =   -2765.0056193828081632 [Eh]
	-----------------------------------------------------------

  Dipole Moment: [D]
     X:     2.1752      Y:    -1.9148      Z:     0.0009     Total:     2.8979

*** Psi4 exiting successfully. Buy a developer a beer!
