                               Psi4 1.4a3.dev225

  ==> Input File <==

--------------------------------------------------------------------------
#psi4
#
memory 32 gb

molecule  {
0 1
 Br       -1.3836660    -0.1471400     0.0000000
  O        0.8235020     1.5925660     0.0000000
  C        1.4590730    -0.7608090     0.0000000
  C        2.9264910    -0.3527110    -0.0000010
  C        0.5524823     0.4790418     0.0000000
  H        1.1958170    -1.3664940     0.8741710
  H        1.1958160    -1.3664970    -0.8741670
  H        3.1663090     0.2422710    -0.8834470
  H        3.1663120     0.2422700     0.8834460
  H        3.5586990    -1.2438130    -0.0000020
units angstrom
no_reorient  #important for SAPT in psi4, default
symmetry c1  #important for SAPT in psi4, default
}

set PROPERTIES_ORIGIN ["COM"]
properties('MP2/aug-cc-pvtz', properties = ['dipole'])
--------------------------------------------------------------------------

    Molecular point group: c1
  Charge       = 0
  Multiplicity = 1
  Basis Set: AUG-CC-PVTZ
    Blend: AUG-CC-PVTZ
  Basis Set: (AUG-CC-PVTZ AUX)
    Blend: AUG-CC-PVTZ-JKFIT

    Orbital Energies [Eh]
    ---------------------

    Doubly Occupied:

       1A   -490.015490     2A    -65.155534     3A    -58.510647
       4A    -58.509527     5A    -58.509409     6A    -20.613260
       7A    -11.410064     8A    -11.278549     9A    -11.242910
      10A     -9.828225    11A     -7.438952    12A     -7.433608
      13A     -7.433133    14A     -3.182194    15A     -3.179642
      16A     -3.178980    17A     -3.172180    18A     -3.172163
      19A     -1.487463    20A     -1.091057    21A     -1.014924
      22A     -0.906387    23A     -0.772130    24A     -0.694696
      25A     -0.667356    26A     -0.651788    27A     -0.591691
      28A     -0.569644    29A     -0.546147    30A     -0.525562
      31A     -0.418074    32A     -0.416813    33A     -0.413269

  @DF-RHF Final Energy: -2763.91809039344071

   => Energetics <=

    Nuclear Repulsion Energy =            306.4186233464454290
    One-Electron Energy =               -4452.6104864353465018
    Two-Electron Energy =                1382.2737726954603659
    Total Energy =                      -2763.9180903934411617
  Basis Set: (AUG-CC-PVTZ AUX)
    Blend: AUG-CC-PVTZ-RI
    Molecular point group: c1

    Geometry (in Angstrom), charge = 0, multiplicity = 1:

       Center              X                  Y                   Z               Mass
    ------------   -----------------  -----------------  -----------------  -----------------
         BR          -1.204271172919    -0.167202793925     0.000000080853    78.918337600000
         O            1.002896827081     1.572503206075     0.000000080853    15.994914619570
         C            1.638467827081    -0.780871793925     0.000000080853    12.000000000000
         C            3.105885827081    -0.372773793925    -0.000000919147    12.000000000000
         C            0.731877127081     0.458979006075     0.000000080853    12.000000000000
         H            1.375211827081    -1.386556793925     0.874171080853     1.007825032230
         H            1.375210827081    -1.386559793925    -0.874166919147     1.007825032230
         H            3.345703827081     0.222208206075    -0.883446919147     1.007825032230
         H            3.345706827081     0.222207206075     0.883446080853     1.007825032230
         H            3.738093827081    -1.263875793925    -0.000001919147     1.007825032230

  Basis Set: AUG-CC-PVTZ
    Blend: AUG-CC-PVTZ
  Basis Set: (AUG-CC-PVTZ AUX)
    Blend: AUG-CC-PVTZ-JKFIT
	 Reference Energy          =   -2763.9180903934407070 [Eh]
	 Singles Energy            =      -0.0000000000000000 [Eh]
	 Same-Spin Energy          =      -0.2794928805056949 [Eh]
	 Opposite-Spin Energy      =      -0.8270756977749132 [Eh]
	 Correlation Energy        =      -1.1065685782806081 [Eh]
	 Total Energy              =   -2765.0246589717212373 [Eh]

	 ================> DF-SCS-MP2 Energies <==================
	-----------------------------------------------------------
	 SCS Same-Spin Scale       =       0.3333333333333333 [-]
	 SCS Opposite-Spin Scale   =       1.2000000000000000 [-]
	 SCS Same-Spin Energy      =      -0.0931642935018983 [Eh]
	 SCS Opposite-Spin Energy  =      -0.9924908373298957 [Eh]
	 SCS Correlation Energy    =      -1.0856551308317941 [Eh]
	 SCS Total Energy          =   -2765.0037455242722899 [Eh]
	-----------------------------------------------------------

  Dipole Moment: [D]
     X:     2.5895      Y:    -1.7147      Z:     0.0000     Total:     3.1058

*** Psi4 exiting successfully. Buy a developer a beer!
