                               Psi4 1.3.2 release

  ==> Input File <==

--------------------------------------------------------------------------
#psi4
#
memory 32 gb

molecule  {
0 1
 Br       -1.3836610    -0.1471480    -0.0001220
  O        0.8234410     1.5925820     0.0002040
  C        1.4590910    -0.7608190     0.0007700
  C        2.9513876    -0.4560529    -0.0005642
  C        0.5406660     0.4304600     0.0002430
  H        1.1964500    -1.3653870     0.8759120
  H        1.1952150    -1.3675680    -0.8724330
  H        3.1657420     0.2413720    -0.8848640
  H        3.1669300     0.2432120     0.8819950
  H        3.5587740    -1.2437650    -0.0001660
units angstrom
no_reorient  #important for SAPT in psi4, default
symmetry c1  #important for SAPT in psi4, default
}

set PROPERTIES_ORIGIN ["COM"]
properties('MP2/aug-cc-pvtz', properties = ['dipole'])
--------------------------------------------------------------------------

    Molecular point group: c1
  Charge       = 0
  Multiplicity = 1
  Basis Set: AUG-CC-PVTZ
    Blend: AUG-CC-PVTZ
  Basis Set: (AUG-CC-PVTZ AUX)
    Blend: AUG-CC-PVTZ-JKFIT

    Orbital Energies [Eh]
    ---------------------

    Doubly Occupied:

       1A   -490.027372     2A    -65.167259     3A    -58.522449
       4A    -58.521220     5A    -58.521096     6A    -20.604349
       7A    -11.414864     8A    -11.275829     9A    -11.243234
      10A     -9.839871    11A     -7.450885    12A     -7.445066
      13A     -7.444554    14A     -3.194325    15A     -3.191512
      16A     -3.190805    17A     -3.183367    18A     -3.183350
      19A     -1.445120    20A     -1.095988    21A     -1.024495
      22A     -0.915272    23A     -0.764134    24A     -0.683815
      25A     -0.658323    26A     -0.645235    27A     -0.596980
      28A     -0.564004    29A     -0.531906    30A     -0.501820
      31A     -0.432677    32A     -0.424049    33A     -0.420836

  @DF-RHF Final Energy: -2763.90275874531017

   => Energetics <=

    Nuclear Repulsion Energy =            305.9407113492223402
    One-Electron Energy =               -4451.4348168599599376
    Two-Electron Energy =                1381.5913467654277156
    Total Energy =                      -2763.9027587453097112
  Basis Set: (AUG-CC-PVTZ AUX)
    Blend: AUG-CC-PVTZ-RI
    Molecular point group: c1

    Geometry (in Angstrom), charge = 0, multiplicity = 1:

       Center              X                  Y                   Z               Mass
    ------------   -----------------  -----------------  -----------------  -----------------
         BR          -1.205419207101    -0.153798363268    -0.000118086863    78.918337600000
         O            1.001682792899     1.585931636732     0.000207913137    15.994914619570
         C            1.637332792899    -0.767469363268     0.000773913137    12.000000000000
         C            3.129629392899    -0.462703263268    -0.000560286863    12.000000000000
         C            0.718907792899     0.423809636732     0.000246913137    12.000000000000
         H            1.374691792899    -1.372037363268     0.875915913137     1.007825032230
         H            1.373456792899    -1.374218363268    -0.872429086863     1.007825032230
         H            3.343983792899     0.234721636732    -0.884860086863     1.007825032230
         H            3.345171792899     0.236561636732     0.881998913137     1.007825032230
         H            3.737015792899    -1.250415363268    -0.000162086863     1.007825032230

  Basis Set: AUG-CC-PVTZ
    Blend: AUG-CC-PVTZ
  Basis Set: (AUG-CC-PVTZ AUX)
    Blend: AUG-CC-PVTZ-JKFIT
	 Reference Energy          =   -2763.9027587453101660 [Eh]
	 Singles Energy            =      -0.0000000000000000 [Eh]
	 Same-Spin Energy          =      -0.2811140016009941 [Eh]
	 Opposite-Spin Energy      =      -0.8311031168900165 [Eh]
	 Correlation Energy        =      -1.1122171184910106 [Eh]
	 Total Energy              =   -2765.0149758638012827 [Eh]

	 ================> DF-SCS-MP2 Energies <==================
	-----------------------------------------------------------
	 SCS Same-Spin Scale       =       0.3333333333333333 [-]
	 SCS Opposite-Spin Scale   =       1.2000000000000000 [-]
	 SCS Same-Spin Energy      =      -0.0937046672003314 [Eh]
	 SCS Opposite-Spin Energy  =      -0.9973237402680197 [Eh]
	 SCS Correlation Energy    =      -1.0910284074683512 [Eh]
	 SCS Total Energy          =   -2764.9937871527786228 [Eh]
	-----------------------------------------------------------

  Dipole Moment: [D]
     X:     2.1542      Y:    -2.0325      Z:     0.0009     Total:     2.9617

*** Psi4 exiting successfully. Buy a developer a beer!
