                               Psi4 1.3.2 release

  ==> Input File <==

--------------------------------------------------------------------------
#psi4
#
memory 32 gb

molecule  {
0 1
 Br       -1.3623305    -0.2139542    -0.0001003
  O        0.8234410     1.5925820     0.0002040
  C        1.4590910    -0.7608190     0.0007700
  C        2.9264930    -0.3526980    -0.0006480
  C        0.5406660     0.4304600     0.0002430
  H        1.1964500    -1.3653870     0.8759120
  H        1.1952150    -1.3675680    -0.8724330
  H        3.1657420     0.2413720    -0.8848640
  H        3.1669300     0.2432120     0.8819950
  H        3.5587740    -1.2437650    -0.0001660
units angstrom
no_reorient  #important for SAPT in psi4, default
symmetry c1  #important for SAPT in psi4, default
}

set PROPERTIES_ORIGIN ["COM"]
properties('MP2/aug-cc-pvtz', properties = ['dipole'])
--------------------------------------------------------------------------

    Molecular point group: c1
  Charge       = 0
  Multiplicity = 1
  Basis Set: AUG-CC-PVTZ
    Blend: AUG-CC-PVTZ
  Basis Set: (AUG-CC-PVTZ AUX)
    Blend: AUG-CC-PVTZ-JKFIT

    Orbital Energies [Eh]
    ---------------------

    Doubly Occupied:

       1A   -490.025978     2A    -65.165924     3A    -58.521093
       4A    -58.519894     5A    -58.519767     6A    -20.605414
       7A    -11.413690     8A    -11.275063     9A    -11.241267
      10A     -9.838586    11A     -7.449538    12A     -7.443837
      13A     -7.443315    14A     -3.192939    15A     -3.190186
      16A     -3.189468    17A     -3.182190    18A     -3.182172
      19A     -1.445552    20A     -1.097236    21A     -1.023563
      22A     -0.910885    23A     -0.765036    24A     -0.680642
      25A     -0.663336    26A     -0.644050    27A     -0.571525
      28A     -0.564364    29A     -0.542924    30A     -0.521325
      31A     -0.428542    32A     -0.423740    33A     -0.420631

  @DF-RHF Final Energy: -2763.91566771668568

   => Energetics <=

    Nuclear Repulsion Energy =            306.8884791939549928
    One-Electron Energy =               -4453.4009521721136480
    Two-Electron Energy =                1382.5968052614723547
    Total Energy =                      -2763.9156677166856753
  Basis Set: (AUG-CC-PVTZ AUX)
    Blend: AUG-CC-PVTZ-RI
    Molecular point group: c1

    Geometry (in Angstrom), charge = 0, multiplicity = 1:

       Center              X                  Y                   Z               Mass
    ------------   -----------------  -----------------  -----------------  -----------------
         BR          -1.194273394025    -0.190947300019    -0.000101586683    78.918337600000
         O            0.991498105975     1.615588899981     0.000202713317    15.994914619570
         C            1.627148105975    -0.737812100019     0.000768713317    12.000000000000
         C            3.094550105975    -0.329691100019    -0.000649286683    12.000000000000
         C            0.708723105975     0.453466899981     0.000241713317    12.000000000000
         H            1.364507105975    -1.342380100019     0.875910713317     1.007825032230
         H            1.363272105975    -1.344561100019    -0.872434286683     1.007825032230
         H            3.333799105975     0.264378899981    -0.884865286683     1.007825032230
         H            3.334987105975     0.266218899981     0.881993713317     1.007825032230
         H            3.726831105975    -1.220758100019    -0.000167286683     1.007825032230

  Basis Set: AUG-CC-PVTZ
    Blend: AUG-CC-PVTZ
  Basis Set: (AUG-CC-PVTZ AUX)
    Blend: AUG-CC-PVTZ-JKFIT
	 Reference Energy          =   -2763.9156677166856753 [Eh]
	 Singles Energy            =      -0.0000000000000000 [Eh]
	 Same-Spin Energy          =      -0.2812300783021943 [Eh]
	 Opposite-Spin Energy      =      -0.8307872298834389 [Eh]
	 Correlation Energy        =      -1.1120173081856333 [Eh]
	 Total Energy              =   -2765.0276850248715164 [Eh]

	 ================> DF-SCS-MP2 Energies <==================
	-----------------------------------------------------------
	 SCS Same-Spin Scale       =       0.3333333333333333 [-]
	 SCS Opposite-Spin Scale   =       1.2000000000000000 [-]
	 SCS Same-Spin Energy      =      -0.0937433594340648 [Eh]
	 SCS Opposite-Spin Energy  =      -0.9969446758601266 [Eh]
	 SCS Correlation Energy    =      -1.0906880352941914 [Eh]
	 SCS Total Energy          =   -2765.0063557519797541 [Eh]
	-----------------------------------------------------------

  Dipole Moment: [D]
     X:     2.2047      Y:    -1.9618      Z:     0.0009     Total:     2.9512

*** Psi4 exiting successfully. Buy a developer a beer!
