                               Psi4 1.3.2 release

  ==> Input File <==

--------------------------------------------------------------------------
#psi4
#
memory 32 gb

molecule  {
0 1
 Br       -1.3836610    -0.1471480    -0.0001220
  O        0.8234410     1.5925820     0.0002040
  C        1.4590910    -0.7608190     0.0007700
  C        2.9264930    -0.3526980    -0.0006480
  C        0.5182492     0.4120012    -0.0435000
  H        1.1964500    -1.3653870     0.8759120
  H        1.1952150    -1.3675680    -0.8724330
  H        3.1657420     0.2413720    -0.8848640
  H        3.1669300     0.2432120     0.8819950
  H        3.5587740    -1.2437650    -0.0001660
units angstrom
no_reorient  #important for SAPT in psi4, default
symmetry c1  #important for SAPT in psi4, default
}

set PROPERTIES_ORIGIN ["COM"]
properties('MP2/aug-cc-pvtz', properties = ['dipole'])
--------------------------------------------------------------------------

    Molecular point group: c1
  Charge       = 0
  Multiplicity = 1
  Basis Set: AUG-CC-PVTZ
    Blend: AUG-CC-PVTZ
  Basis Set: (AUG-CC-PVTZ AUX)
    Blend: AUG-CC-PVTZ-JKFIT

    Orbital Energies [Eh]
    ---------------------

    Doubly Occupied:

       1A   -490.032350     2A    -65.172259     3A    -58.527457
       4A    -58.526214     5A    -58.526083     6A    -20.598128
       7A    -11.413067     8A    -11.274404     9A    -11.240592
      10A     -9.844951    11A     -7.456057    12A     -7.450123
      13A     -7.449569    14A     -3.199564    15A     -3.196665
      16A     -3.195909    17A     -3.188343    18A     -3.188324
      19A     -1.424447    20A     -1.095909    21A     -1.029883
      22A     -0.911757    23A     -0.760647    24A     -0.673080
      25A     -0.660254    26A     -0.638630    27A     -0.562457
      28A     -0.561775    29A     -0.540016    30A     -0.517232
      31A     -0.434200    32A     -0.427228    33A     -0.424455

  @DF-RHF Final Energy: -2763.91222414039930

   => Energetics <=

    Nuclear Repulsion Energy =            306.7751466385327603
    One-Electron Energy =               -4453.0906775444072991
    Two-Electron Energy =                1382.4033067654754632
    Total Energy =                      -2763.9122241403993030
  Basis Set: (AUG-CC-PVTZ AUX)
    Blend: AUG-CC-PVTZ-RI
    Molecular point group: c1

    Geometry (in Angstrom), charge = 0, multiplicity = 1:

       Center              X                  Y                   Z               Mass
    ------------   -----------------  -----------------  -----------------  -----------------
         BR          -1.201243209513    -0.161291819577     0.003750338318    78.918337600000
         O            1.005858790487     1.578438180423     0.004076338318    15.994914619570
         C            1.641508790487    -0.774962819577     0.004642338318    12.000000000000
         C            3.108910790487    -0.366841819577     0.003224338318    12.000000000000
         C            0.700666990487     0.397857380423    -0.039627661682    12.000000000000
         H            1.378867790487    -1.379530819577     0.879784338318     1.007825032230
         H            1.377632790487    -1.381711819577    -0.868560661682     1.007825032230
         H            3.348159790487     0.227228180423    -0.880991661682     1.007825032230
         H            3.349347790487     0.229068180423     0.885867338318     1.007825032230
         H            3.741191790487    -1.257908819577     0.003706338318     1.007825032230

  Basis Set: AUG-CC-PVTZ
    Blend: AUG-CC-PVTZ
  Basis Set: (AUG-CC-PVTZ AUX)
    Blend: AUG-CC-PVTZ-JKFIT
	 Reference Energy          =   -2763.9122241403993030 [Eh]
	 Singles Energy            =      -0.0000000000000000 [Eh]
	 Same-Spin Energy          =      -0.2816591091830051 [Eh]
	 Opposite-Spin Energy      =      -0.8320365258083084 [Eh]
	 Correlation Energy        =      -1.1136956349913136 [Eh]
	 Total Energy              =   -2765.0259197753907756 [Eh]

	 ================> DF-SCS-MP2 Energies <==================
	-----------------------------------------------------------
	 SCS Same-Spin Scale       =       0.3333333333333333 [-]
	 SCS Opposite-Spin Scale   =       1.2000000000000000 [-]
	 SCS Same-Spin Energy      =      -0.0938863697276684 [Eh]
	 SCS Opposite-Spin Energy  =      -0.9984438309699701 [Eh]
	 SCS Correlation Energy    =      -1.0923302006976385 [Eh]
	 SCS Total Energy          =   -2765.0045543410969913 [Eh]
	-----------------------------------------------------------

  Dipole Moment: [D]
     X:     1.9277      Y:    -2.1414      Z:    -0.0178     Total:     2.8813

*** Psi4 exiting successfully. Buy a developer a beer!
