                               Psi4 1.3.2 release

  ==> Input File <==

--------------------------------------------------------------------------
#psi4
#
memory 32 gb

molecule  {
0 1
 Br       -1.3836610    -0.1471480    -0.0001220
  O        0.9038177     1.5700257     0.0002394
  C        1.4590910    -0.7608190     0.0007700
  C        2.9264930    -0.3526980    -0.0006480
  C        0.5406660     0.4304600     0.0002430
  H        1.1964500    -1.3653870     0.8759120
  H        1.1952150    -1.3675680    -0.8724330
  H        3.1657420     0.2413720    -0.8848640
  H        3.1669300     0.2432120     0.8819950
  H        3.5587740    -1.2437650    -0.0001660
units angstrom
no_reorient  #important for SAPT in psi4, default
symmetry c1  #important for SAPT in psi4, default
}

set PROPERTIES_ORIGIN ["COM"]
properties('MP2/aug-cc-pvtz', properties = ['dipole'])
--------------------------------------------------------------------------

    Molecular point group: c1
  Charge       = 0
  Multiplicity = 1
  Basis Set: AUG-CC-PVTZ
    Blend: AUG-CC-PVTZ
  Basis Set: (AUG-CC-PVTZ AUX)
    Blend: AUG-CC-PVTZ-JKFIT

    Orbital Energies [Eh]
    ---------------------

    Doubly Occupied:

       1A   -490.030332     2A    -65.170159     3A    -58.525362
       4A    -58.524118     5A    -58.523993     6A    -20.602835
       7A    -11.411601     8A    -11.272107     9A    -11.239245
      10A     -9.842715    11A     -7.453746    12A     -7.447882
      13A     -7.447367    14A     -3.197210    15A     -3.194372
      16A     -3.193669    17A     -3.186161    18A     -3.186144
      19A     -1.444470    20A     -1.093413    21A     -1.025738
      22A     -0.909670    23A     -0.762999    24A     -0.679900
      25A     -0.661616    26A     -0.643326    27A     -0.568870
      28A     -0.560404    29A     -0.539881    30A     -0.519261
      31A     -0.430307    32A     -0.426651    33A     -0.423980

  @DF-RHF Final Energy: -2763.91481936552418

   => Energetics <=

    Nuclear Repulsion Energy =            306.1428226287219445
    One-Electron Energy =               -4451.8362733665744599
    Two-Electron Energy =                1381.7786313723283911
    Total Energy =                      -2763.9148193655246359
  Basis Set: (AUG-CC-PVTZ AUX)
    Blend: AUG-CC-PVTZ-RI
    Molecular point group: c1

    Geometry (in Angstrom), charge = 0, multiplicity = 1:

       Center              X                  Y                   Z               Mass
    ------------   -----------------  -----------------  -----------------  -----------------
         BR          -1.212678243485    -0.160267339569    -0.000114854996    78.918337600000
         O            1.074800456515     1.556906360431     0.000246545004    15.994914619570
         C            1.630073756515    -0.773938339569     0.000777145004    12.000000000000
         C            3.097475756515    -0.365817339569    -0.000640854996    12.000000000000
         C            0.711648756515     0.417340660431     0.000250145004    12.000000000000
         H            1.367432756515    -1.378506339569     0.875919145004     1.007825032230
         H            1.366197756515    -1.380687339569    -0.872425854996     1.007825032230
         H            3.336724756515     0.228252660431    -0.884856854996     1.007825032230
         H            3.337912756515     0.230092660431     0.882002145004     1.007825032230
         H            3.729756756515    -1.256884339569    -0.000158854996     1.007825032230

  Basis Set: AUG-CC-PVTZ
    Blend: AUG-CC-PVTZ
  Basis Set: (AUG-CC-PVTZ AUX)
    Blend: AUG-CC-PVTZ-JKFIT
	 Reference Energy          =   -2763.9148193655241812 [Eh]
	 Singles Energy            =      -0.0000000000000000 [Eh]
	 Same-Spin Energy          =      -0.2811548922981333 [Eh]
	 Opposite-Spin Energy      =      -0.8308315399568149 [Eh]
	 Correlation Energy        =      -1.1119864322549482 [Eh]
	 Total Energy              =   -2765.0268057977791614 [Eh]

	 ================> DF-SCS-MP2 Energies <==================
	-----------------------------------------------------------
	 SCS Same-Spin Scale       =       0.3333333333333333 [-]
	 SCS Opposite-Spin Scale   =       1.2000000000000000 [-]
	 SCS Same-Spin Energy      =      -0.0937182974327111 [Eh]
	 SCS Opposite-Spin Energy  =      -0.9969978479481778 [Eh]
	 SCS Correlation Energy    =      -1.0907161453808889 [Eh]
	 SCS Total Energy          =   -2765.0055355109052471 [Eh]
	-----------------------------------------------------------

  Dipole Moment: [D]
     X:     1.9900      Y:    -1.9814      Z:     0.0008     Total:     2.8082

*** Psi4 exiting successfully. Buy a developer a beer!
