                               Psi4 1.3.2 release

  ==> Input File <==

--------------------------------------------------------------------------
#psi4
#
memory 32 gb

molecule  {
0 1
 Br       -1.3836610    -0.1471480    -0.0001220
  O        0.8031161     1.5973401     0.0001952
  C        1.4590910    -0.7608190     0.0007700
  C        2.9264930    -0.3526980    -0.0006480
  C        0.5406660     0.4304600     0.0002430
  H        1.1964500    -1.3653870     0.8759120
  H        1.1952150    -1.3675680    -0.8724330
  H        3.1657420     0.2413720    -0.8848640
  H        3.1669300     0.2432120     0.8819950
  H        3.5587740    -1.2437650    -0.0001660
units angstrom
no_reorient  #important for SAPT in psi4, default
symmetry c1  #important for SAPT in psi4, default
}

set PROPERTIES_ORIGIN ["COM"]
properties('MP2/aug-cc-pvtz', properties = ['dipole'])
--------------------------------------------------------------------------

    Molecular point group: c1
  Charge       = 0
  Multiplicity = 1
  Basis Set: AUG-CC-PVTZ
    Blend: AUG-CC-PVTZ
  Basis Set: (AUG-CC-PVTZ AUX)
    Blend: AUG-CC-PVTZ-JKFIT

    Orbital Energies [Eh]
    ---------------------

    Doubly Occupied:

       1A   -490.024172     2A    -65.164128     3A    -58.519292
       4A    -58.518100     5A    -58.517976     6A    -20.604145
       7A    -11.413534     8A    -11.277163     9A    -11.242749
      10A     -9.836800    11A     -7.447739    12A     -7.442062
      13A     -7.441547    14A     -3.191128    15A     -3.188386
      16A     -3.187676    17A     -3.180434    18A     -3.180416
      19A     -1.445100    20A     -1.097328    21A     -1.022533
      22A     -0.912342    23A     -0.765025    24A     -0.681318
      25A     -0.664068    26A     -0.643029    27A     -0.571865
      28A     -0.565785    29A     -0.543963    30A     -0.522170
      31A     -0.428670    32A     -0.421984    33A     -0.418554

  @DF-RHF Final Energy: -2763.91644934485885

   => Energetics <=

    Nuclear Repulsion Energy =            306.6335704746559259
    One-Electron Energy =               -4452.9376742395224937
    Two-Electron Energy =                1382.3876544200077205
    Total Energy =                      -2763.9164493448588473
  Basis Set: (AUG-CC-PVTZ AUX)
    Blend: AUG-CC-PVTZ-RI
    Molecular point group: c1

    Geometry (in Angstrom), charge = 0, multiplicity = 1:

       Center              X                  Y                   Z               Mass
    ------------   -----------------  -----------------  -----------------  -----------------
         BR          -1.200830613270    -0.163480902321    -0.000109654828    78.918337600000
         O            0.985946486730     1.581007197679     0.000207545172    15.994914619570
         C            1.641921386730    -0.777151902321     0.000782345172    12.000000000000
         C            3.109323386730    -0.369030902321    -0.000635654828    12.000000000000
         C            0.723496386730     0.414127097679     0.000255345172    12.000000000000
         H            1.379280386730    -1.381719902321     0.875924345172     1.007825032230
         H            1.378045386730    -1.383900902321    -0.872420654828     1.007825032230
         H            3.348572386730     0.225039097679    -0.884851654828     1.007825032230
         H            3.349760386730     0.226879097679     0.882007345172     1.007825032230
         H            3.741604386730    -1.260097902321    -0.000153654828     1.007825032230

  Basis Set: AUG-CC-PVTZ
    Blend: AUG-CC-PVTZ
  Basis Set: (AUG-CC-PVTZ AUX)
    Blend: AUG-CC-PVTZ-JKFIT
	 Reference Energy          =   -2763.9164493448588473 [Eh]
	 Singles Energy            =      -0.0000000000000000 [Eh]
	 Same-Spin Energy          =      -0.2809929615113184 [Eh]
	 Opposite-Spin Energy      =      -0.8303671697533226 [Eh]
	 Correlation Energy        =      -1.1113601312646408 [Eh]
	 Total Energy              =   -2765.0278094761233660 [Eh]

	 ================> DF-SCS-MP2 Energies <==================
	-----------------------------------------------------------
	 SCS Same-Spin Scale       =       0.3333333333333333 [-]
	 SCS Opposite-Spin Scale   =       1.2000000000000000 [-]
	 SCS Same-Spin Energy      =      -0.0936643205037728 [Eh]
	 SCS Opposite-Spin Energy  =      -0.9964406037039870 [Eh]
	 SCS Correlation Energy    =      -1.0901049242077598 [Eh]
	 SCS Total Energy          =   -2765.0065542690667826 [Eh]
	-----------------------------------------------------------

  Dipole Moment: [D]
     X:     2.2980      Y:    -2.0132      Z:     0.0009     Total:     3.0551

*** Psi4 exiting successfully. Buy a developer a beer!
