                               Psi4 1.3.2 release

  ==> Input File <==

--------------------------------------------------------------------------
#psi4
#
memory 32 gb

molecule  {
0 1
 Br       -1.3836610    -0.1471480    -0.0001220
  O        0.8436798     1.5874699     0.0002128
  C        1.4590910    -0.7608190     0.0007700
  C        2.9264930    -0.3526980    -0.0006480
  C        0.5406660     0.4304600     0.0002430
  H        1.1964500    -1.3653870     0.8759120
  H        1.1952150    -1.3675680    -0.8724330
  H        3.1657420     0.2413720    -0.8848640
  H        3.1669300     0.2432120     0.8819950
  H        3.5587740    -1.2437650    -0.0001660
units angstrom
no_reorient  #important for SAPT in psi4, default
symmetry c1  #important for SAPT in psi4, default
}

set PROPERTIES_ORIGIN ["COM"]
properties('MP2/aug-cc-pvtz', properties = ['dipole'])
--------------------------------------------------------------------------

    Molecular point group: c1
  Charge       = 0
  Multiplicity = 1
  Basis Set: AUG-CC-PVTZ
    Blend: AUG-CC-PVTZ
  Basis Set: (AUG-CC-PVTZ AUX)
    Blend: AUG-CC-PVTZ-JKFIT

    Orbital Energies [Eh]
    ---------------------

    Doubly Occupied:

       1A   -490.026677     2A    -65.166580     3A    -58.521759
       4A    -58.520547     5A    -58.520422     6A    -20.603641
       7A    -11.412736     8A    -11.275143     9A    -11.241366
      10A     -9.839203    11A     -7.450178    12A     -7.444428
      13A     -7.443913    14A     -3.193597    15A     -3.190817
      16A     -3.190110    17A     -3.182764    18A     -3.182747
      19A     -1.444784    20A     -1.095769    21A     -1.023863
      22A     -0.911279    23A     -0.764224    24A     -0.680680
      25A     -0.663062    26A     -0.643146    27A     -0.570682
      28A     -0.563677    29A     -0.542346    30A     -0.521007
      31A     -0.429346    32A     -0.423888    33A     -0.420926

  @DF-RHF Final Energy: -2763.91622218721022

   => Energetics <=

    Nuclear Repulsion Energy =            306.4113304934847406
    One-Electron Energy =               -4452.4444885374159639
    Two-Electron Energy =                1382.1169358567212839
    Total Energy =                      -2763.9162221872102236
  Basis Set: (AUG-CC-PVTZ AUX)
    Blend: AUG-CC-PVTZ-RI
    Molecular point group: c1

    Geometry (in Angstrom), charge = 0, multiplicity = 1:

       Center              X                  Y                   Z               Mass
    ------------   -----------------  -----------------  -----------------  -----------------
         BR          -1.205602967609    -0.162319664766    -0.000111725483    78.918337600000
         O            1.021737832391     1.572298235234     0.000223074517    15.994914619570
         C            1.637149032391    -0.775990664766     0.000780274517    12.000000000000
         C            3.104551032391    -0.367869664766    -0.000637725483    12.000000000000
         C            0.718724032391     0.415288335234     0.000253274517    12.000000000000
         H            1.374508032391    -1.380558664766     0.875922274517     1.007825032230
         H            1.373273032391    -1.382739664766    -0.872422725483     1.007825032230
         H            3.343800032391     0.226200335234    -0.884853725483     1.007825032230
         H            3.344988032391     0.228040335234     0.882005274517     1.007825032230
         H            3.736832032391    -1.258936664766    -0.000155725483     1.007825032230

  Basis Set: AUG-CC-PVTZ
    Blend: AUG-CC-PVTZ
  Basis Set: (AUG-CC-PVTZ AUX)
    Blend: AUG-CC-PVTZ-JKFIT
	 Reference Energy          =   -2763.9162221872102236 [Eh]
	 Singles Energy            =      -0.0000000000000000 [Eh]
	 Same-Spin Energy          =      -0.2810405856620821 [Eh]
	 Opposite-Spin Energy      =      -0.8305182947006071 [Eh]
	 Correlation Energy        =      -1.1115588803626892 [Eh]
	 Total Energy              =   -2765.0277810675729597 [Eh]

	 ================> DF-SCS-MP2 Energies <==================
	-----------------------------------------------------------
	 SCS Same-Spin Scale       =       0.3333333333333333 [-]
	 SCS Opposite-Spin Scale   =       1.2000000000000000 [-]
	 SCS Same-Spin Energy      =      -0.0936801952206940 [Eh]
	 SCS Opposite-Spin Energy  =      -0.9966219536407285 [Eh]
	 SCS Correlation Energy    =      -1.0903021488614226 [Eh]
	 SCS Total Energy          =   -2765.0065243360718341 [Eh]
	-----------------------------------------------------------

  Dipole Moment: [D]
     X:     2.1731      Y:    -2.0037      Z:     0.0009     Total:     2.9559

*** Psi4 exiting successfully. Buy a developer a beer!
