                               Psi4 1.4a3.dev225

  ==> Input File <==

--------------------------------------------------------------------------
#psi4
#
memory 32 gb

molecule  {
0 1
 Br       -1.3836660    -0.1471400     0.0000000
  O        0.8235020     1.5925660     0.0000000
  C        1.4590730    -0.7608090     0.0000000
  C        2.9264910    -0.3527110    -0.0000010
  C        0.5711864     0.3908618     0.0000000
  H        1.1958170    -1.3664940     0.8741710
  H        1.1958160    -1.3664970    -0.8741670
  H        3.1663090     0.2422710    -0.8834470
  H        3.1663120     0.2422700     0.8834460
  H        3.5586990    -1.2438130    -0.0000020
units angstrom
no_reorient  #important for SAPT in psi4, default
symmetry c1  #important for SAPT in psi4, default
}

set PROPERTIES_ORIGIN ["COM"]
properties('MP2/aug-cc-pvtz', properties = ['dipole'])
--------------------------------------------------------------------------

    Molecular point group: c1
  Charge       = 0
  Multiplicity = 1
  Basis Set: AUG-CC-PVTZ
    Blend: AUG-CC-PVTZ
  Basis Set: (AUG-CC-PVTZ AUX)
    Blend: AUG-CC-PVTZ-JKFIT

    Orbital Energies [Eh]
    ---------------------

    Doubly Occupied:

       1A   -490.025206     2A    -65.165018     3A    -58.520216
       4A    -58.518984     5A    -58.518863     6A    -20.602138
       7A    -11.418148     8A    -11.276766     9A    -11.244541
      10A     -9.837529    11A     -7.448509    12A     -7.442722
      13A     -7.442222    14A     -3.191936    15A     -3.189161
      16A     -3.188471    17A     -3.181040    18A     -3.181023
      19A     -1.422856    20A     -1.109105    21A     -1.020809
      22A     -0.921052    23A     -0.764137    24A     -0.678330
      25A     -0.668454    26A     -0.639277    27A     -0.562791
      28A     -0.562479    29A     -0.544978    30A     -0.519981
      31A     -0.433789    32A     -0.421427    33A     -0.417630

  @DF-RHF Final Energy: -2763.90865993317311

   => Energetics <=

    Nuclear Repulsion Energy =            306.1288906317379883
    One-Electron Energy =               -4451.9159270358986760
    Two-Electron Energy =                1381.8783764709876323
    Total Energy =                      -2763.9086599331731122
  Basis Set: (AUG-CC-PVTZ AUX)
    Blend: AUG-CC-PVTZ-RI
    Molecular point group: c1

    Geometry (in Angstrom), charge = 0, multiplicity = 1:

       Center              X                  Y                   Z               Mass
    ------------   -----------------  -----------------  -----------------  -----------------
         BR          -1.205922112787    -0.159419480236     0.000000080853    78.918337600000
         O            1.001245887213     1.580286519764     0.000000080853    15.994914619570
         C            1.636816887213    -0.773088480236     0.000000080853    12.000000000000
         C            3.104234887213    -0.364990480236    -0.000000919147    12.000000000000
         C            0.748930287213     0.378582319764     0.000000080853    12.000000000000
         H            1.373560887213    -1.378773480236     0.874171080853     1.007825032230
         H            1.373559887213    -1.378776480236    -0.874166919147     1.007825032230
         H            3.344052887213     0.229991519764    -0.883446919147     1.007825032230
         H            3.344055887213     0.229990519764     0.883446080853     1.007825032230
         H            3.736442887213    -1.256092480236    -0.000001919147     1.007825032230

  Basis Set: AUG-CC-PVTZ
    Blend: AUG-CC-PVTZ
  Basis Set: (AUG-CC-PVTZ AUX)
    Blend: AUG-CC-PVTZ-JKFIT
	 Reference Energy          =   -2763.9086599331731122 [Eh]
	 Singles Energy            =      -0.0000000000000000 [Eh]
	 Same-Spin Energy          =      -0.2823333623383976 [Eh]
	 Opposite-Spin Energy      =      -0.8330198138565699 [Eh]
	 Correlation Energy        =      -1.1153531761949673 [Eh]
	 Total Energy              =   -2765.0240131093682976 [Eh]

	 ================> DF-SCS-MP2 Energies <==================
	-----------------------------------------------------------
	 SCS Same-Spin Scale       =       0.3333333333333333 [-]
	 SCS Opposite-Spin Scale   =       1.2000000000000000 [-]
	 SCS Same-Spin Energy      =      -0.0941111207794658 [Eh]
	 SCS Opposite-Spin Energy  =      -0.9996237766278838 [Eh]
	 SCS Correlation Energy    =      -1.0937348974073497 [Eh]
	 SCS Total Energy          =   -2765.0023948305806698 [Eh]
	-----------------------------------------------------------

  Dipole Moment: [D]
     X:     2.3778      Y:    -2.1720      Z:     0.0000     Total:     3.2205

*** Psi4 exiting successfully. Buy a developer a beer!
