                               Psi4 1.3.2 release

  ==> Input File <==

--------------------------------------------------------------------------
#psi4
#
memory 32 gb

molecule  {
0 1
 Br       -1.3836610    -0.1471480    -0.0001220
  O        0.7004171     1.6157738     0.0001514
  C        1.4590910    -0.7608190     0.0007700
  C        2.9264930    -0.3526980    -0.0006480
  C        0.5406660     0.4304600     0.0002430
  H        1.1964500    -1.3653870     0.8759120
  H        1.1952150    -1.3675680    -0.8724330
  H        3.1657420     0.2413720    -0.8848640
  H        3.1669300     0.2432120     0.8819950
  H        3.5587740    -1.2437650    -0.0001660
units angstrom
no_reorient  #important for SAPT in psi4, default
symmetry c1  #important for SAPT in psi4, default
}

set PROPERTIES_ORIGIN ["COM"]
properties('MP2/aug-cc-pvtz', properties = ['dipole'])
--------------------------------------------------------------------------

    Molecular point group: c1
  Charge       = 0
  Multiplicity = 1
  Basis Set: AUG-CC-PVTZ
    Blend: AUG-CC-PVTZ
  Basis Set: (AUG-CC-PVTZ AUX)
    Blend: AUG-CC-PVTZ-JKFIT

    Orbital Energies [Eh]
    ---------------------

    Doubly Occupied:

       1A   -490.017678     2A    -65.157777     3A    -58.512901
       4A    -58.511758     5A    -58.511633     6A    -20.605292
       7A    -11.415680     8A    -11.282183     9A    -11.246095
      10A     -9.830583    11A     -7.441439    12A     -7.435927
      13A     -7.435414    14A     -3.184751    15A     -3.182102
      16A     -3.181386    17A     -3.174384    18A     -3.174366
      19A     -1.446258    20A     -1.101163    21A     -1.018959
      22A     -0.914939    23A     -0.766995    24A     -0.683253
      25A     -0.666695    26A     -0.642768    27A     -0.574762
      28A     -0.570805    29A     -0.547911    30A     -0.525062
      31A     -0.426697    32A     -0.417014    33A     -0.411655

  @DF-RHF Final Energy: -2763.91456027311506

   => Energetics <=

    Nuclear Repulsion Energy =            307.3438842815835983
    One-Electron Energy =               -4454.4843198069420396
    Two-Electron Energy =                1383.2258752522432133
    Total Energy =                      -2763.9145602731150575
  Basis Set: (AUG-CC-PVTZ AUX)
    Blend: AUG-CC-PVTZ-RI
    Molecular point group: c1

    Geometry (in Angstrom), charge = 0, multiplicity = 1:

       Center              X                  Y                   Z               Mass
    ------------   -----------------  -----------------  -----------------  -----------------
         BR          -1.188747987220    -0.165649643047    -0.000104501720    78.918337600000
         O            0.895330112780     1.597272156953     0.000168898280    15.994914619570
         C            1.654004012780    -0.779320643047     0.000787498280    12.000000000000
         C            3.121406012780    -0.371199643047    -0.000630501720    12.000000000000
         C            0.735579012780     0.411958356953     0.000260498280    12.000000000000
         H            1.391363012780    -1.383888643047     0.875929498280     1.007825032230
         H            1.390128012780    -1.386069643047    -0.872415501720     1.007825032230
         H            3.360655012780     0.222870356953    -0.884846501720     1.007825032230
         H            3.361843012780     0.224710356953     0.882012498280     1.007825032230
         H            3.753687012780    -1.262266643047    -0.000148501720     1.007825032230

  Basis Set: AUG-CC-PVTZ
    Blend: AUG-CC-PVTZ
  Basis Set: (AUG-CC-PVTZ AUX)
    Blend: AUG-CC-PVTZ-JKFIT
	 Reference Energy          =   -2763.9145602731150575 [Eh]
	 Singles Energy            =      -0.0000000000000000 [Eh]
	 Same-Spin Energy          =      -0.2809686221533114 [Eh]
	 Opposite-Spin Energy      =      -0.8301781632056545 [Eh]
	 Correlation Energy        =      -1.1111467853589660 [Eh]
	 Total Energy              =   -2765.0257070584739267 [Eh]

	 ================> DF-SCS-MP2 Energies <==================
	-----------------------------------------------------------
	 SCS Same-Spin Scale       =       0.3333333333333333 [-]
	 SCS Opposite-Spin Scale   =       1.2000000000000000 [-]
	 SCS Same-Spin Energy      =      -0.0936562073844371 [Eh]
	 SCS Opposite-Spin Energy  =      -0.9962137958467854 [Eh]
	 SCS Correlation Energy    =      -1.0898700032312225 [Eh]
	 SCS Total Energy          =   -2765.0044302763462838 [Eh]
	-----------------------------------------------------------

  Dipole Moment: [D]
     X:     2.6189      Y:    -2.0182      Z:     0.0010     Total:     3.3064

*** Psi4 exiting successfully. Buy a developer a beer!
