                               Psi4 1.3.2 release

  ==> Input File <==

--------------------------------------------------------------------------
#psi4
#
memory 32 gb

molecule  {
0 1
 Br       -1.4192653    -0.0115067    -0.0001639
  O        0.8234410     1.5925820     0.0002040
  C        1.4590910    -0.7608190     0.0007700
  C        2.9264930    -0.3526980    -0.0006480
  C        0.5406660     0.4304600     0.0002430
  H        1.1964500    -1.3653870     0.8759120
  H        1.1952150    -1.3675680    -0.8724330
  H        3.1657420     0.2413720    -0.8848640
  H        3.1669300     0.2432120     0.8819950
  H        3.5587740    -1.2437650    -0.0001660
units angstrom
no_reorient  #important for SAPT in psi4, default
symmetry c1  #important for SAPT in psi4, default
}

set PROPERTIES_ORIGIN ["COM"]
properties('MP2/aug-cc-pvtz', properties = ['dipole'])
--------------------------------------------------------------------------

    Molecular point group: c1
  Charge       = 0
  Multiplicity = 1
  Basis Set: AUG-CC-PVTZ
    Blend: AUG-CC-PVTZ
  Basis Set: (AUG-CC-PVTZ AUX)
    Blend: AUG-CC-PVTZ-JKFIT

    Orbital Energies [Eh]
    ---------------------

    Doubly Occupied:

       1A   -490.024147     2A    -65.164054     3A    -58.519232
       4A    -58.518018     5A    -58.517898     6A    -20.600847
       7A    -11.412045     8A    -11.278302     9A    -11.243557
      10A     -9.836687    11A     -7.447666    12A     -7.441903
      13A     -7.441401    14A     -3.191081    15A     -3.188298
      16A     -3.187604    17A     -3.180243    18A     -3.180227
      19A     -1.443828    20A     -1.095534    21A     -1.022131
      22A     -0.913562    23A     -0.763922    24A     -0.681708
      25A     -0.664099    26A     -0.641103    27A     -0.570810
      28A     -0.565565    29A     -0.543708    30A     -0.522175
      31A     -0.430579    32A     -0.421115    33A     -0.416510

  @DF-RHF Final Energy: -2763.91624913782471

   => Energetics <=

    Nuclear Repulsion Energy =            305.9759893290479340
    One-Electron Energy =               -4451.6453610038888655
    Two-Electron Energy =                1381.7531225370169068
    Total Energy =                      -2763.9162491378247068
  Basis Set: (AUG-CC-PVTZ AUX)
    Blend: AUG-CC-PVTZ-RI
    Molecular point group: c1

    Geometry (in Angstrom), charge = 0, multiplicity = 1:

       Center              X                  Y                   Z               Mass
    ------------   -----------------  -----------------  -----------------  -----------------
         BR          -1.218158387510    -0.106017569543    -0.000128267827    78.918337600000
         O            1.024547912490     1.498071130457     0.000239632173    15.994914619570
         C            1.660197912490    -0.855329869543     0.000805632173    12.000000000000
         C            3.127599912490    -0.447208869543    -0.000612367827    12.000000000000
         C            0.741772912490     0.335949130457     0.000278632173    12.000000000000
         H            1.397556912490    -1.459897869543     0.875947632173     1.007825032230
         H            1.396321912490    -1.462078869543    -0.872397367827     1.007825032230
         H            3.366848912490     0.146861130457    -0.884828367827     1.007825032230
         H            3.368036912490     0.148701130457     0.882030632173     1.007825032230
         H            3.759880912490    -1.338275869543    -0.000130367827     1.007825032230

  Basis Set: AUG-CC-PVTZ
    Blend: AUG-CC-PVTZ
  Basis Set: (AUG-CC-PVTZ AUX)
    Blend: AUG-CC-PVTZ-JKFIT
	 Reference Energy          =   -2763.9162491378247068 [Eh]
	 Singles Energy            =      -0.0000000000000000 [Eh]
	 Same-Spin Energy          =      -0.2806594654375311 [Eh]
	 Opposite-Spin Energy      =      -0.8298994920121083 [Eh]
	 Correlation Energy        =      -1.1105589574496393 [Eh]
	 Total Energy              =   -2765.0268080952741911 [Eh]

	 ================> DF-SCS-MP2 Energies <==================
	-----------------------------------------------------------
	 SCS Same-Spin Scale       =       0.3333333333333333 [-]
	 SCS Opposite-Spin Scale   =       1.2000000000000000 [-]
	 SCS Same-Spin Energy      =      -0.0935531551458437 [Eh]
	 SCS Opposite-Spin Energy  =      -0.9958793904145300 [Eh]
	 SCS Correlation Energy    =      -1.0894325455603737 [Eh]
	 SCS Total Energy          =   -2765.0056816833848643 [Eh]
	-----------------------------------------------------------

  Dipole Moment: [D]
     X:     2.2994      Y:    -2.1035      Z:     0.0009     Total:     3.1164

*** Psi4 exiting successfully. Buy a developer a beer!
