                               Psi4 1.3.2 release

  ==> Input File <==

--------------------------------------------------------------------------
#psi4
#
memory 32 gb

molecule  {
0 1
 Br       -1.3836610    -0.1471480    -0.0001220
  O        0.8234410     1.5925820     0.0002040
  C        1.4590910    -0.7608190     0.0007700
  C        2.8757940    -0.2015485    -0.0007606
  C        0.5406660     0.4304600     0.0002430
  H        1.1964500    -1.3653870     0.8759120
  H        1.1952150    -1.3675680    -0.8724330
  H        3.1657420     0.2413720    -0.8848640
  H        3.1669300     0.2432120     0.8819950
  H        3.5587740    -1.2437650    -0.0001660
units angstrom
no_reorient  #important for SAPT in psi4, default
symmetry c1  #important for SAPT in psi4, default
}

set PROPERTIES_ORIGIN ["COM"]
properties('MP2/aug-cc-pvtz', properties = ['dipole'])
--------------------------------------------------------------------------

    Molecular point group: c1
  Charge       = 0
  Multiplicity = 1
  Basis Set: AUG-CC-PVTZ
    Blend: AUG-CC-PVTZ
  Basis Set: (AUG-CC-PVTZ AUX)
    Blend: AUG-CC-PVTZ-JKFIT

    Orbital Energies [Eh]
    ---------------------

    Doubly Occupied:

       1A   -490.023524     2A    -65.163506     3A    -58.518654
       4A    -58.517486     5A    -58.517360     6A    -20.604450
       7A    -11.411931     8A    -11.279911     9A    -11.247205
      10A     -9.836199    11A     -7.447082    12A     -7.441503
      13A     -7.440983    14A     -3.190440    15A     -3.187747
      16A     -3.187034    17A     -3.179923    18A     -3.179905
      19A     -1.446172    20A     -1.099924    21A     -1.022917
      22A     -0.913147    23A     -0.766420    24A     -0.678968
      25A     -0.677164    26A     -0.644835    27A     -0.589096
      28A     -0.563951    29A     -0.538552    30A     -0.505178
      31A     -0.423710    32A     -0.422026    33A     -0.418498

  @DF-RHF Final Energy: -2763.89264835494123

   => Energetics <=

    Nuclear Repulsion Energy =            307.5337341473579613
    One-Electron Energy =               -4454.6819636293776057
    Two-Electron Energy =                1383.2555811270781305
    Total Energy =                      -2763.8926483549416844
  Basis Set: (AUG-CC-PVTZ AUX)
    Blend: AUG-CC-PVTZ-RI
    Molecular point group: c1

    Geometry (in Angstrom), charge = 0, multiplicity = 1:

       Center              X                  Y                   Z               Mass
    ------------   -----------------  -----------------  -----------------  -----------------
         BR          -1.198746847136    -0.176262500040    -0.000100751381    78.918337600000
         O            1.008355152864     1.563467499960     0.000225248619    15.994914619570
         C            1.644005152864    -0.789933500040     0.000791248619    12.000000000000
         C            3.060708152864    -0.230663000040    -0.000739351381    12.000000000000
         C            0.725580152864     0.401345499960     0.000264248619    12.000000000000
         H            1.381364152864    -1.394501500040     0.875933248619     1.007825032230
         H            1.380129152864    -1.396682500040    -0.872411751381     1.007825032230
         H            3.350656152864     0.212257499960    -0.884842751381     1.007825032230
         H            3.351844152864     0.214097499960     0.882016248619     1.007825032230
         H            3.743688152864    -1.272879500040    -0.000144751381     1.007825032230

  Basis Set: AUG-CC-PVTZ
    Blend: AUG-CC-PVTZ
  Basis Set: (AUG-CC-PVTZ AUX)
    Blend: AUG-CC-PVTZ-JKFIT
	 Reference Energy          =   -2763.8926483549412296 [Eh]
	 Singles Energy            =      -0.0000000000000000 [Eh]
	 Same-Spin Energy          =      -0.2815786692504586 [Eh]
	 Opposite-Spin Energy      =      -0.8315877503873973 [Eh]
	 Correlation Energy        =      -1.1131664196378559 [Eh]
	 Total Energy              =   -2765.0058147745789938 [Eh]

	 ================> DF-SCS-MP2 Energies <==================
	-----------------------------------------------------------
	 SCS Same-Spin Scale       =       0.3333333333333333 [-]
	 SCS Opposite-Spin Scale   =       1.2000000000000000 [-]
	 SCS Same-Spin Energy      =      -0.0938595564168195 [Eh]
	 SCS Opposite-Spin Energy  =      -0.9979053004648767 [Eh]
	 SCS Correlation Energy    =      -1.0917648568816962 [Eh]
	 SCS Total Energy          =   -2764.9844132118228117 [Eh]
	-----------------------------------------------------------

  Dipole Moment: [D]
     X:     2.2588      Y:    -1.9402      Z:     0.0009     Total:     2.9777

*** Psi4 exiting successfully. Buy a developer a beer!
