                               Psi4 1.3.2 release

  ==> Input File <==

--------------------------------------------------------------------------
#psi4
#
memory 32 gb

molecule  {
0 1
 Br       -1.3836610    -0.1471480    -0.0001220
  O        0.8234410     1.5925820     0.0002040
  C        1.4590910    -0.7608190     0.0007700
  C        2.9191468    -0.3271505    -0.0006679
  C        0.5406660     0.4304600     0.0002430
  H        1.1964500    -1.3653870     0.8759120
  H        1.1952150    -1.3675680    -0.8724330
  H        3.1657420     0.2413720    -0.8848640
  H        3.1669300     0.2432120     0.8819950
  H        3.5587740    -1.2437650    -0.0001660
units angstrom
no_reorient  #important for SAPT in psi4, default
symmetry c1  #important for SAPT in psi4, default
}

set PROPERTIES_ORIGIN ["COM"]
properties('MP2/aug-cc-pvtz', properties = ['dipole'])
--------------------------------------------------------------------------

    Molecular point group: c1
  Charge       = 0
  Multiplicity = 1
  Basis Set: AUG-CC-PVTZ
    Blend: AUG-CC-PVTZ
  Basis Set: (AUG-CC-PVTZ AUX)
    Blend: AUG-CC-PVTZ-JKFIT

    Orbital Energies [Eh]
    ---------------------

    Doubly Occupied:

       1A   -490.025029     2A    -65.164968     3A    -58.520135
       4A    -58.518940     5A    -58.518815     6A    -20.603882
       7A    -11.412811     8A    -11.276525     9A    -11.242331
      10A     -9.837624    11A     -7.448567    12A     -7.442878
      13A     -7.442362    14A     -3.191963    15A     -3.189214
      16A     -3.188505    17A     -3.181244    18A     -3.181227
      19A     -1.445003    20A     -1.096905    21A     -1.023031
      22A     -0.911608    23A     -0.764871    24A     -0.680433
      25A     -0.665357    26A     -0.643133    27A     -0.573852
      28A     -0.558305    29A     -0.543333    30A     -0.525461
      31A     -0.428125    32A     -0.422724    33A     -0.419554

  @DF-RHF Final Energy: -2763.91561358004856

   => Energetics <=

    Nuclear Repulsion Energy =            306.6762210095232604
    One-Electron Energy =               -4453.0062374867784456
    Two-Electron Energy =                1382.4144028972070828
    Total Energy =                      -2763.9156135800485572
  Basis Set: (AUG-CC-PVTZ AUX)
    Blend: AUG-CC-PVTZ-RI
    Molecular point group: c1

    Geometry (in Angstrom), charge = 0, multiplicity = 1:

       Center              X                  Y                   Z               Mass
    ------------   -----------------  -----------------  -----------------  -----------------
         BR          -1.202573434136    -0.165176088541    -0.000108933658    78.918337600000
         O            1.004528565864     1.574553911459     0.000217066342    15.994914619570
         C            1.640178565864    -0.778847088541     0.000783066342    12.000000000000
         C            3.100234365864    -0.345178588541    -0.000654833658    12.000000000000
         C            0.721753565864     0.412431911459     0.000256066342    12.000000000000
         H            1.377537565864    -1.383415088541     0.875925066342     1.007825032230
         H            1.376302565864    -1.385596088541    -0.872419933658     1.007825032230
         H            3.346829565864     0.223343911459    -0.884850933658     1.007825032230
         H            3.348017565864     0.225183911459     0.882008066342     1.007825032230
         H            3.739861565864    -1.261793088541    -0.000152933658     1.007825032230

  Basis Set: AUG-CC-PVTZ
    Blend: AUG-CC-PVTZ
  Basis Set: (AUG-CC-PVTZ AUX)
    Blend: AUG-CC-PVTZ-JKFIT
	 Reference Energy          =   -2763.9156135800485572 [Eh]
	 Singles Energy            =      -0.0000000000000000 [Eh]
	 Same-Spin Energy          =      -0.2810502284746577 [Eh]
	 Opposite-Spin Energy      =      -0.8304600538694089 [Eh]
	 Correlation Energy        =      -1.1115102823440666 [Eh]
	 Total Energy              =   -2765.0271238623927275 [Eh]

	 ================> DF-SCS-MP2 Energies <==================
	-----------------------------------------------------------
	 SCS Same-Spin Scale       =       0.3333333333333333 [-]
	 SCS Opposite-Spin Scale   =       1.2000000000000000 [-]
	 SCS Same-Spin Energy      =      -0.0936834094915525 [Eh]
	 SCS Opposite-Spin Energy  =      -0.9965520646432906 [Eh]
	 SCS Correlation Energy    =      -1.0902354741348432 [Eh]
	 SCS Total Energy          =   -2765.0058490541832725 [Eh]
	-----------------------------------------------------------

  Dipole Moment: [D]
     X:     2.2470      Y:    -2.0003      Z:     0.0009     Total:     3.0083

*** Psi4 exiting successfully. Buy a developer a beer!
