                               Psi4 1.3.2 release

  ==> Input File <==

--------------------------------------------------------------------------
#psi4
#
memory 32 gb

molecule  {
0 1
 Br       -1.3836610    -0.1471480    -0.0001220
  O        0.8234410     1.5925820     0.0002040
  C        1.4590910    -0.7608190     0.0007700
  C        2.9264930    -0.3526980    -0.0006480
  C        0.5293160     0.4214107    -0.0216319
  H        1.1964500    -1.3653870     0.8759120
  H        1.1952150    -1.3675680    -0.8724330
  H        3.1657420     0.2413720    -0.8848640
  H        3.1669300     0.2432120     0.8819950
  H        3.5587740    -1.2437650    -0.0001660
units angstrom
no_reorient  #important for SAPT in psi4, default
symmetry c1  #important for SAPT in psi4, default
}

set PROPERTIES_ORIGIN ["COM"]
properties('MP2/aug-cc-pvtz', properties = ['dipole'])
--------------------------------------------------------------------------

    Molecular point group: c1
  Charge       = 0
  Multiplicity = 1
  Basis Set: AUG-CC-PVTZ
    Blend: AUG-CC-PVTZ
  Basis Set: (AUG-CC-PVTZ AUX)
    Blend: AUG-CC-PVTZ-JKFIT

    Orbital Energies [Eh]
    ---------------------

    Doubly Occupied:

       1A   -490.028938     2A    -65.168857     3A    -58.524041
       4A    -58.522819     5A    -58.522691     6A    -20.600936
       7A    -11.413016     8A    -11.275218     9A    -11.241299
      10A     -9.841525    11A     -7.452557    12A     -7.446732
      13A     -7.446197    14A     -3.196013    15A     -3.193183
      16A     -3.192450    17A     -3.185018    18A     -3.185000
      19A     -1.434786    20A     -1.096141    21A     -1.026620
      22A     -0.911760    23A     -0.762545    24A     -0.676957
      25A     -0.661861    26A     -0.640921    27A     -0.566750
      28A     -0.563261    29A     -0.541566    30A     -0.519529
      31A     -0.431668    32A     -0.425195    33A     -0.422190

  @DF-RHF Final Energy: -2763.91475753308350

   => Energetics <=

    Nuclear Repulsion Energy =            306.6538834041309656
    One-Electron Energy =               -4452.9008029650058234
    Two-Electron Energy =                1382.3321620277911279
    Total Energy =                      -2763.9147575330835025
  Basis Set: (AUG-CC-PVTZ AUX)
    Blend: AUG-CC-PVTZ-RI
    Molecular point group: c1

    Geometry (in Angstrom), charge = 0, multiplicity = 1:

       Center              X                  Y                   Z               Mass
    ------------   -----------------  -----------------  -----------------  -----------------
         BR          -1.202220033917    -0.162122360405     0.001820124186    78.918337600000
         O            1.004881966083     1.577607639595     0.002146124186    15.994914619570
         C            1.640531966083    -0.775793360405     0.002712124186    12.000000000000
         C            3.107933966083    -0.367672360405     0.001294124186    12.000000000000
         C            0.710756966083     0.406436339595    -0.019689775814    12.000000000000
         H            1.377890966083    -1.380361360405     0.877854124186     1.007825032230
         H            1.376655966083    -1.382542360405    -0.870490875814     1.007825032230
         H            3.347182966083     0.226397639595    -0.882921875814     1.007825032230
         H            3.348370966083     0.228237639595     0.883937124186     1.007825032230
         H            3.740214966083    -1.258739360405     0.001776124186     1.007825032230

  Basis Set: AUG-CC-PVTZ
    Blend: AUG-CC-PVTZ
  Basis Set: (AUG-CC-PVTZ AUX)
    Blend: AUG-CC-PVTZ-JKFIT
	 Reference Energy          =   -2763.9147575330835025 [Eh]
	 Singles Energy            =      -0.0000000000000000 [Eh]
	 Same-Spin Energy          =      -0.2813188194291244 [Eh]
	 Opposite-Spin Energy      =      -0.8311890909485716 [Eh]
	 Correlation Energy        =      -1.1125079103776960 [Eh]
	 Total Energy              =   -2765.0272654434611468 [Eh]

	 ================> DF-SCS-MP2 Energies <==================
	-----------------------------------------------------------
	 SCS Same-Spin Scale       =       0.3333333333333333 [-]
	 SCS Opposite-Spin Scale   =       1.2000000000000000 [-]
	 SCS Same-Spin Energy      =      -0.0937729398097081 [Eh]
	 SCS Opposite-Spin Energy  =      -0.9974269091382859 [Eh]
	 SCS Correlation Energy    =      -1.0911998489479942 [Eh]
	 SCS Total Energy          =   -2765.0059573820312835 [Eh]
	-----------------------------------------------------------

  Dipole Moment: [D]
     X:     2.0792      Y:    -2.0759      Z:    -0.0092     Total:     2.9381

*** Psi4 exiting successfully. Buy a developer a beer!
