                               Psi4 1.3.2 release

  ==> Input File <==

--------------------------------------------------------------------------
#psi4
#
memory 32 gb

molecule  {
0 1
 Br       -1.4026470    -0.0796381    -0.0001319
  O        0.8234410     1.5925820     0.0002040
  C        1.4590910    -0.7608190     0.0007700
  C        2.9264930    -0.3526980    -0.0006480
  C        0.5406660     0.4304600     0.0002430
  H        1.1964500    -1.3653870     0.8759120
  H        1.1952150    -1.3675680    -0.8724330
  H        3.1657420     0.2413720    -0.8848640
  H        3.1669300     0.2432120     0.8819950
  H        3.5587740    -1.2437650    -0.0001660
units angstrom
no_reorient  #important for SAPT in psi4, default
symmetry c1  #important for SAPT in psi4, default
}

set PROPERTIES_ORIGIN ["COM"]
properties('MP2/aug-cc-pvtz', properties = ['dipole'])
--------------------------------------------------------------------------

    Molecular point group: c1
  Charge       = 0
  Multiplicity = 1
  Basis Set: AUG-CC-PVTZ
    Blend: AUG-CC-PVTZ
  Basis Set: (AUG-CC-PVTZ AUX)
    Blend: AUG-CC-PVTZ-JKFIT

    Orbital Energies [Eh]
    ---------------------

    Doubly Occupied:

       1A   -490.024820     2A    -65.164736     3A    -58.519910
       4A    -58.518703     5A    -58.518582     6A    -20.602375
       7A    -11.412583     8A    -11.277234     9A    -11.242823
      10A     -9.837374    11A     -7.448340    12A     -7.442605
      13A     -7.442097    14A     -3.191748    15A     -3.188977
      16A     -3.188277    17A     -3.180955    18A     -3.180938
      19A     -1.444355    20A     -1.095987    21A     -1.022728
      22A     -0.912703    23A     -0.764255    24A     -0.681344
      25A     -0.663818    26A     -0.642104    27A     -0.571037
      28A     -0.565140    29A     -0.543421    30A     -0.521873
      31A     -0.429743    32A     -0.422066    33A     -0.418342

  @DF-RHF Final Energy: -2763.91659574820505

   => Energetics <=

    Nuclear Repulsion Energy =            306.2142024328823027
    One-Electron Energy =               -4452.0976099566723860
    Two-Electron Energy =                1381.9668117755850290
    Total Energy =                      -2763.9165957482050544
  Basis Set: (AUG-CC-PVTZ AUX)
    Blend: AUG-CC-PVTZ-RI
    Molecular point group: c1

    Geometry (in Angstrom), charge = 0, multiplicity = 1:

       Center              X                  Y                   Z               Mass
    ------------   -----------------  -----------------  -----------------  -----------------
         BR          -1.211186764053    -0.134599702881    -0.000114843352    78.918337600000
         O            1.014901235947     1.537620397119     0.000221056648    15.994914619570
         C            1.650551235947    -0.815780602881     0.000787056648    12.000000000000
         C            3.117953235947    -0.407659602881    -0.000630943352    12.000000000000
         C            0.732126235947     0.375498397119     0.000260056648    12.000000000000
         H            1.387910235947    -1.420348602881     0.875929056648     1.007825032230
         H            1.386675235947    -1.422529602881    -0.872415943352     1.007825032230
         H            3.357202235947     0.186410397119    -0.884846943352     1.007825032230
         H            3.358390235947     0.188250397119     0.882012056648     1.007825032230
         H            3.750234235947    -1.298726602881    -0.000148943352     1.007825032230

  Basis Set: AUG-CC-PVTZ
    Blend: AUG-CC-PVTZ
  Basis Set: (AUG-CC-PVTZ AUX)
    Blend: AUG-CC-PVTZ-JKFIT
	 Reference Energy          =   -2763.9165957482050544 [Eh]
	 Singles Energy            =      -0.0000000000000000 [Eh]
	 Same-Spin Energy          =      -0.2808241589227534 [Eh]
	 Opposite-Spin Energy      =      -0.8301417651426640 [Eh]
	 Correlation Energy        =      -1.1109659240654175 [Eh]
	 Total Energy              =   -2765.0275616722706218 [Eh]

	 ================> DF-SCS-MP2 Energies <==================
	-----------------------------------------------------------
	 SCS Same-Spin Scale       =       0.3333333333333333 [-]
	 SCS Opposite-Spin Scale   =       1.2000000000000000 [-]
	 SCS Same-Spin Energy      =      -0.0936080529742511 [Eh]
	 SCS Opposite-Spin Energy  =      -0.9961701181711968 [Eh]
	 SCS Correlation Energy    =      -1.0897781711454479 [Eh]
	 SCS Total Energy          =   -2765.0063739193506080 [Eh]
	-----------------------------------------------------------

  Dipole Moment: [D]
     X:     2.2669      Y:    -2.0562      Z:     0.0009     Total:     3.0605

*** Psi4 exiting successfully. Buy a developer a beer!
