                               Psi4 1.3.2 release

  ==> Input File <==

--------------------------------------------------------------------------
#psi4
#
memory 32 gb

molecule  {
0 1
 Br       -1.3836610    -0.1471480    -0.0001220
  O        0.7827113     1.6017428     0.0001864
  C        1.4590910    -0.7608190     0.0007700
  C        2.9264930    -0.3526980    -0.0006480
  C        0.5406660     0.4304600     0.0002430
  H        1.1964500    -1.3653870     0.8759120
  H        1.1952150    -1.3675680    -0.8724330
  H        3.1657420     0.2413720    -0.8848640
  H        3.1669300     0.2432120     0.8819950
  H        3.5587740    -1.2437650    -0.0001660
units angstrom
no_reorient  #important for SAPT in psi4, default
symmetry c1  #important for SAPT in psi4, default
}

set PROPERTIES_ORIGIN ["COM"]
properties('MP2/aug-cc-pvtz', properties = ['dipole'])
--------------------------------------------------------------------------

    Molecular point group: c1
  Charge       = 0
  Multiplicity = 1
  Basis Set: AUG-CC-PVTZ
    Blend: AUG-CC-PVTZ
  Basis Set: (AUG-CC-PVTZ AUX)
    Blend: AUG-CC-PVTZ-JKFIT

    Orbital Energies [Eh]
    ---------------------

    Doubly Occupied:

       1A   -490.022900     2A    -65.162883     3A    -58.518039
       4A    -58.516857     5A    -58.516733     6A    -20.604387
       7A    -11.413946     8A    -11.278171     9A    -11.243432
      10A     -9.835581    11A     -7.446502    12A     -7.440859
      13A     -7.440345    14A     -3.189875    15A     -3.187153
      16A     -3.186441    17A     -3.179249    18A     -3.179231
      19A     -1.445289    20A     -1.098102    21A     -1.021846
      22A     -0.912870    23A     -0.765421    24A     -0.681669
      25A     -0.664582    26A     -0.642973    27A     -0.572450
      28A     -0.566816    29A     -0.544764    30A     -0.522750
      31A     -0.428310    32A     -0.421014    33A     -0.417282

  @DF-RHF Final Energy: -2763.91635231569080

   => Energetics <=

    Nuclear Repulsion Energy =            306.7578189053253368
    One-Electron Energy =               -4453.2108948041250187
    Two-Electron Energy =                1382.5367235831090511
    Total Energy =                      -2763.9163523156903466
  Basis Set: (AUG-CC-PVTZ AUX)
    Blend: AUG-CC-PVTZ-RI
    Molecular point group: c1

    Geometry (in Angstrom), charge = 0, multiplicity = 1:

       Center              X                  Y                   Z               Mass
    ------------   -----------------  -----------------  -----------------  -----------------
         BR          -1.198429970926    -0.163998883778    -0.000108619500    78.918337600000
         O            0.967942329074     1.584891916222     0.000199780500    15.994914619570
         C            1.644322029074    -0.777669883778     0.000783380500    12.000000000000
         C            3.111724029074    -0.369548883778    -0.000634619500    12.000000000000
         C            0.725897029074     0.413609116222     0.000256380500    12.000000000000
         H            1.381681029074    -1.382237883778     0.875925380500     1.007825032230
         H            1.380446029074    -1.384418883778    -0.872419619500     1.007825032230
         H            3.350973029074     0.224521116222    -0.884850619500     1.007825032230
         H            3.352161029074     0.226361116222     0.882008380500     1.007825032230
         H            3.744005029074    -1.260615883778    -0.000152619500     1.007825032230

  Basis Set: AUG-CC-PVTZ
    Blend: AUG-CC-PVTZ
  Basis Set: (AUG-CC-PVTZ AUX)
    Blend: AUG-CC-PVTZ-JKFIT
	 Reference Energy          =   -2763.9163523156908013 [Eh]
	 Singles Energy            =      -0.0000000000000000 [Eh]
	 Same-Spin Energy          =      -0.2809774042890261 [Eh]
	 Opposite-Spin Energy      =      -0.8303082005665785 [Eh]
	 Correlation Energy        =      -1.1112856048556046 [Eh]
	 Total Energy              =   -2765.0276379205465673 [Eh]

	 ================> DF-SCS-MP2 Energies <==================
	-----------------------------------------------------------
	 SCS Same-Spin Scale       =       0.3333333333333333 [-]
	 SCS Opposite-Spin Scale   =       1.2000000000000000 [-]
	 SCS Same-Spin Energy      =      -0.0936591347630087 [Eh]
	 SCS Opposite-Spin Energy  =      -0.9963698406798942 [Eh]
	 SCS Correlation Energy    =      -1.0900289754429029 [Eh]
	 SCS Total Energy          =   -2765.0063812911334935 [Eh]
	-----------------------------------------------------------

  Dipole Moment: [D]
     X:     2.3612      Y:    -2.0164      Z:     0.0009     Total:     3.1050

*** Psi4 exiting successfully. Buy a developer a beer!
