                               Psi4 1.3.2 release

  ==> Input File <==

--------------------------------------------------------------------------
#psi4
#
memory 32 gb

molecule  {
0 1
 Br       -1.3836610    -0.1471480    -0.0001220
  O        0.7416866     1.6094765     0.0001688
  C        1.4590910    -0.7608190     0.0007700
  C        2.9264930    -0.3526980    -0.0006480
  C        0.5406660     0.4304600     0.0002430
  H        1.1964500    -1.3653870     0.8759120
  H        1.1952150    -1.3675680    -0.8724330
  H        3.1657420     0.2413720    -0.8848640
  H        3.1669300     0.2432120     0.8819950
  H        3.5587740    -1.2437650    -0.0001660
units angstrom
no_reorient  #important for SAPT in psi4, default
symmetry c1  #important for SAPT in psi4, default
}

set PROPERTIES_ORIGIN ["COM"]
properties('MP2/aug-cc-pvtz', properties = ['dipole'])
--------------------------------------------------------------------------

    Molecular point group: c1
  Charge       = 0
  Multiplicity = 1
  Basis Set: AUG-CC-PVTZ
    Blend: AUG-CC-PVTZ
  Basis Set: (AUG-CC-PVTZ AUX)
    Blend: AUG-CC-PVTZ-JKFIT

    Orbital Energies [Eh]
    ---------------------

    Doubly Occupied:

       1A   -490.020315     2A    -65.160355     3A    -58.515495
       4A    -58.514333     5A    -58.514209     6A    -20.604852
       7A    -11.414795     8A    -11.280181     9A    -11.244776
      10A     -9.833105    11A     -7.443993    12A     -7.438418
      13A     -7.437904    14A     -3.187336    15A     -3.184651
      16A     -3.183936    17A     -3.176842    18A     -3.176824
      19A     -1.445731    20A     -1.099641    21A     -1.020429
      22A     -0.913913    23A     -0.766210    24A     -0.682427
      25A     -0.665628    26A     -0.642865    27A     -0.573611
      28A     -0.568838    29A     -0.546348    30A     -0.523908
      31A     -0.427539    32A     -0.419038    33A     -0.414575

  @DF-RHF Final Energy: -2763.91573768609260

   => Energetics <=

    Nuclear Repulsion Energy =            307.0328982527562971
    One-Electron Energy =               -4453.8112303493862782
    Two-Electron Energy =                1382.8625944105372128
    Total Energy =                      -2763.9157376860930526
  Basis Set: (AUG-CC-PVTZ AUX)
    Blend: AUG-CC-PVTZ-RI
    Molecular point group: c1

    Geometry (in Angstrom), charge = 0, multiplicity = 1:

       Center              X                  Y                   Z               Mass
    ------------   -----------------  -----------------  -----------------  -----------------
         BR          -1.193603379539    -0.164908760263    -0.000106548845    78.918337600000
         O            0.931744220461     1.591715739737     0.000184251155    15.994914619570
         C            1.649148620461    -0.778579760263     0.000785451155    12.000000000000
         C            3.116550620461    -0.370458760263    -0.000632548845    12.000000000000
         C            0.730723620461     0.412699239737     0.000258451155    12.000000000000
         H            1.386507620461    -1.383147760263     0.875927451155     1.007825032230
         H            1.385272620461    -1.385328760263    -0.872417548845     1.007825032230
         H            3.355799620461     0.223611239737    -0.884848548845     1.007825032230
         H            3.356987620461     0.225451239737     0.882010451155     1.007825032230
         H            3.748831620461    -1.261525760263    -0.000150548845     1.007825032230

  Basis Set: AUG-CC-PVTZ
    Blend: AUG-CC-PVTZ
  Basis Set: (AUG-CC-PVTZ AUX)
    Blend: AUG-CC-PVTZ-JKFIT
	 Reference Energy          =   -2763.9157376860925979 [Eh]
	 Singles Energy            =      -0.0000000000000000 [Eh]
	 Same-Spin Energy          =      -0.2809624124105681 [Eh]
	 Opposite-Spin Energy      =      -0.8302223564408324 [Eh]
	 Correlation Energy        =      -1.1111847688514005 [Eh]
	 Total Energy              =   -2765.0269224549438150 [Eh]

	 ================> DF-SCS-MP2 Energies <==================
	-----------------------------------------------------------
	 SCS Same-Spin Scale       =       0.3333333333333333 [-]
	 SCS Opposite-Spin Scale   =       1.2000000000000000 [-]
	 SCS Same-Spin Energy      =      -0.0936541374701894 [Eh]
	 SCS Opposite-Spin Energy  =      -0.9962668277289989 [Eh]
	 SCS Correlation Energy    =      -1.0899209651991884 [Eh]
	 SCS Total Energy          =   -2765.0056586512919239 [Eh]
	-----------------------------------------------------------

  Dipole Moment: [D]
     X:     2.4892      Y:    -2.0195      Z:     0.0010     Total:     3.2053

*** Psi4 exiting successfully. Buy a developer a beer!
