                               Psi4 1.3.2 release

  ==> Input File <==

--------------------------------------------------------------------------
#psi4
#
memory 32 gb

molecule  {
0 1
 Br       -1.4334958     0.0571631    -0.0001842
  O        0.8234410     1.5925820     0.0002040
  C        1.4590910    -0.7608190     0.0007700
  C        2.9264930    -0.3526980    -0.0006480
  C        0.5406660     0.4304600     0.0002430
  H        1.1964500    -1.3653870     0.8759120
  H        1.1952150    -1.3675680    -0.8724330
  H        3.1657420     0.2413720    -0.8848640
  H        3.1669300     0.2432120     0.8819950
  H        3.5587740    -1.2437650    -0.0001660
units angstrom
no_reorient  #important for SAPT in psi4, default
symmetry c1  #important for SAPT in psi4, default
}

set PROPERTIES_ORIGIN ["COM"]
properties('MP2/aug-cc-pvtz', properties = ['dipole'])
--------------------------------------------------------------------------

    Molecular point group: c1
  Charge       = 0
  Multiplicity = 1
  Basis Set: AUG-CC-PVTZ
    Blend: AUG-CC-PVTZ
  Basis Set: (AUG-CC-PVTZ AUX)
    Blend: AUG-CC-PVTZ-JKFIT

    Orbital Energies [Eh]
    ---------------------

    Doubly Occupied:

       1A   -490.023417     2A    -65.163318     3A    -58.518500
       4A    -58.517277     5A    -58.517159     6A    -20.599311
       7A    -11.411520     8A    -11.279356     9A    -11.244263
      10A     -9.835950    11A     -7.446948    12A     -7.441146
      13A     -7.440651    14A     -3.190370    15A     -3.187571
      16A     -3.186884    17A     -3.179472    18A     -3.179456
      19A     -1.443354    20A     -1.095181    21A     -1.021421
      22A     -0.914392    23A     -0.763624    24A     -0.682077
      25A     -0.664403    26A     -0.640087    27A     -0.570600
      28A     -0.566013    29A     -0.544009    30A     -0.522489
      31A     -0.431442    32A     -0.420094    33A     -0.414363

  @DF-RHF Final Energy: -2763.91537308157331

   => Energetics <=

    Nuclear Repulsion Energy =            305.8027978315457176
    One-Electron Energy =               -4451.3241015093690294
    Two-Electron Energy =                1381.6059305962498911
    Total Energy =                      -2763.9153730815733070
  Basis Set: (AUG-CC-PVTZ AUX)
    Blend: AUG-CC-PVTZ-RI
    Molecular point group: c1

    Geometry (in Angstrom), charge = 0, multiplicity = 1:

       Center              X                  Y                   Z               Mass
    ------------   -----------------  -----------------  -----------------  -----------------
         BR          -1.224128293434    -0.077209569415    -0.000136783978    78.918337600000
         O            1.032808506566     1.458209330585     0.000251416022    15.994914619570
         C            1.668458506566    -0.895191669415     0.000817416022    12.000000000000
         C            3.135860506566    -0.487070669415    -0.000600583978    12.000000000000
         C            0.750033506566     0.296087330585     0.000290416022    12.000000000000
         H            1.405817506566    -1.499759669415     0.875959416022     1.007825032230
         H            1.404582506566    -1.501940669415    -0.872385583978     1.007825032230
         H            3.375109506566     0.106999330585    -0.884816583978     1.007825032230
         H            3.376297506566     0.108839330585     0.882042416022     1.007825032230
         H            3.768141506566    -1.378137669415    -0.000118583978     1.007825032230

  Basis Set: AUG-CC-PVTZ
    Blend: AUG-CC-PVTZ
  Basis Set: (AUG-CC-PVTZ AUX)
    Blend: AUG-CC-PVTZ-JKFIT
	 Reference Energy          =   -2763.9153730815733070 [Eh]
	 Singles Energy            =      -0.0000000000000000 [Eh]
	 Same-Spin Energy          =      -0.2805189795335176 [Eh]
	 Opposite-Spin Energy      =      -0.8297087515464003 [Eh]
	 Correlation Energy        =      -1.1102277310799180 [Eh]
	 Total Energy              =   -2765.0256008126530105 [Eh]

	 ================> DF-SCS-MP2 Energies <==================
	-----------------------------------------------------------
	 SCS Same-Spin Scale       =       0.3333333333333333 [-]
	 SCS Opposite-Spin Scale   =       1.2000000000000000 [-]
	 SCS Same-Spin Energy      =      -0.0935063265111725 [Eh]
	 SCS Opposite-Spin Energy  =      -0.9956505018556804 [Eh]
	 SCS Correlation Energy    =      -1.0891568283668529 [Eh]
	 SCS Total Energy          =   -2765.0045299099401745 [Eh]
	-----------------------------------------------------------

  Dipole Moment: [D]
     X:     2.3329      Y:    -2.1507      Z:     0.0009     Total:     3.1730

*** Psi4 exiting successfully. Buy a developer a beer!
