                               Psi4 1.3.2 release

  ==> Input File <==

--------------------------------------------------------------------------
#psi4
#
memory 32 gb

molecule  {
0 1
 Br       -1.3836610    -0.1471480    -0.0001220
  O        0.8234410     1.5925820     0.0002040
  C        1.4590910    -0.7608190     0.0007700
  C        2.9264930    -0.3526980    -0.0006480
  C        0.5406660     0.4304600     0.0002430
  H        1.1964500    -1.3653870     0.8759120
  H        1.1952150    -1.3675680    -0.8724330
  H        3.1657420     0.2413720    -0.8848640
  H        3.1669300     0.2432120     0.8819950
  H        3.5587740    -1.2437650    -0.0001660
units angstrom
no_reorient  #important for SAPT in psi4, default
symmetry c1  #important for SAPT in psi4, default
}

set PROPERTIES_ORIGIN ["COM"]
properties('MP2/aug-cc-pvtz', properties = ['dipole'])
--------------------------------------------------------------------------

    Molecular point group: c1
  Charge       = 0
  Multiplicity = 1
  Basis Set: AUG-CC-PVTZ
    Blend: AUG-CC-PVTZ
  Basis Set: (AUG-CC-PVTZ AUX)
    Blend: AUG-CC-PVTZ-JKFIT

    Orbital Energies [Eh]
    ---------------------

    Doubly Occupied:

       1A   -490.025431     2A    -65.165361     3A    -58.520532
       4A    -58.519330     5A    -58.519206     6A    -20.603896
       7A    -11.413131     8A    -11.276154     9A    -11.242061
      10A     -9.838008    11A     -7.448965    12A     -7.443251
      13A     -7.442736    14A     -3.192368    15A     -3.189608
      16A     -3.188899    17A     -3.181605    18A     -3.181588
      19A     -1.444931    20A     -1.096550    21A     -1.023206
      22A     -0.911812    23A     -0.764626    24A     -0.680988
      25A     -0.663562    26A     -0.643087    27A     -0.571276
      28A     -0.564738    29A     -0.543157    30A     -0.521588
      31A     -0.429015    32A     -0.422942    33A     -0.419770

  @DF-RHF Final Energy: -2763.91640608846046

   => Energetics <=

    Nuclear Repulsion Energy =            306.5180931104869728
    One-Electron Energy =               -4452.6822425368245604
    Two-Electron Energy =                1382.2477433378769547
    Total Energy =                      -2763.9164060884604623
  Basis Set: (AUG-CC-PVTZ AUX)
    Blend: AUG-CC-PVTZ-RI
    Molecular point group: c1

    Geometry (in Angstrom), charge = 0, multiplicity = 1:

       Center              X                  Y                   Z               Mass
    ------------   -----------------  -----------------  -----------------  -----------------
         BR          -1.203221855309    -0.162921107746    -0.000110690155    78.918337600000
         O            1.003880144691     1.576808892254     0.000215309845    15.994914619570
         C            1.639530144691    -0.776592107746     0.000781309845    12.000000000000
         C            3.106932144691    -0.368471107746    -0.000636690155    12.000000000000
         C            0.721105144691     0.414686892254     0.000254309845    12.000000000000
         H            1.376889144691    -1.381160107746     0.875923309845     1.007825032230
         H            1.375654144691    -1.383341107746    -0.872421690155     1.007825032230
         H            3.346181144691     0.225598892254    -0.884852690155     1.007825032230
         H            3.347369144691     0.227438892254     0.882006309845     1.007825032230
         H            3.739213144691    -1.259538107746    -0.000154690155     1.007825032230

  Basis Set: AUG-CC-PVTZ
    Blend: AUG-CC-PVTZ
  Basis Set: (AUG-CC-PVTZ AUX)
    Blend: AUG-CC-PVTZ-JKFIT
	 Reference Energy          =   -2763.9164060884604623 [Eh]
	 Singles Energy            =      -0.0000000000000000 [Eh]
	 Same-Spin Energy          =      -0.2810139915890020 [Eh]
	 Opposite-Spin Energy      =      -0.8304371249817494 [Eh]
	 Correlation Energy        =      -1.1114511165707515 [Eh]
	 Total Energy              =   -2765.0278572050310686 [Eh]

	 ================> DF-SCS-MP2 Energies <==================
	-----------------------------------------------------------
	 SCS Same-Spin Scale       =       0.3333333333333333 [-]
	 SCS Opposite-Spin Scale   =       1.2000000000000000 [-]
	 SCS Same-Spin Energy      =      -0.0936713305296673 [Eh]
	 SCS Opposite-Spin Energy  =      -0.9965245499780992 [Eh]
	 SCS Correlation Energy    =      -1.0901958805077665 [Eh]
	 SCS Total Energy          =   -2765.0066019689684254 [Eh]
	-----------------------------------------------------------

  Dipole Moment: [D]
     X:     2.2353      Y:    -2.0090      Z:     0.0009     Total:     3.0054

*** Psi4 exiting successfully. Buy a developer a beer!
