                               Psi4 1.3.2 release

  ==> Input File <==

--------------------------------------------------------------------------
#psi4
#
memory 32 gb

molecule  {
0 1
 Br       -1.3127429    -0.3451307    -0.0000558
  O        0.8234410     1.5925820     0.0002040
  C        1.4590910    -0.7608190     0.0007700
  C        2.9264930    -0.3526980    -0.0006480
  C        0.5406660     0.4304600     0.0002430
  H        1.1964500    -1.3653870     0.8759120
  H        1.1952150    -1.3675680    -0.8724330
  H        3.1657420     0.2413720    -0.8848640
  H        3.1669300     0.2432120     0.8819950
  H        3.5587740    -1.2437650    -0.0001660
units angstrom
no_reorient  #important for SAPT in psi4, default
symmetry c1  #important for SAPT in psi4, default
}

set PROPERTIES_ORIGIN ["COM"]
properties('MP2/aug-cc-pvtz', properties = ['dipole'])
--------------------------------------------------------------------------

    Molecular point group: c1
  Charge       = 0
  Multiplicity = 1
  Basis Set: AUG-CC-PVTZ
    Blend: AUG-CC-PVTZ
  Basis Set: (AUG-CC-PVTZ AUX)
    Blend: AUG-CC-PVTZ-JKFIT

    Orbital Energies [Eh]
    ---------------------

    Doubly Occupied:

       1A   -490.026865     2A    -65.166857     3A    -58.522022
       4A    -58.520823     5A    -58.520689     6A    -20.608443
       7A    -11.414836     8A    -11.272854     9A    -11.239579
      10A     -9.839564    11A     -7.450521    12A     -7.444819
      13A     -7.444283    14A     -3.193919    15A     -3.191175
      16A     -3.190436    17A     -3.183155    18A     -3.183137
      19A     -1.446911    20A     -1.099034    21A     -1.023903
      22A     -0.908905    23A     -0.765988    24A     -0.679988
      25A     -0.662995    26A     -0.645901    27A     -0.572042
      28A     -0.563708    29A     -0.542590    30A     -0.520887
      31A     -0.428863    32A     -0.425075    33A     -0.420084

  @DF-RHF Final Energy: -2763.91246385577188

   => Energetics <=

    Nuclear Repulsion Energy =            307.8329444619069477
    One-Electron Energy =               -4455.2491120959184627
    Two-Electron Energy =                1383.5037037782399238
    Total Energy =                      -2763.9124638557718754
  Basis Set: (AUG-CC-PVTZ AUX)
    Blend: AUG-CC-PVTZ-RI
    Molecular point group: c1

    Geometry (in Angstrom), charge = 0, multiplicity = 1:

       Center              X                  Y                   Z               Mass
    ------------   -----------------  -----------------  -----------------  -----------------
         BR          -1.173470659968    -0.245977788366    -0.000082918273    78.918337600000
         O            0.962713240032     1.691734911634     0.000176881727    15.994914619570
         C            1.598363240032    -0.661666088366     0.000742881727    12.000000000000
         C            3.065765240032    -0.253545088366    -0.000675118273    12.000000000000
         C            0.679938240032     0.529612911634     0.000215881727    12.000000000000
         H            1.335722240032    -1.266234088366     0.875884881727     1.007825032230
         H            1.334487240032    -1.268415088366    -0.872460118273     1.007825032230
         H            3.305014240032     0.340524911634    -0.884891118273     1.007825032230
         H            3.306202240032     0.342364911634     0.881967881727     1.007825032230
         H            3.698046240032    -1.144612088366    -0.000193118273     1.007825032230

  Basis Set: AUG-CC-PVTZ
    Blend: AUG-CC-PVTZ
  Basis Set: (AUG-CC-PVTZ AUX)
    Blend: AUG-CC-PVTZ-JKFIT
	 Reference Energy          =   -2763.9124638557718754 [Eh]
	 Singles Energy            =      -0.0000000000000000 [Eh]
	 Same-Spin Energy          =      -0.2817465330977754 [Eh]
	 Opposite-Spin Energy      =      -0.8316593617479704 [Eh]
	 Correlation Energy        =      -1.1134058948457457 [Eh]
	 Total Energy              =   -2765.0258697506174030 [Eh]

	 ================> DF-SCS-MP2 Energies <==================
	-----------------------------------------------------------
	 SCS Same-Spin Scale       =       0.3333333333333333 [-]
	 SCS Opposite-Spin Scale   =       1.2000000000000000 [-]
	 SCS Same-Spin Energy      =      -0.0939155110325918 [Eh]
	 SCS Opposite-Spin Energy  =      -0.9979912340975644 [Eh]
	 SCS Correlation Energy    =      -1.0919067451301563 [Eh]
	 SCS Total Energy          =   -2765.0043706009018933 [Eh]
	-----------------------------------------------------------

  Dipole Moment: [D]
     X:     2.1467      Y:    -1.8678      Z:     0.0009     Total:     2.8455

*** Psi4 exiting successfully. Buy a developer a beer!
