                               Psi4 1.4a3.dev225

  ==> Input File <==

--------------------------------------------------------------------------
#psi4
#
memory 32 gb

molecule  {
0 1
 Br       -1.3836660    -0.1471400     0.0000000
  O        0.8235020     1.5925660     0.0000000
  C        1.4590730    -0.7608090     0.0000000
  C        2.9264910    -0.3527110    -0.0000010
  C        0.5288337     0.3818782     0.0000000
  H        1.1958170    -1.3664940     0.8741710
  H        1.1958160    -1.3664970    -0.8741670
  H        3.1663090     0.2422710    -0.8834470
  H        3.1663120     0.2422700     0.8834460
  H        3.5586990    -1.2438130    -0.0000020
units angstrom
no_reorient  #important for SAPT in psi4, default
symmetry c1  #important for SAPT in psi4, default
}

set PROPERTIES_ORIGIN ["COM"]
properties('MP2/aug-cc-pvtz', properties = ['dipole'])
--------------------------------------------------------------------------

    Molecular point group: c1
  Charge       = 0
  Multiplicity = 1
  Basis Set: AUG-CC-PVTZ
    Blend: AUG-CC-PVTZ
  Basis Set: (AUG-CC-PVTZ AUX)
    Blend: AUG-CC-PVTZ-JKFIT

    Orbital Energies [Eh]
    ---------------------

    Doubly Occupied:

       1A   -490.034362     2A    -65.174198     3A    -58.529417
       4A    -58.528148     5A    -58.528016     6A    -20.594989
       7A    -11.415498     8A    -11.274216     9A    -11.241603
      10A     -9.846825    11A     -7.457984    12A     -7.451952
      13A     -7.451392    14A     -3.201534    15A     -3.198590
      16A     -3.197826    17A     -3.190114    18A     -3.190095
      19A     -1.405952    20A     -1.102785    21A     -1.030818
      22A     -0.917513    23A     -0.759216    24A     -0.669482
      25A     -0.662635    26A     -0.635182    27A     -0.559637
      28A     -0.556218    29A     -0.539642    30A     -0.514034
      31A     -0.439216    32A     -0.427565    33A     -0.424502

  @DF-RHF Final Energy: -2763.90669857548164

   => Energetics <=

    Nuclear Repulsion Energy =            306.6840294435880310
    One-Electron Energy =               -4452.8791481687812848
    Two-Electron Energy =                1382.2884201497122376
    Total Energy =                      -2763.9066985754811867
  Basis Set: (AUG-CC-PVTZ AUX)
    Blend: AUG-CC-PVTZ-RI
    Molecular point group: c1

    Geometry (in Angstrom), charge = 0, multiplicity = 1:

       Center              X                  Y                   Z               Mass
    ------------   -----------------  -----------------  -----------------  -----------------
         BR          -1.202183800815    -0.158626531984     0.000000080853    78.918337600000
         O            1.004984199185     1.581079468016     0.000000080853    15.994914619570
         C            1.640555199185    -0.772295531984     0.000000080853    12.000000000000
         C            3.107973199185    -0.364197531984    -0.000000919147    12.000000000000
         C            0.710315899185     0.370391668016     0.000000080853    12.000000000000
         H            1.377299199185    -1.377980531984     0.874171080853     1.007825032230
         H            1.377298199185    -1.377983531984    -0.874166919147     1.007825032230
         H            3.347791199185     0.230784468016    -0.883446919147     1.007825032230
         H            3.347794199185     0.230783468016     0.883446080853     1.007825032230
         H            3.740181199185    -1.255299531984    -0.000001919147     1.007825032230

  Basis Set: AUG-CC-PVTZ
    Blend: AUG-CC-PVTZ
  Basis Set: (AUG-CC-PVTZ AUX)
    Blend: AUG-CC-PVTZ-JKFIT
	 Reference Energy          =   -2763.9066985754816415 [Eh]
	 Singles Energy            =      -0.0000000000000000 [Eh]
	 Same-Spin Energy          =      -0.2825636782833258 [Eh]
	 Opposite-Spin Energy      =      -0.8338554009333189 [Eh]
	 Correlation Energy        =      -1.1164190792166448 [Eh]
	 Total Energy              =   -2765.0231176546981260 [Eh]

	 ================> DF-SCS-MP2 Energies <==================
	-----------------------------------------------------------
	 SCS Same-Spin Scale       =       0.3333333333333333 [-]
	 SCS Opposite-Spin Scale   =       1.2000000000000000 [-]
	 SCS Same-Spin Energy      =      -0.0941878927611086 [Eh]
	 SCS Opposite-Spin Energy  =      -1.0006264811199825 [Eh]
	 SCS Correlation Energy    =      -1.0948143738810912 [Eh]
	 SCS Total Energy          =   -2765.0015129493626773 [Eh]
	-----------------------------------------------------------

  Dipole Moment: [D]
     X:     1.9133      Y:    -2.2794      Z:     0.0000     Total:     2.9759

*** Psi4 exiting successfully. Buy a developer a beer!
