                               Psi4 1.4a3.dev225

  ==> Input File <==

--------------------------------------------------------------------------
#psi4
#
memory 32 gb

molecule  {
0 1
 Br       -1.3836660    -0.1471400     0.0000000
  O        0.8235020     1.5925660     0.0000000
  C        1.4590730    -0.7608090     0.0000000
  C        2.9264910    -0.3527110    -0.0000010
  C        0.5101296     0.4700582     0.0000000
  H        1.1958170    -1.3664940     0.8741710
  H        1.1958160    -1.3664970    -0.8741670
  H        3.1663090     0.2422710    -0.8834470
  H        3.1663120     0.2422700     0.8834460
  H        3.5586990    -1.2438130    -0.0000020
units angstrom
no_reorient  #important for SAPT in psi4, default
symmetry c1  #important for SAPT in psi4, default
}

set PROPERTIES_ORIGIN ["COM"]
properties('MP2/aug-cc-pvtz', properties = ['dipole'])
--------------------------------------------------------------------------

    Molecular point group: c1
  Charge       = 0
  Multiplicity = 1
  Basis Set: AUG-CC-PVTZ
    Blend: AUG-CC-PVTZ
  Basis Set: (AUG-CC-PVTZ AUX)
    Blend: AUG-CC-PVTZ-JKFIT

    Orbital Energies [Eh]
    ---------------------

    Doubly Occupied:

       1A   -490.025599     2A    -65.165642     3A    -58.520789
       4A    -58.519612     5A    -58.519483     6A    -20.605278
       7A    -11.407873     8A    -11.275048     9A    -11.239793
      10A     -9.838425    11A     -7.449369    12A     -7.443707
      13A     -7.443177    14A     -3.192753    15A     -3.189999
      16A     -3.189272    17A     -3.182089    18A     -3.182070
      19A     -1.467076    20A     -1.085933    21A     -1.025373
      22A     -0.902608    23A     -0.765805    24A     -0.683936
      25A     -0.659957    26A     -0.647366    27A     -0.581596
      28A     -0.566148    29A     -0.541343    30A     -0.521004
      31A     -0.424349    32A     -0.423699    33A     -0.420336

  @DF-RHF Final Energy: -2763.91772567611224

   => Energetics <=

    Nuclear Repulsion Energy =            306.9264965110156140
    One-Electron Energy =               -4453.4754273599501175
    Two-Electron Energy =                1382.6312051728220922
    Total Energy =                      -2763.9177256761122408
  Basis Set: (AUG-CC-PVTZ AUX)
    Blend: AUG-CC-PVTZ-RI
    Molecular point group: c1

    Geometry (in Angstrom), charge = 0, multiplicity = 1:

       Center              X                  Y                   Z               Mass
    ------------   -----------------  -----------------  -----------------  -----------------
         BR          -1.200532860947    -0.166409845673     0.000000080853    78.918337600000
         O            1.006635139053     1.573296154327     0.000000080853    15.994914619570
         C            1.642206139053    -0.780078845673     0.000000080853    12.000000000000
         C            3.109624139053    -0.371980845673    -0.000000919147    12.000000000000
         C            0.693262739053     0.450788354327     0.000000080853    12.000000000000
         H            1.378950139053    -1.385763845673     0.874171080853     1.007825032230
         H            1.378949139053    -1.385766845673    -0.874166919147     1.007825032230
         H            3.349442139053     0.223001154327    -0.883446919147     1.007825032230
         H            3.349445139053     0.223000154327     0.883446080853     1.007825032230
         H            3.741832139053    -1.263082845673    -0.000001919147     1.007825032230

  Basis Set: AUG-CC-PVTZ
    Blend: AUG-CC-PVTZ
  Basis Set: (AUG-CC-PVTZ AUX)
    Blend: AUG-CC-PVTZ-JKFIT
	 Reference Energy          =   -2763.9177256761122408 [Eh]
	 Singles Energy            =      -0.0000000000000000 [Eh]
	 Same-Spin Energy          =      -0.2799248494108599 [Eh]
	 Opposite-Spin Energy      =      -0.8282856750212930 [Eh]
	 Correlation Energy        =      -1.1082105244321530 [Eh]
	 Total Energy              =   -2765.0259362005444927 [Eh]

	 ================> DF-SCS-MP2 Energies <==================
	-----------------------------------------------------------
	 SCS Same-Spin Scale       =       0.3333333333333333 [-]
	 SCS Opposite-Spin Scale   =       1.2000000000000000 [-]
	 SCS Same-Spin Energy      =      -0.0933082831369533 [Eh]
	 SCS Opposite-Spin Energy  =      -0.9939428100255516 [Eh]
	 SCS Correlation Energy    =      -1.0872510931625050 [Eh]
	 SCS Total Energy          =   -2765.0049767692748901 [Eh]
	-----------------------------------------------------------

  Dipole Moment: [D]
     X:     2.0997      Y:    -1.8442      Z:     0.0000     Total:     2.7946

*** Psi4 exiting successfully. Buy a developer a beer!
