                               Psi4 1.3.2 release

  ==> Input File <==

--------------------------------------------------------------------------
#psi4
#
memory 32 gb

molecule  {
0 1
 Br       -1.3836610    -0.1471480    -0.0001220
  O        0.8234410     1.5925820     0.0002040
  C        1.4590910    -0.7608190     0.0007700
  C        2.9264930    -0.3526980    -0.0006480
  C        0.4796091     0.5096563     0.0002080
  H        1.1964500    -1.3653870     0.8759120
  H        1.1952150    -1.3675680    -0.8724330
  H        3.1657420     0.2413720    -0.8848640
  H        3.1669300     0.2432120     0.8819950
  H        3.5587740    -1.2437650    -0.0001660
units angstrom
no_reorient  #important for SAPT in psi4, default
symmetry c1  #important for SAPT in psi4, default
}

set PROPERTIES_ORIGIN ["COM"]
properties('MP2/aug-cc-pvtz', properties = ['dipole'])
--------------------------------------------------------------------------

    Molecular point group: c1
  Charge       = 0
  Multiplicity = 1
  Basis Set: AUG-CC-PVTZ
    Blend: AUG-CC-PVTZ
  Basis Set: (AUG-CC-PVTZ AUX)
    Blend: AUG-CC-PVTZ-JKFIT

    Orbital Energies [Eh]
    ---------------------

    Doubly Occupied:

       1A   -490.025835     2A    -65.165985     3A    -58.521111
       4A    -58.519952     5A    -58.519819     6A    -20.606501
       7A    -11.402656     8A    -11.273316     9A    -11.237636
      10A     -9.838900    11A     -7.449844    12A     -7.444206
      13A     -7.443661    14A     -3.193217    15A     -3.190456
      16A     -3.189713    17A     -3.182602    18A     -3.182583
      19A     -1.489145    20A     -1.077131    21A     -1.027223
      22A     -0.893619    23A     -0.767636    24A     -0.687703
      25A     -0.658004    26A     -0.651440    27A     -0.592095
      28A     -0.566825    29A     -0.539627    30A     -0.519265
      31A     -0.425726    32A     -0.424319    33A     -0.413002

  @DF-RHF Final Energy: -2763.91282971679311

   => Energetics <=

    Nuclear Repulsion Energy =            307.3454047035686472
    One-Electron Energy =               -4454.2749573192040771
    Two-Electron Energy =                1383.0167228988423176
    Total Energy =                      -2763.9128297167935671
  Basis Set: (AUG-CC-PVTZ AUX)
    Blend: AUG-CC-PVTZ-RI
    Molecular point group: c1

    Geometry (in Angstrom), charge = 0, multiplicity = 1:

       Center              X                  Y                   Z               Mass
    ------------   -----------------  -----------------  -----------------  -----------------
         BR          -1.197832594642    -0.169911464357    -0.000107600838    78.918337600000
         O            1.009269405358     1.569818535643     0.000218399162    15.994914619570
         C            1.644919405358    -0.783582464357     0.000784399162    12.000000000000
         C            3.112321405358    -0.375461464357    -0.000633600838    12.000000000000
         C            0.665437505358     0.486892835643     0.000222399162    12.000000000000
         H            1.382278405358    -1.388150464357     0.875926399162     1.007825032230
         H            1.381043405358    -1.390331464357    -0.872418600838     1.007825032230
         H            3.351570405358     0.218608535643    -0.884849600838     1.007825032230
         H            3.352758405358     0.220448535643     0.882009399162     1.007825032230
         H            3.744602405358    -1.266528464357    -0.000151600838     1.007825032230

  Basis Set: AUG-CC-PVTZ
    Blend: AUG-CC-PVTZ
  Basis Set: (AUG-CC-PVTZ AUX)
    Blend: AUG-CC-PVTZ-JKFIT
	 Reference Energy          =   -2763.9128297167931123 [Eh]
	 Singles Energy            =      -0.0000000000000000 [Eh]
	 Same-Spin Energy          =      -0.2790652547404254 [Eh]
	 Opposite-Spin Energy      =      -0.8265786905098433 [Eh]
	 Correlation Energy        =      -1.1056439452502687 [Eh]
	 Total Energy              =   -2765.0184736620435615 [Eh]

	 ================> DF-SCS-MP2 Energies <==================
	-----------------------------------------------------------
	 SCS Same-Spin Scale       =       0.3333333333333333 [-]
	 SCS Opposite-Spin Scale   =       1.2000000000000000 [-]
	 SCS Same-Spin Energy      =      -0.0930217515801418 [Eh]
	 SCS Opposite-Spin Energy  =      -0.9918944286118120 [Eh]
	 SCS Correlation Energy    =      -1.0849161801919538 [Eh]
	 SCS Total Energy          =   -2764.9977458969851796 [Eh]
	-----------------------------------------------------------

  Dipole Moment: [D]
     X:     1.9657      Y:    -1.6742      Z:     0.0007     Total:     2.5821

*** Psi4 exiting successfully. Buy a developer a beer!
