                               Psi4 1.3.2 release

  ==> Input File <==

--------------------------------------------------------------------------
#psi4
#
memory 32 gb

molecule  {
0 1
 Br       -1.3836610    -0.1471480    -0.0001220
  O        0.8234410     1.5925820     0.0002040
  C        1.4590910    -0.7608190     0.0007700
  C        2.9264930    -0.3526980    -0.0006480
  C        0.5170232     0.3332951     0.0002463
  H        1.1964500    -1.3653870     0.8759120
  H        1.1952150    -1.3675680    -0.8724330
  H        3.1657420     0.2413720    -0.8848640
  H        3.1669300     0.2432120     0.8819950
  H        3.5587740    -1.2437650    -0.0001660
units angstrom
no_reorient  #important for SAPT in psi4, default
symmetry c1  #important for SAPT in psi4, default
}

set PROPERTIES_ORIGIN ["COM"]
properties('MP2/aug-cc-pvtz', properties = ['dipole'])
--------------------------------------------------------------------------

    Molecular point group: c1
  Charge       = 0
  Multiplicity = 1
  Basis Set: AUG-CC-PVTZ
    Blend: AUG-CC-PVTZ
  Basis Set: (AUG-CC-PVTZ AUX)
    Blend: AUG-CC-PVTZ-JKFIT

    Orbital Energies [Eh]
    ---------------------

    Doubly Occupied:

       1A   -490.042288     2A    -65.182054     3A    -58.537311
       4A    -58.535989     5A    -58.535847     6A    -20.586384
       7A    -11.417298     8A    -11.272733     9A    -11.241516
      10A     -9.854684    11A     -7.466018    12A     -7.459720
      13A     -7.459107    14A     -3.209699    15A     -3.206595
      16A     -3.205769    17A     -3.197713    18A     -3.197692
      19A     -1.370690    20A     -1.109520    21A     -1.037887
      22A     -0.923384    23A     -0.755340    24A     -0.663368
      25A     -0.660900    26A     -0.627567    27A     -0.555208
      28A     -0.548416    29A     -0.535046    30A     -0.502616
      31A     -0.447884    32A     -0.430153    33A     -0.427651

  @DF-RHF Final Energy: -2763.89091556292533

   => Energetics <=

    Nuclear Repulsion Energy =            306.9039024157520430
    One-Electron Energy =               -4453.1815383624734750
    Two-Electron Energy =                1382.3867203837962734
    Total Energy =                      -2763.8909155629253291
  Basis Set: (AUG-CC-PVTZ AUX)
    Blend: AUG-CC-PVTZ-RI
    Molecular point group: c1

    Geometry (in Angstrom), charge = 0, multiplicity = 1:

       Center              X                  Y                   Z               Mass
    ------------   -----------------  -----------------  -----------------  -----------------
         BR          -1.201134995149    -0.154344731058    -0.000110981434    78.918337600000
         O            1.005967004851     1.585385268942     0.000215018566    15.994914619570
         C            1.641617004851    -0.768015731058     0.000781018566    12.000000000000
         C            3.109019004851    -0.359894731058    -0.000636981434    12.000000000000
         C            0.699549204851     0.326098368942     0.000257318566    12.000000000000
         H            1.378976004851    -1.372583731058     0.875923018566     1.007825032230
         H            1.377741004851    -1.374764731058    -0.872421981434     1.007825032230
         H            3.348268004851     0.234175268942    -0.884852981434     1.007825032230
         H            3.349456004851     0.236015268942     0.882006018566     1.007825032230
         H            3.741300004851    -1.250961731058    -0.000154981434     1.007825032230

  Basis Set: AUG-CC-PVTZ
    Blend: AUG-CC-PVTZ
  Basis Set: (AUG-CC-PVTZ AUX)
    Blend: AUG-CC-PVTZ-JKFIT
	 Reference Energy          =   -2763.8909155629253291 [Eh]
	 Singles Energy            =      -0.0000000000000000 [Eh]
	 Same-Spin Energy          =      -0.2841869432145916 [Eh]
	 Opposite-Spin Energy      =      -0.8373792176711711 [Eh]
	 Correlation Energy        =      -1.1215661608857626 [Eh]
	 Total Energy              =   -2765.0124817238111063 [Eh]

	 ================> DF-SCS-MP2 Energies <==================
	-----------------------------------------------------------
	 SCS Same-Spin Scale       =       0.3333333333333333 [-]
	 SCS Opposite-Spin Scale   =       1.2000000000000000 [-]
	 SCS Same-Spin Energy      =      -0.0947289810715305 [Eh]
	 SCS Opposite-Spin Energy  =      -1.0048550612054052 [Eh]
	 SCS Correlation Energy    =      -1.0995840422769358 [Eh]
	 SCS Total Energy          =   -2764.9904996052023307 [Eh]
	-----------------------------------------------------------

  Dipole Moment: [D]
     X:     1.6288      Y:    -2.5202      Z:     0.0009     Total:     3.0008

*** Psi4 exiting successfully. Buy a developer a beer!
