                               Psi4 1.3.2 release

  ==> Input File <==

--------------------------------------------------------------------------
#psi4
#
memory 32 gb

molecule  {
0 1
 Br       -1.3732873    -0.1806442    -0.0001112
  O        0.8234410     1.5925820     0.0002040
  C        1.4590910    -0.7608190     0.0007700
  C        2.9264930    -0.3526980    -0.0006480
  C        0.5406660     0.4304600     0.0002430
  H        1.1964500    -1.3653870     0.8759120
  H        1.1952150    -1.3675680    -0.8724330
  H        3.1657420     0.2413720    -0.8848640
  H        3.1669300     0.2432120     0.8819950
  H        3.5587740    -1.2437650    -0.0001660
units angstrom
no_reorient  #important for SAPT in psi4, default
symmetry c1  #important for SAPT in psi4, default
}

set PROPERTIES_ORIGIN ["COM"]
properties('MP2/aug-cc-pvtz', properties = ['dipole'])
--------------------------------------------------------------------------

    Molecular point group: c1
  Charge       = 0
  Multiplicity = 1
  Basis Set: AUG-CC-PVTZ
    Blend: AUG-CC-PVTZ
  Basis Set: (AUG-CC-PVTZ AUX)
    Blend: AUG-CC-PVTZ-JKFIT

    Orbital Energies [Eh]
    ---------------------

    Doubly Occupied:

       1A   -490.025713     2A    -65.165650     3A    -58.520820
       4A    -58.519620     5A    -58.519494     6A    -20.604655
       7A    -11.413409     8A    -11.275609     9A    -11.241668
      10A     -9.838304    11A     -7.449258    12A     -7.443552
      13A     -7.443033    14A     -3.192660    15A     -3.189904
      16A     -3.189190    17A     -3.181906    18A     -3.181888
      19A     -1.445236    20A     -1.096877    21A     -1.023400
      22A     -0.911353    23A     -0.764826    24A     -0.680814
      25A     -0.663444    26A     -0.643571    27A     -0.571400
      28A     -0.564547    29A     -0.543036    30A     -0.521454
      31A     -0.428734    32A     -0.423351    33A     -0.420284

  @DF-RHF Final Energy: -2763.91610649997892

   => Energetics <=

    Nuclear Repulsion Energy =            306.6949123434748685
    One-Electron Energy =               -4453.0247114119774778
    Two-Electron Energy =                1382.4136925685236292
    Total Energy =                      -2763.9161064999789232
  Basis Set: (AUG-CC-PVTZ AUX)
    Blend: AUG-CC-PVTZ-RI
    Molecular point group: c1

    Geometry (in Angstrom), charge = 0, multiplicity = 1:

       Center              X                  Y                   Z               Mass
    ------------   -----------------  -----------------  -----------------  -----------------
         BR          -1.198869934218    -0.176973260714    -0.000106159395    78.918337600000
         O            0.997858365782     1.596252939286     0.000209040605    15.994914619570
         C            1.633508365782    -0.757148060714     0.000775040605    12.000000000000
         C            3.100910365782    -0.349027060714    -0.000642959395    12.000000000000
         C            0.715083365782     0.434130939286     0.000248040605    12.000000000000
         H            1.370867365782    -1.361716060714     0.875917040605     1.007825032230
         H            1.369632365782    -1.363897060714    -0.872427959395     1.007825032230
         H            3.340159365782     0.245042939286    -0.884858959395     1.007825032230
         H            3.341347365782     0.246882939286     0.882000040605     1.007825032230
         H            3.733191365782    -1.240094060714    -0.000160959395     1.007825032230

  Basis Set: AUG-CC-PVTZ
    Blend: AUG-CC-PVTZ
  Basis Set: (AUG-CC-PVTZ AUX)
    Blend: AUG-CC-PVTZ-JKFIT
	 Reference Energy          =   -2763.9161064999789232 [Eh]
	 Singles Energy            =      -0.0000000000000000 [Eh]
	 Same-Spin Energy          =      -0.2811186755330564 [Eh]
	 Opposite-Spin Energy      =      -0.8306052245963362 [Eh]
	 Correlation Energy        =      -1.1117239001293926 [Eh]
	 Total Energy              =   -2765.0278304001085417 [Eh]

	 ================> DF-SCS-MP2 Energies <==================
	-----------------------------------------------------------
	 SCS Same-Spin Scale       =       0.3333333333333333 [-]
	 SCS Opposite-Spin Scale   =       1.2000000000000000 [-]
	 SCS Same-Spin Energy      =      -0.0937062251776855 [Eh]
	 SCS Opposite-Spin Energy  =      -0.9967262695156034 [Eh]
	 SCS Correlation Energy    =      -1.0904324946932888 [Eh]
	 SCS Total Energy          =   -2765.0065389946721552 [Eh]
	-----------------------------------------------------------

  Dipole Moment: [D]
     X:     2.2199      Y:    -1.9854      Z:     0.0009     Total:     2.9782

*** Psi4 exiting successfully. Buy a developer a beer!
