                               Psi4 1.3.2 release

  ==> Input File <==

--------------------------------------------------------------------------
#psi4
#
memory 32 gb

molecule  {
0 1
 Br       -1.3836610    -0.1471480    -0.0001220
  O        0.8234410     1.5925820     0.0002040
  C        1.4590910    -0.7608190     0.0007700
  C        2.9264930    -0.3526980    -0.0006480
  C        0.6017229     0.3512637     0.0002780
  H        1.1964500    -1.3653870     0.8759120
  H        1.1952150    -1.3675680    -0.8724330
  H        3.1657420     0.2413720    -0.8848640
  H        3.1669300     0.2432120     0.8819950
  H        3.5587740    -1.2437650    -0.0001660
units angstrom
no_reorient  #important for SAPT in psi4, default
symmetry c1  #important for SAPT in psi4, default
}

set PROPERTIES_ORIGIN ["COM"]
properties('MP2/aug-cc-pvtz', properties = ['dipole'])
--------------------------------------------------------------------------

    Molecular point group: c1
  Charge       = 0
  Multiplicity = 1
  Basis Set: AUG-CC-PVTZ
    Blend: AUG-CC-PVTZ
  Basis Set: (AUG-CC-PVTZ AUX)
    Blend: AUG-CC-PVTZ-JKFIT

    Orbital Energies [Eh]
    ---------------------

    Doubly Occupied:

       1A   -490.024760     2A    -65.164457     3A    -58.519682
       4A    -58.518416     5A    -58.518301     6A    -20.599809
       7A    -11.422672     8A    -11.277048     9A    -11.247352
      10A     -9.836835    11A     -7.447842    12A     -7.441970
      13A     -7.441487    14A     -3.191294    15A     -3.188499
      16A     -3.187830    17A     -3.180249    18A     -3.180233
      19A     -1.401026    20A     -1.123686    21A     -1.018218
      22A     -0.930135    23A     -0.764438    24A     -0.675519
      25A     -0.674560    26A     -0.636564    27A     -0.559806
      28A     -0.557819    29A     -0.546146    30A     -0.514939
      31A     -0.436752    32A     -0.419699    33A     -0.415051

  @DF-RHF Final Energy: -2763.89422446557865

   => Energetics <=

    Nuclear Repulsion Energy =            305.7663115572151469
    One-Electron Energy =               -4451.1948864385531124
    Two-Electron Energy =                1381.5343504157594907
    Total Energy =                      -2763.8942244655786453
  Basis Set: (AUG-CC-PVTZ AUX)
    Blend: AUG-CC-PVTZ-RI
    Molecular point group: c1

    Geometry (in Angstrom), charge = 0, multiplicity = 1:

       Center              X                  Y                   Z               Mass
    ------------   -----------------  -----------------  -----------------  -----------------
         BR          -1.208611115976    -0.155930751135    -0.000113779472    78.918337600000
         O            0.998490884024     1.583799248865     0.000212220528    15.994914619570
         C            1.634140884024    -0.769601751135     0.000778220528    12.000000000000
         C            3.101542884024    -0.361480751135    -0.000639779472    12.000000000000
         C            0.776772784024     0.342480948865     0.000286220528    12.000000000000
         H            1.371499884024    -1.374169751135     0.875920220528     1.007825032230
         H            1.370264884024    -1.376350751135    -0.872424779472     1.007825032230
         H            3.340791884024     0.232589248865    -0.884855779472     1.007825032230
         H            3.341979884024     0.234429248865     0.882003220528     1.007825032230
         H            3.733823884024    -1.252547751135    -0.000157779472     1.007825032230

  Basis Set: AUG-CC-PVTZ
    Blend: AUG-CC-PVTZ
  Basis Set: (AUG-CC-PVTZ AUX)
    Blend: AUG-CC-PVTZ-JKFIT
	 Reference Energy          =   -2763.8942244655786453 [Eh]
	 Singles Energy            =      -0.0000000000000000 [Eh]
	 Same-Spin Energy          =      -0.2838753631931609 [Eh]
	 Opposite-Spin Energy      =      -0.8359939588701487 [Eh]
	 Correlation Energy        =      -1.1198693220633096 [Eh]
	 Total Energy              =   -2765.0140937876417411 [Eh]

	 ================> DF-SCS-MP2 Energies <==================
	-----------------------------------------------------------
	 SCS Same-Spin Scale       =       0.3333333333333333 [-]
	 SCS Opposite-Spin Scale   =       1.2000000000000000 [-]
	 SCS Same-Spin Energy      =      -0.0946251210643869 [Eh]
	 SCS Opposite-Spin Energy  =      -1.0031927506441785 [Eh]
	 SCS Correlation Energy    =      -1.0978178717085654 [Eh]
	 SCS Total Energy          =   -2764.9920423372873302 [Eh]
	-----------------------------------------------------------

  Dipole Moment: [D]
     X:     2.5342      Y:    -2.3360      Z:     0.0011     Total:     3.4466

*** Psi4 exiting successfully. Buy a developer a beer!
