                               Psi4 1.3.2 release

  ==> Input File <==

--------------------------------------------------------------------------
#psi4
#
memory 32 gb

molecule  {
0 1
 Br       -1.3836610    -0.1471480    -0.0001220
  O        0.8234410     1.5925820     0.0002040
  C        1.4590910    -0.7608190     0.0007700
  C        2.9264930    -0.3526980    -0.0006480
  C        0.5879516     0.6247898     0.0002365
  H        1.1964500    -1.3653870     0.8759120
  H        1.1952150    -1.3675680    -0.8724330
  H        3.1657420     0.2413720    -0.8848640
  H        3.1669300     0.2432120     0.8819950
  H        3.5587740    -1.2437650    -0.0001660
units angstrom
no_reorient  #important for SAPT in psi4, default
symmetry c1  #important for SAPT in psi4, default
}

set PROPERTIES_ORIGIN ["COM"]
properties('MP2/aug-cc-pvtz', properties = ['dipole'])
--------------------------------------------------------------------------

    Molecular point group: c1
  Charge       = 0
  Multiplicity = 1
  Basis Set: AUG-CC-PVTZ
    Blend: AUG-CC-PVTZ
  Basis Set: (AUG-CC-PVTZ AUX)
    Blend: AUG-CC-PVTZ-JKFIT

    Orbital Energies [Eh]
    ---------------------

    Doubly Occupied:

       1A   -489.980753     2A    -65.121232     3A    -58.476126
       4A    -58.475313     5A    -58.475213     6A    -20.643527
       7A    -11.395875     8A    -11.288905     9A    -11.247861
      10A     -9.794165    11A     -7.404078    12A     -7.400071
      13A     -7.399698    14A     -3.146772    15A     -3.144944
      16A     -3.144401    17A     -3.139417    18A     -3.139401
      19A     -1.630382    20A     -1.080498    21A     -0.985936
      22A     -0.893183    23A     -0.809155    24A     -0.754457
      25A     -0.726919    26A     -0.674539    27A     -0.636785
      28A     -0.579571    29A     -0.554652    30A     -0.531485
      31A     -0.392452    32A     -0.391768    33A     -0.378244

  @DF-RHF Final Energy: -2763.84228796233901

   => Energetics <=

    Nuclear Repulsion Energy =            306.6580339297849491
    One-Electron Energy =               -4453.3250907169449420
    Two-Electron Energy =                1382.8247688248204668
    Total Energy =                      -2763.8422879623394692
  Basis Set: (AUG-CC-PVTZ AUX)
    Blend: AUG-CC-PVTZ-RI
    Molecular point group: c1

    Geometry (in Angstrom), charge = 0, multiplicity = 1:

       Center              X                  Y                   Z               Mass
    ------------   -----------------  -----------------  -----------------  -----------------
         BR          -1.207395575629    -0.180073861121    -0.000110116425    78.918337600000
         O            0.999706424371     1.559656138879     0.000215883575    15.994914619570
         C            1.635356424371    -0.793744861121     0.000781883575    12.000000000000
         C            3.102758424371    -0.385623861121    -0.000636116425    12.000000000000
         C            0.764217024371     0.591863938879     0.000248383575    12.000000000000
         H            1.372715424371    -1.398312861121     0.875923883575     1.007825032230
         H            1.371480424371    -1.400493861121    -0.872421116425     1.007825032230
         H            3.342007424371     0.208446138879    -0.884852116425     1.007825032230
         H            3.343195424371     0.210286138879     0.882006883575     1.007825032230
         H            3.735039424371    -1.276690861121    -0.000154116425     1.007825032230

  Basis Set: AUG-CC-PVTZ
    Blend: AUG-CC-PVTZ
  Basis Set: (AUG-CC-PVTZ AUX)
    Blend: AUG-CC-PVTZ-JKFIT
	 Reference Energy          =   -2763.8422879623390145 [Eh]
	 Singles Energy            =      -0.0000000000000000 [Eh]
	 Same-Spin Energy          =      -0.2745097946177650 [Eh]
	 Opposite-Spin Energy      =      -0.8163706149132433 [Eh]
	 Correlation Energy        =      -1.0908804095310083 [Eh]
	 Total Energy              =   -2764.9331683718701242 [Eh]

	 ================> DF-SCS-MP2 Energies <==================
	-----------------------------------------------------------
	 SCS Same-Spin Scale       =       0.3333333333333333 [-]
	 SCS Opposite-Spin Scale   =       1.2000000000000000 [-]
	 SCS Same-Spin Energy      =      -0.0915032648725883 [Eh]
	 SCS Opposite-Spin Energy  =      -0.9796447378958919 [Eh]
	 SCS Correlation Energy    =      -1.0711480027684803 [Eh]
	 SCS Total Energy          =   -2764.9134359651075101 [Eh]
	-----------------------------------------------------------

  Dipole Moment: [D]
     X:     3.8024      Y:    -0.7465      Z:     0.0010     Total:     3.8750

*** Psi4 exiting successfully. Buy a developer a beer!
