                               Psi4 1.3.2 release

  ==> Input File <==

--------------------------------------------------------------------------
#psi4
#
memory 32 gb

molecule  {
0 1
 Br       -1.3836610    -0.1471480    -0.0001220
  O        0.8234410     1.5925820     0.0002040
  C        1.4590910    -0.7608190     0.0007700
  C        2.9264930    -0.3526980    -0.0006480
  C        0.7322228     0.4879579     0.0002793
  H        1.1964500    -1.3653870     0.8759120
  H        1.1952150    -1.3675680    -0.8724330
  H        3.1657420     0.2413720    -0.8848640
  H        3.1669300     0.2432120     0.8819950
  H        3.5587740    -1.2437650    -0.0001660
units angstrom
no_reorient  #important for SAPT in psi4, default
symmetry c1  #important for SAPT in psi4, default
}

set PROPERTIES_ORIGIN ["COM"]
properties('MP2/aug-cc-pvtz', properties = ['dipole'])
--------------------------------------------------------------------------

    Molecular point group: c1
  Charge       = 0
  Multiplicity = 1
  Basis Set: AUG-CC-PVTZ
    Blend: AUG-CC-PVTZ
  Basis Set: (AUG-CC-PVTZ AUX)
    Blend: AUG-CC-PVTZ-JKFIT

    Orbital Energies [Eh]
    ---------------------

    Doubly Occupied:

       1A   -489.972512     2A    -65.112781     3A    -58.467688
       4A    -58.466899     5A    -58.466812     6A    -20.649967
       7A    -11.430583     8A    -11.296454     9A    -11.259688
      10A     -9.785428    11A     -7.395199    12A     -7.391389
      13A     -7.391066    14A     -3.137832    15A     -3.136144
      16A     -3.135665    17A     -3.130844    18A     -3.130831
      19A     -1.544603    20A     -1.130687    21A     -0.977993
      22A     -0.921008    23A     -0.801053    24A     -0.735347
      25A     -0.702628    26A     -0.675420    27A     -0.622953
      28A     -0.583771    29A     -0.570304    30A     -0.545685
      31A     -0.388845    32A     -0.383150    33A     -0.379901

  @DF-RHF Final Energy: -2763.90152646254865

   => Energetics <=

    Nuclear Repulsion Energy =            304.4242360107967897
    One-Electron Energy =               -4449.2092665672043950
    Two-Electron Energy =                1380.8835040938593011
    Total Energy =                      -2763.9015264625486452
  Basis Set: (AUG-CC-PVTZ AUX)
    Blend: AUG-CC-PVTZ-RI
    Molecular point group: c1

    Geometry (in Angstrom), charge = 0, multiplicity = 1:

       Center              X                  Y                   Z               Mass
    ------------   -----------------  -----------------  -----------------  -----------------
         BR          -1.220129846507    -0.167996229000    -0.000113894218    78.918337600000
         O            0.986972153493     1.571733771000     0.000212105782    15.994914619570
         C            1.622622153493    -0.781667229000     0.000778105782    12.000000000000
         C            3.090024153493    -0.373546229000    -0.000639894218    12.000000000000
         C            0.895753953493     0.467109671000     0.000287405782    12.000000000000
         H            1.359981153493    -1.386235229000     0.875920105782     1.007825032230
         H            1.358746153493    -1.388416229000    -0.872424894218     1.007825032230
         H            3.329273153493     0.220523771000    -0.884855894218     1.007825032230
         H            3.330461153493     0.222363771000     0.882003105782     1.007825032230
         H            3.722305153493    -1.264613229000    -0.000157894218     1.007825032230

  Basis Set: AUG-CC-PVTZ
    Blend: AUG-CC-PVTZ
  Basis Set: (AUG-CC-PVTZ AUX)
    Blend: AUG-CC-PVTZ-JKFIT
	 Reference Energy          =   -2763.9015264625486452 [Eh]
	 Singles Energy            =      -0.0000000000000000 [Eh]
	 Same-Spin Energy          =      -0.2792629903683291 [Eh]
	 Opposite-Spin Energy      =      -0.8247481252259875 [Eh]
	 Correlation Energy        =      -1.1040111155943166 [Eh]
	 Total Energy              =   -2765.0055375781430484 [Eh]

	 ================> DF-SCS-MP2 Energies <==================
	-----------------------------------------------------------
	 SCS Same-Spin Scale       =       0.3333333333333333 [-]
	 SCS Opposite-Spin Scale   =       1.2000000000000000 [-]
	 SCS Same-Spin Energy      =      -0.0930876634561097 [Eh]
	 SCS Opposite-Spin Energy  =      -0.9896977502711850 [Eh]
	 SCS Correlation Energy    =      -1.0827854137272948 [Eh]
	 SCS Total Energy          =   -2764.9843118762760241 [Eh]
	-----------------------------------------------------------

  Dipole Moment: [D]
     X:     4.7082      Y:    -1.3256      Z:     0.0014     Total:     4.8912

*** Psi4 exiting successfully. Buy a developer a beer!
