                               Psi4 1.3.2 release

  ==> Input File <==

--------------------------------------------------------------------------
#psi4
#
memory 32 gb

molecule  {
0 1
 Br       -1.3836610    -0.1471480    -0.0001220
  O        0.8234410     1.5925820     0.0002040
  C        1.4590910    -0.7608190     0.0007700
  C        2.9113558    -0.3017350    -0.0006873
  C        0.5406660     0.4304600     0.0002430
  H        1.1964500    -1.3653870     0.8759120
  H        1.1952150    -1.3675680    -0.8724330
  H        3.1657420     0.2413720    -0.8848640
  H        3.1669300     0.2432120     0.8819950
  H        3.5587740    -1.2437650    -0.0001660
units angstrom
no_reorient  #important for SAPT in psi4, default
symmetry c1  #important for SAPT in psi4, default
}

set PROPERTIES_ORIGIN ["COM"]
properties('MP2/aug-cc-pvtz', properties = ['dipole'])
--------------------------------------------------------------------------

    Molecular point group: c1
  Charge       = 0
  Multiplicity = 1
  Basis Set: AUG-CC-PVTZ
    Blend: AUG-CC-PVTZ
  Basis Set: (AUG-CC-PVTZ AUX)
    Blend: AUG-CC-PVTZ-JKFIT

    Orbital Energies [Eh]
    ---------------------

    Doubly Occupied:

       1A   -490.024661     2A    -65.164609     3A    -58.519772
       4A    -58.518583     5A    -58.518457     6A    -20.603909
       7A    -11.412537     8A    -11.277004     9A    -11.242833
      10A     -9.837273    11A     -7.448203    12A     -7.442538
      13A     -7.442021    14A     -3.191591    15A     -3.188854
      16A     -3.188144    17A     -3.180916    18A     -3.180898
      19A     -1.445127    20A     -1.097345    21A     -1.022911
      22A     -0.911612    23A     -0.765142    24A     -0.679954
      25A     -0.667354    26A     -0.643309    27A     -0.576684
      28A     -0.556133    29A     -0.539067    30A     -0.528866
      31A     -0.427241    32A     -0.422531    33A     -0.419353

  @DF-RHF Final Energy: -2763.91338467990863

   => Energetics <=

    Nuclear Repulsion Energy =            306.8392525480103359
    One-Electron Energy =               -4453.3344082709854774
    Two-Electron Energy =                1382.5817710430665102
    Total Energy =                      -2763.9133846799086314
  Basis Set: (AUG-CC-PVTZ AUX)
    Blend: AUG-CC-PVTZ-RI
    Molecular point group: c1

    Geometry (in Angstrom), charge = 0, multiplicity = 1:

       Center              X                  Y                   Z               Mass
    ------------   -----------------  -----------------  -----------------  -----------------
         BR          -1.201885752157    -0.167419418197    -0.000107221293    78.918337600000
         O            1.005216247843     1.572310581803     0.000218778707    15.994914619570
         C            1.640866247843    -0.781090418197     0.000784778707    12.000000000000
         C            3.093131047843    -0.322006418197    -0.000672521293    12.000000000000
         C            0.722441247843     0.410188581803     0.000257778707    12.000000000000
         H            1.378225247843    -1.385658418197     0.875926778707     1.007825032230
         H            1.376990247843    -1.387839418197    -0.872418221293     1.007825032230
         H            3.347517247843     0.221100581803    -0.884849221293     1.007825032230
         H            3.348705247843     0.222940581803     0.882009778707     1.007825032230
         H            3.740549247843    -1.264036418197    -0.000151221293     1.007825032230

  Basis Set: AUG-CC-PVTZ
    Blend: AUG-CC-PVTZ
  Basis Set: (AUG-CC-PVTZ AUX)
    Blend: AUG-CC-PVTZ-JKFIT
	 Reference Energy          =   -2763.9133846799086314 [Eh]
	 Singles Energy            =      -0.0000000000000000 [Eh]
	 Same-Spin Energy          =      -0.2811100070006615 [Eh]
	 Opposite-Spin Energy      =      -0.8305529317027958 [Eh]
	 Correlation Energy        =      -1.1116629387034571 [Eh]
	 Total Energy              =   -2765.0250476186120068 [Eh]

	 ================> DF-SCS-MP2 Energies <==================
	-----------------------------------------------------------
	 SCS Same-Spin Scale       =       0.3333333333333333 [-]
	 SCS Opposite-Spin Scale   =       1.2000000000000000 [-]
	 SCS Same-Spin Energy      =      -0.0937033356668872 [Eh]
	 SCS Opposite-Spin Energy  =      -0.9966635180433548 [Eh]
	 SCS Correlation Energy    =      -1.0903668537102420 [Eh]
	 SCS Total Energy          =   -2765.0037515336189244 [Eh]
	-----------------------------------------------------------

  Dipole Moment: [D]
     X:     2.2554      Y:    -1.9904      Z:     0.0009     Total:     3.0080

*** Psi4 exiting successfully. Buy a developer a beer!
