                               Psi4 1.3.2 release

  ==> Input File <==

--------------------------------------------------------------------------
#psi4
#
memory 32 gb

molecule  {
0 1
 Br       -1.3836610    -0.1471480    -0.0001220
  O        0.8234410     1.5925820     0.0002040
  C        1.4590910    -0.7608190     0.0007700
  C        2.9264930    -0.3526980    -0.0006480
  C        0.6627799     0.2720674     0.0003131
  H        1.1964500    -1.3653870     0.8759120
  H        1.1952150    -1.3675680    -0.8724330
  H        3.1657420     0.2413720    -0.8848640
  H        3.1669300     0.2432120     0.8819950
  H        3.5587740    -1.2437650    -0.0001660
units angstrom
no_reorient  #important for SAPT in psi4, default
symmetry c1  #important for SAPT in psi4, default
}

set PROPERTIES_ORIGIN ["COM"]
properties('MP2/aug-cc-pvtz', properties = ['dipole'])
--------------------------------------------------------------------------

    Molecular point group: c1
  Charge       = 0
  Multiplicity = 1
  Basis Set: AUG-CC-PVTZ
    Blend: AUG-CC-PVTZ
  Basis Set: (AUG-CC-PVTZ AUX)
    Blend: AUG-CC-PVTZ-JKFIT

    Orbital Energies [Eh]
    ---------------------

    Doubly Occupied:

       1A   -490.022639     2A    -65.162127     3A    -58.517400
       4A    -58.516070     5A    -58.515964     6A    -20.592704
       7A    -11.429265     8A    -11.277208     9A    -11.254404
      10A     -9.834263    11A     -7.445320    12A     -7.439282
      13A     -7.438829    14A     -3.188809    15A     -3.185982
      16A     -3.185354    17A     -3.177490    18A     -3.177477
      19A     -1.359100    20A     -1.158388    21A     -1.012726
      22A     -0.947021    23A     -0.767910    24A     -0.690624
      25A     -0.668589    26A     -0.635662    27A     -0.560824
      28A     -0.558547    29A     -0.538216    30A     -0.495577
      31A     -0.437320    32A     -0.415239    33A     -0.408311

  @DF-RHF Final Energy: -2763.84354109405149

   => Energetics <=

    Nuclear Repulsion Energy =            305.1535270380499583
    One-Electron Energy =               -4449.9648510123606684
    Two-Electron Energy =                1380.9677828802591648
    Total Energy =                      -2763.8435410940514885
  Basis Set: (AUG-CC-PVTZ AUX)
    Blend: AUG-CC-PVTZ-RI
    Molecular point group: c1

    Geometry (in Angstrom), charge = 0, multiplicity = 1:

       Center              X                  Y                   Z               Mass
    ------------   -----------------  -----------------  -----------------  -----------------
         BR          -1.214000385470    -0.148940394524    -0.000116877616    78.918337600000
         O            0.993101614530     1.590789605476     0.000209122384    15.994914619570
         C            1.628751614530    -0.762611394524     0.000775122384    12.000000000000
         C            3.096153614530    -0.354490394524    -0.000642877616    12.000000000000
         C            0.832440514530     0.270275005476     0.000318222384    12.000000000000
         H            1.366110614530    -1.367179394524     0.875917122384     1.007825032230
         H            1.364875614530    -1.369360394524    -0.872427877616     1.007825032230
         H            3.335402614530     0.239579605476    -0.884858877616     1.007825032230
         H            3.336590614530     0.241419605476     0.882000122384     1.007825032230
         H            3.728434614530    -1.245557394524    -0.000160877616     1.007825032230

  Basis Set: AUG-CC-PVTZ
    Blend: AUG-CC-PVTZ
  Basis Set: (AUG-CC-PVTZ AUX)
    Blend: AUG-CC-PVTZ-JKFIT
	 Reference Energy          =   -2763.8435410940514885 [Eh]
	 Singles Energy            =      -0.0000000000000000 [Eh]
	 Same-Spin Energy          =      -0.2875424944636416 [Eh]
	 Opposite-Spin Energy      =      -0.8428013795568189 [Eh]
	 Correlation Energy        =      -1.1303438740204605 [Eh]
	 Total Energy              =   -2764.9738849680720705 [Eh]

	 ================> DF-SCS-MP2 Energies <==================
	-----------------------------------------------------------
	 SCS Same-Spin Scale       =       0.3333333333333333 [-]
	 SCS Opposite-Spin Scale   =       1.2000000000000000 [-]
	 SCS Same-Spin Energy      =      -0.0958474981545472 [Eh]
	 SCS Opposite-Spin Energy  =      -1.0113616554681826 [Eh]
	 SCS Correlation Energy    =      -1.1072091536227298 [Eh]
	 SCS Total Energy          =   -2764.9507502476740228 [Eh]
	-----------------------------------------------------------

  Dipole Moment: [D]
     X:     2.9064      Y:    -2.6756      Z:     0.0013     Total:     3.9504

*** Psi4 exiting successfully. Buy a developer a beer!
