                               Psi4 1.3.2 release

  ==> Input File <==

--------------------------------------------------------------------------
#psi4
#
memory 32 gb

molecule  {
0 1
 Br       -1.3934486    -0.1134759    -0.0001327
  O        0.8234410     1.5925820     0.0002040
  C        1.4590910    -0.7608190     0.0007700
  C        2.9264930    -0.3526980    -0.0006480
  C        0.5406660     0.4304600     0.0002430
  H        1.1964500    -1.3653870     0.8759120
  H        1.1952150    -1.3675680    -0.8724330
  H        3.1657420     0.2413720    -0.8848640
  H        3.1669300     0.2432120     0.8819950
  H        3.5587740    -1.2437650    -0.0001660
units angstrom
no_reorient  #important for SAPT in psi4, default
symmetry c1  #important for SAPT in psi4, default
}

set PROPERTIES_ORIGIN ["COM"]
properties('MP2/aug-cc-pvtz', properties = ['dipole'])
--------------------------------------------------------------------------

    Molecular point group: c1
  Charge       = 0
  Multiplicity = 1
  Basis Set: AUG-CC-PVTZ
    Blend: AUG-CC-PVTZ
  Basis Set: (AUG-CC-PVTZ AUX)
    Blend: AUG-CC-PVTZ-JKFIT

    Orbital Energies [Eh]
    ---------------------

    Doubly Occupied:

       1A   -490.025133     2A    -65.165056     3A    -58.520228
       4A    -58.519024     5A    -58.518901     6A    -20.603136
       7A    -11.412856     8A    -11.276695     9A    -11.242446
      10A     -9.837698    11A     -7.448658    12A     -7.442936
      13A     -7.442424    14A     -3.192064    15A     -3.189299
      16A     -3.188594    17A     -3.181288    18A     -3.181271
      19A     -1.444637    20A     -1.096254    21A     -1.022982
      22A     -0.912262    23A     -0.764435    24A     -0.681165
      25A     -0.663686    26A     -0.642598    27A     -0.571155
      28A     -0.564936    29A     -0.543286    30A     -0.521729
      31A     -0.429358    32A     -0.422513    33A     -0.419115

  @DF-RHF Final Energy: -2763.91656859244677

   => Energetics <=

    Nuclear Repulsion Energy =            306.3578896727480014
    One-Electron Energy =               -4452.3732773123265360
    Two-Electron Energy =                1382.0988190471318831
    Total Energy =                      -2763.9165685924472200
  Basis Set: (AUG-CC-PVTZ AUX)
    Blend: AUG-CC-PVTZ-RI
    Molecular point group: c1

    Geometry (in Angstrom), charge = 0, multiplicity = 1:

       Center              X                  Y                   Z               Mass
    ------------   -----------------  -----------------  -----------------  -----------------
         BR          -1.207327898753    -0.148795162118    -0.000115178964    78.918337600000
         O            1.009561701247     1.557262737882     0.000221521036    15.994914619570
         C            1.645211701247    -0.796138262118     0.000787521036    12.000000000000
         C            3.112613701247    -0.388017262118    -0.000630478964    12.000000000000
         C            0.726786701247     0.395140737882     0.000260521036    12.000000000000
         H            1.382570701247    -1.400706262118     0.875929521036     1.007825032230
         H            1.381335701247    -1.402887262118    -0.872415478964     1.007825032230
         H            3.351862701247     0.206052737882    -0.884846478964     1.007825032230
         H            3.353050701247     0.207892737882     0.882012521036     1.007825032230
         H            3.744894701247    -1.279084262118    -0.000148478964     1.007825032230

  Basis Set: AUG-CC-PVTZ
    Blend: AUG-CC-PVTZ
  Basis Set: (AUG-CC-PVTZ AUX)
    Blend: AUG-CC-PVTZ-JKFIT
	 Reference Energy          =   -2763.9165685924467653 [Eh]
	 Singles Energy            =      -0.0000000000000000 [Eh]
	 Same-Spin Energy          =      -0.2809158677188603 [Eh]
	 Opposite-Spin Energy      =      -0.8302827092018357 [Eh]
	 Correlation Energy        =      -1.1111985769206960 [Eh]
	 Total Energy              =   -2765.0277671693675074 [Eh]

	 ================> DF-SCS-MP2 Energies <==================
	-----------------------------------------------------------
	 SCS Same-Spin Scale       =       0.3333333333333333 [-]
	 SCS Opposite-Spin Scale   =       1.2000000000000000 [-]
	 SCS Same-Spin Energy      =      -0.0936386225729534 [Eh]
	 SCS Opposite-Spin Energy  =      -0.9963392510422028 [Eh]
	 SCS Correlation Energy    =      -1.0899778736151562 [Eh]
	 SCS Total Energy          =   -2765.0065464660619909 [Eh]
	-----------------------------------------------------------

  Dipole Moment: [D]
     X:     2.2509      Y:    -2.0326      Z:     0.0009     Total:     3.0329

*** Psi4 exiting successfully. Buy a developer a beer!
