                               Psi4 1.3.2 release

  ==> Input File <==

--------------------------------------------------------------------------
#psi4
#
memory 32 gb

molecule  {
0 1
 Br       -1.3836610    -0.1471480    -0.0001220
  O        0.8234410     1.5925820     0.0002040
  C        1.4590910    -0.7608190     0.0007700
  C        2.8944493    -0.2513314    -0.0007249
  C        0.5406660     0.4304600     0.0002430
  H        1.1964500    -1.3653870     0.8759120
  H        1.1952150    -1.3675680    -0.8724330
  H        3.1657420     0.2413720    -0.8848640
  H        3.1669300     0.2432120     0.8819950
  H        3.5587740    -1.2437650    -0.0001660
units angstrom
no_reorient  #important for SAPT in psi4, default
symmetry c1  #important for SAPT in psi4, default
}

set PROPERTIES_ORIGIN ["COM"]
properties('MP2/aug-cc-pvtz', properties = ['dipole'])
--------------------------------------------------------------------------

    Molecular point group: c1
  Charge       = 0
  Multiplicity = 1
  Basis Set: AUG-CC-PVTZ
    Blend: AUG-CC-PVTZ
  Basis Set: (AUG-CC-PVTZ AUX)
    Blend: AUG-CC-PVTZ-JKFIT

    Orbital Energies [Eh]
    ---------------------

    Doubly Occupied:

       1A   -490.024025     2A    -65.163991     3A    -58.519146
       4A    -58.517968     5A    -58.517843     6A    -20.604091
       7A    -11.412135     8A    -11.278271     9A    -11.244545
      10A     -9.836670    11A     -7.447576    12A     -7.441956
      13A     -7.441437    14A     -3.190948    15A     -3.188234
      16A     -3.187523    17A     -3.180355    18A     -3.180338
      19A     -1.445536    20A     -1.098474    21A     -1.022821
      22A     -0.912131    23A     -0.765747    24A     -0.679256
      25A     -0.671932    26A     -0.643945    27A     -0.582840
      28A     -0.559267    29A     -0.534391    30A     -0.522828
      31A     -0.425471    32A     -0.422225    33A     -0.418969

  @DF-RHF Final Energy: -2763.90512453175597

   => Energetics <=

    Nuclear Repulsion Energy =            307.1786917315010896
    One-Electron Energy =               -4454.0018606822077345
    Two-Electron Energy =                1382.9180444189507853
    Total Energy =                      -2763.9051245317559733
  Basis Set: (AUG-CC-PVTZ AUX)
    Blend: AUG-CC-PVTZ-RI
    Molecular point group: c1

    Geometry (in Angstrom), charge = 0, multiplicity = 1:

       Center              X                  Y                   Z               Mass
    ------------   -----------------  -----------------  -----------------  -----------------
         BR          -1.200393479613    -0.171868352534    -0.000103902484    78.918337600000
         O            1.006708520387     1.567861647466     0.000222097516    15.994914619570
         C            1.642358520387    -0.785539352534     0.000788097516    12.000000000000
         C            3.077716820387    -0.276051752534    -0.000706802484    12.000000000000
         C            0.723933520387     0.405739647466     0.000261097516    12.000000000000
         H            1.379717520387    -1.390107352534     0.875930097516     1.007825032230
         H            1.378482520387    -1.392288352534    -0.872414902484     1.007825032230
         H            3.349009520387     0.216651647466    -0.884845902484     1.007825032230
         H            3.350197520387     0.218491647466     0.882013097516     1.007825032230
         H            3.742041520387    -1.268485352534    -0.000147902484     1.007825032230

  Basis Set: AUG-CC-PVTZ
    Blend: AUG-CC-PVTZ
  Basis Set: (AUG-CC-PVTZ AUX)
    Blend: AUG-CC-PVTZ-JKFIT
	 Reference Energy          =   -2763.9051245317559733 [Eh]
	 Singles Energy            =      -0.0000000000000000 [Eh]
	 Same-Spin Energy          =      -0.2812987664475158 [Eh]
	 Opposite-Spin Energy      =      -0.8309402841806696 [Eh]
	 Correlation Energy        =      -1.1122390506281854 [Eh]
	 Total Energy              =   -2765.0173635823839504 [Eh]

	 ================> DF-SCS-MP2 Energies <==================
	-----------------------------------------------------------
	 SCS Same-Spin Scale       =       0.3333333333333333 [-]
	 SCS Opposite-Spin Scale   =       1.2000000000000000 [-]
	 SCS Same-Spin Energy      =      -0.0937662554825053 [Eh]
	 SCS Opposite-Spin Energy  =      -0.9971283410168035 [Eh]
	 SCS Correlation Energy    =      -1.0908945964993086 [Eh]
	 SCS Total Energy          =   -2764.9960191282552842 [Eh]
	-----------------------------------------------------------

  Dipole Moment: [D]
     X:     2.2628      Y:    -1.9672      Z:     0.0009     Total:     2.9984

*** Psi4 exiting successfully. Buy a developer a beer!
