                               Psi4 1.3.2 release

  ==> Input File <==

--------------------------------------------------------------------------
#psi4
#
memory 32 gb

molecule  {
0 1
 Br       -1.3836610    -0.1471480    -0.0001220
  O        0.8234410     1.5925820     0.0002040
  C        1.4590910    -0.7608190     0.0007700
  C        2.9611148    -0.5083190    -0.0005199
  C        0.5406660     0.4304600     0.0002430
  H        1.1964500    -1.3653870     0.8759120
  H        1.1952150    -1.3675680    -0.8724330
  H        3.1657420     0.2413720    -0.8848640
  H        3.1669300     0.2432120     0.8819950
  H        3.5587740    -1.2437650    -0.0001660
units angstrom
no_reorient  #important for SAPT in psi4, default
symmetry c1  #important for SAPT in psi4, default
}

set PROPERTIES_ORIGIN ["COM"]
properties('MP2/aug-cc-pvtz', properties = ['dipole'])
--------------------------------------------------------------------------

    Molecular point group: c1
  Charge       = 0
  Multiplicity = 1
  Basis Set: AUG-CC-PVTZ
    Blend: AUG-CC-PVTZ
  Basis Set: (AUG-CC-PVTZ AUX)
    Blend: AUG-CC-PVTZ-JKFIT

    Orbital Energies [Eh]
    ---------------------

    Doubly Occupied:

       1A   -490.028537     2A    -65.168401     3A    -58.523601
       4A    -58.522357     5A    -58.522234     6A    -20.604797
       7A    -11.415984     8A    -11.276406     9A    -11.245139
      10A     -9.840993    11A     -7.452039    12A     -7.446161
      13A     -7.445651    14A     -3.195499    15A     -3.192657
      16A     -3.191951    17A     -3.184435    18A     -3.184418
      19A     -1.445476    20A     -1.096221    21A     -1.025524
      22A     -0.918925    23A     -0.764448    24A     -0.685511
      25A     -0.656747    26A     -0.649059    27A     -0.609705
      28A     -0.562000    29A     -0.524928    30A     -0.490152
      31A     -0.434603    32A     -0.424713    33A     -0.421500

  @DF-RHF Final Energy: -2763.88421466088403

   => Energetics <=

    Nuclear Repulsion Energy =            305.6886782591621454
    One-Electron Energy =               -4450.8442396698746961
    Two-Electron Energy =                1381.2713467498285809
    Total Energy =                      -2763.8842146608840267
  Basis Set: (AUG-CC-PVTZ AUX)
    Blend: AUG-CC-PVTZ-RI
    Molecular point group: c1

    Geometry (in Angstrom), charge = 0, multiplicity = 1:

       Center              X                  Y                   Z               Mass
    ------------   -----------------  -----------------  -----------------  -----------------
         BR          -1.206277790101    -0.149185033129    -0.000121997056    78.918337600000
         O            1.000824209899     1.590544966871     0.000204002944    15.994914619570
         C            1.636474209899    -0.762856033129     0.000770002944    12.000000000000
         C            3.138498009899    -0.510356033129    -0.000519897056    12.000000000000
         C            0.718049209899     0.428422966871     0.000243002944    12.000000000000
         H            1.373833209899    -1.367424033129     0.875912002944     1.007825032230
         H            1.372598209899    -1.369605033129    -0.872432997056     1.007825032230
         H            3.343125209899     0.239334966871    -0.884863997056     1.007825032230
         H            3.344313209899     0.241174966871     0.881995002944     1.007825032230
         H            3.736157209899    -1.245802033129    -0.000165997056     1.007825032230

  Basis Set: AUG-CC-PVTZ
    Blend: AUG-CC-PVTZ
  Basis Set: (AUG-CC-PVTZ AUX)
    Blend: AUG-CC-PVTZ-JKFIT
	 Reference Energy          =   -2763.8842146608840267 [Eh]
	 Singles Energy            =      -0.0000000000000000 [Eh]
	 Same-Spin Energy          =      -0.2813181551184215 [Eh]
	 Opposite-Spin Energy      =      -0.8319387994842000 [Eh]
	 Correlation Energy        =      -1.1132569546026214 [Eh]
	 Total Energy              =   -2764.9974716154865746 [Eh]

	 ================> DF-SCS-MP2 Energies <==================
	-----------------------------------------------------------
	 SCS Same-Spin Scale       =       0.3333333333333333 [-]
	 SCS Opposite-Spin Scale   =       1.2000000000000000 [-]
	 SCS Same-Spin Energy      =      -0.0937727183728072 [Eh]
	 SCS Opposite-Spin Energy  =      -0.9983265593810400 [Eh]
	 SCS Correlation Energy    =      -1.0920992777538472 [Eh]
	 SCS Total Energy          =   -2764.9763139386377588 [Eh]
	-----------------------------------------------------------

  Dipole Moment: [D]
     X:     2.0926      Y:    -2.0379      Z:     0.0009     Total:     2.9209

*** Psi4 exiting successfully. Buy a developer a beer!
