                               Psi4 1.3.2 release

  ==> Input File <==

--------------------------------------------------------------------------
#psi4
#
memory 32 gb

molecule  {
0 1
 Br       -1.3836610    -0.1471480    -0.0001220
  O        0.8234410     1.5925820     0.0002040
  C        1.4590910    -0.7608190     0.0007700
  C        2.9264930    -0.3526980    -0.0006480
  C        0.6145141     0.4770469     0.1312628
  H        1.1964500    -1.3653870     0.8759120
  H        1.1952150    -1.3675680    -0.8724330
  H        3.1657420     0.2413720    -0.8848640
  H        3.1669300     0.2432120     0.8819950
  H        3.5587740    -1.2437650    -0.0001660
units angstrom
no_reorient  #important for SAPT in psi4, default
symmetry c1  #important for SAPT in psi4, default
}

set PROPERTIES_ORIGIN ["COM"]
properties('MP2/aug-cc-pvtz', properties = ['dipole'])
--------------------------------------------------------------------------

    Molecular point group: c1
  Charge       = 0
  Multiplicity = 1
  Basis Set: AUG-CC-PVTZ
    Blend: AUG-CC-PVTZ
  Basis Set: (AUG-CC-PVTZ AUX)
    Blend: AUG-CC-PVTZ-JKFIT

    Orbital Energies [Eh]
    ---------------------

    Doubly Occupied:

       1A   -490.003070     2A    -65.143096     3A    -58.498175
       4A    -58.497110     5A    -58.497010     6A    -20.624465
       7A    -11.417832     8A    -11.284334     9A    -11.247751
      10A     -9.815669    11A     -7.426159    12A     -7.421148
      13A     -7.420746    14A     -3.169241    15A     -3.166910
      16A     -3.166341    17A     -3.159930    18A     -3.159917
      19A     -1.498678    20A     -1.102253    21A     -1.000920
      22A     -0.912931    23A     -0.780228    24A     -0.705210
      25A     -0.676353    26A     -0.654956    27A     -0.597671
      28A     -0.573277    29A     -0.553536    30A     -0.530484
      31A     -0.411506    32A     -0.405735    33A     -0.403239

  @DF-RHF Final Energy: -2763.90980459582261

   => Energetics <=

    Nuclear Repulsion Energy =            305.3763145262259968
    One-Electron Energy =               -4450.7204737502106582
    Two-Electron Energy =                1381.4343546281620547
    Total Energy =                      -2763.9098045958230614
  Basis Set: (AUG-CC-PVTZ AUX)
    Blend: AUG-CC-PVTZ-RI
    Molecular point group: c1

    Geometry (in Angstrom), charge = 0, multiplicity = 1:

       Center              X                  Y                   Z               Mass
    ------------   -----------------  -----------------  -----------------  -----------------
         BR          -1.209740146619    -0.167033156470    -0.011675310284    78.918337600000
         O            0.997361853381     1.572696843530    -0.011349310284    15.994914619570
         C            1.633011853381    -0.780704156470    -0.010783310284    12.000000000000
         C            3.100413853381    -0.372583156470    -0.012201310284    12.000000000000
         C            0.788434953381     0.457161743530     0.119709489716    12.000000000000
         H            1.370370853381    -1.385272156470     0.864358689716     1.007825032230
         H            1.369135853381    -1.387453156470    -0.883986310284     1.007825032230
         H            3.339662853381     0.221486843530    -0.896417310284     1.007825032230
         H            3.340850853381     0.223326843530     0.870441689716     1.007825032230
         H            3.732694853381    -1.263650156470    -0.011719310284     1.007825032230

  Basis Set: AUG-CC-PVTZ
    Blend: AUG-CC-PVTZ
  Basis Set: (AUG-CC-PVTZ AUX)
    Blend: AUG-CC-PVTZ-JKFIT
	 Reference Energy          =   -2763.9098045958226066 [Eh]
	 Singles Energy            =      -0.0000000000000000 [Eh]
	 Same-Spin Energy          =      -0.2798871956579245 [Eh]
	 Opposite-Spin Energy      =      -0.8278190289287786 [Eh]
	 Correlation Energy        =      -1.1077062245867031 [Eh]
	 Total Energy              =   -2765.0175108204093704 [Eh]

	 ================> DF-SCS-MP2 Energies <==================
	-----------------------------------------------------------
	 SCS Same-Spin Scale       =       0.3333333333333333 [-]
	 SCS Opposite-Spin Scale   =       1.2000000000000000 [-]
	 SCS Same-Spin Energy      =      -0.0932957318859748 [Eh]
	 SCS Opposite-Spin Energy  =      -0.9933828347145343 [Eh]
	 SCS Correlation Energy    =      -1.0866785666005092 [Eh]
	 SCS Total Energy          =   -2764.9964831624229191 [Eh]
	-----------------------------------------------------------

  Dipole Moment: [D]
     X:     3.2355      Y:    -1.6042      Z:     0.0886     Total:     3.6124

*** Psi4 exiting successfully. Buy a developer a beer!
