                               Psi4 1.3.2 release

  ==> Input File <==

--------------------------------------------------------------------------
#psi4
#
memory 32 gb

molecule  {
0 1
 Br       -1.3836610    -0.1471480    -0.0001220
  O        0.8234410     1.5925820     0.0002040
  C        1.4590910    -0.7608190     0.0007700
  C        2.9264930    -0.3526980    -0.0006480
  C        0.4185521     0.5888526     0.0001729
  H        1.1964500    -1.3653870     0.8759120
  H        1.1952150    -1.3675680    -0.8724330
  H        3.1657420     0.2413720    -0.8848640
  H        3.1669300     0.2432120     0.8819950
  H        3.5587740    -1.2437650    -0.0001660
units angstrom
no_reorient  #important for SAPT in psi4, default
symmetry c1  #important for SAPT in psi4, default
}

set PROPERTIES_ORIGIN ["COM"]
properties('MP2/aug-cc-pvtz', properties = ['dipole'])
--------------------------------------------------------------------------

    Molecular point group: c1
  Charge       = 0
  Multiplicity = 1
  Basis Set: AUG-CC-PVTZ
    Blend: AUG-CC-PVTZ
  Basis Set: (AUG-CC-PVTZ AUX)
    Blend: AUG-CC-PVTZ-JKFIT

    Orbital Energies [Eh]
    ---------------------

    Doubly Occupied:

       1A   -490.027124     2A    -65.167447     3A    -58.522549
       4A    -58.521392     5A    -58.521252     6A    -20.609312
       7A    -11.393472     8A    -11.267379     9A    -11.233233
      10A     -9.840602    11A     -7.451599    12A     -7.445894
      13A     -7.445321    14A     -3.194982    15A     -3.192158
      16A     -3.191391    17A     -3.184267    18A     -3.184246
      19A     -1.532443    20A     -1.064703    21A     -1.029286
      22A     -0.876685    23A     -0.773170    24A     -0.699217
      25A     -0.662218    26A     -0.657298    27A     -0.607622
      28A     -0.566571    29A     -0.535999    30A     -0.513951
      31A     -0.428772    32A     -0.427964    33A     -0.391051

  @DF-RHF Final Energy: -2763.88530942760508

   => Energetics <=

    Nuclear Repulsion Energy =            308.1800999664287133
    One-Electron Energy =               -4455.8096788288485186
    Two-Electron Energy =                1383.7442694348153509
    Total Energy =                      -2763.8853094276046249
  Basis Set: (AUG-CC-PVTZ AUX)
    Blend: AUG-CC-PVTZ-RI
    Molecular point group: c1

    Geometry (in Angstrom), charge = 0, multiplicity = 1:

       Center              X                  Y                   Z               Mass
    ------------   -----------------  -----------------  -----------------  -----------------
         BR          -1.192443325149    -0.176901820968    -0.000104502694    78.918337600000
         O            1.014658674851     1.562828179032     0.000221497306    15.994914619570
         C            1.650308674851    -0.790572820968     0.000787497306    12.000000000000
         C            3.117710674851    -0.382451820968    -0.000630502694    12.000000000000
         C            0.609769774851     0.559098779032     0.000190397306    12.000000000000
         H            1.387667674851    -1.395140820968     0.875929497306     1.007825032230
         H            1.386432674851    -1.397321820968    -0.872415502694     1.007825032230
         H            3.356959674851     0.211618179032    -0.884846502694     1.007825032230
         H            3.358147674851     0.213458179032     0.882012497306     1.007825032230
         H            3.749991674851    -1.273518820968    -0.000148502694     1.007825032230

  Basis Set: AUG-CC-PVTZ
    Blend: AUG-CC-PVTZ
  Basis Set: (AUG-CC-PVTZ AUX)
    Blend: AUG-CC-PVTZ-JKFIT
	 Reference Energy          =   -2763.8853094276050797 [Eh]
	 Singles Energy            =      -0.0000000000000000 [Eh]
	 Same-Spin Energy          =      -0.2780160495046309 [Eh]
	 Opposite-Spin Energy      =      -0.8244990695294798 [Eh]
	 Correlation Energy        =      -1.1025151190341107 [Eh]
	 Total Energy              =   -2764.9878245466393309 [Eh]

	 ================> DF-SCS-MP2 Energies <==================
	-----------------------------------------------------------
	 SCS Same-Spin Scale       =       0.3333333333333333 [-]
	 SCS Opposite-Spin Scale   =       1.2000000000000000 [-]
	 SCS Same-Spin Energy      =      -0.0926720165015436 [Eh]
	 SCS Opposite-Spin Energy  =      -0.9893988834353757 [Eh]
	 SCS Correlation Energy    =      -1.0820708999369193 [Eh]
	 SCS Total Energy          =   -2764.9673803275418322 [Eh]
	-----------------------------------------------------------

  Dipole Moment: [D]
     X:     1.6775      Y:    -1.3059      Z:     0.0006     Total:     2.1259

*** Psi4 exiting successfully. Buy a developer a beer!
