                               Psi4 1.4a3.dev225

  ==> Input File <==

--------------------------------------------------------------------------
#psi4
#
memory 32 gb

molecule  {
0 1
 Br       -1.3836660    -0.1471400     0.0000000
  O        0.8235020     1.5925660     0.0000000
  C        1.4590730    -0.7608090     0.0000000
  C        2.9264910    -0.3527110    -0.0000010
  C        0.5885472     0.4448343     0.0000000
  H        1.1958170    -1.3664940     0.8741710
  H        1.1958160    -1.3664970    -0.8741670
  H        3.1663090     0.2422710    -0.8834470
  H        3.1663120     0.2422700     0.8834460
  H        3.5586990    -1.2438130    -0.0000020
units angstrom
no_reorient  #important for SAPT in psi4, default
symmetry c1  #important for SAPT in psi4, default
}

set PROPERTIES_ORIGIN ["COM"]
properties('MP2/aug-cc-pvtz', properties = ['dipole'])
--------------------------------------------------------------------------

    Molecular point group: c1
  Charge       = 0
  Multiplicity = 1
  Basis Set: AUG-CC-PVTZ
    Blend: AUG-CC-PVTZ
  Basis Set: (AUG-CC-PVTZ AUX)
    Blend: AUG-CC-PVTZ-JKFIT

    Orbital Energies [Eh]
    ---------------------

    Doubly Occupied:

       1A   -490.013429     2A    -65.153382     3A    -58.508509
       4A    -58.507379     5A    -58.507266     6A    -20.613703
       7A    -11.416109     8A    -11.280084     9A    -11.245703
      10A     -9.825952    11A     -7.436654    12A     -7.431319
      13A     -7.430866    14A     -3.179886    15A     -3.177363
      16A     -3.176728    17A     -3.169903    18A     -3.169887
      19A     -1.469566    20A     -1.103250    21A     -1.010952
      22A     -0.915241    23A     -0.771996    24A     -0.693725
      25A     -0.671341    26A     -0.648899    27A     -0.583343
      28A     -0.569128    29A     -0.549364    30A     -0.527671
      31A     -0.421182    32A     -0.414227    33A     -0.410701

  @DF-RHF Final Energy: -2763.91700079438033

   => Energetics <=

    Nuclear Repulsion Energy =            305.9398194843904548
    One-Electron Energy =               -4451.7042215234860123
    Two-Electron Energy =                1381.8474012447150017
    Total Energy =                      -2763.9170007943803284
  Basis Set: (AUG-CC-PVTZ AUX)
    Blend: AUG-CC-PVTZ-RI
    Molecular point group: c1

    Geometry (in Angstrom), charge = 0, multiplicity = 1:

       Center              X                  Y                   Z               Mass
    ------------   -----------------  -----------------  -----------------  -----------------
         BR          -1.207454484666    -0.164183427821     0.000000080853    78.918337600000
         O            0.999713515334     1.575522572179     0.000000080853    15.994914619570
         C            1.635284515334    -0.777852427821     0.000000080853    12.000000000000
         C            3.102702515334    -0.369754427821    -0.000000919147    12.000000000000
         C            0.764758715334     0.427790872179     0.000000080853    12.000000000000
         H            1.372028515334    -1.383537427821     0.874171080853     1.007825032230
         H            1.372027515334    -1.383540427821    -0.874166919147     1.007825032230
         H            3.342520515334     0.225227572179    -0.883446919147     1.007825032230
         H            3.342523515334     0.225226572179     0.883446080853     1.007825032230
         H            3.734910515334    -1.260856427821    -0.000001919147     1.007825032230

  Basis Set: AUG-CC-PVTZ
    Blend: AUG-CC-PVTZ
  Basis Set: (AUG-CC-PVTZ AUX)
    Blend: AUG-CC-PVTZ-JKFIT
	 Reference Energy          =   -2763.9170007943803284 [Eh]
	 Singles Energy            =      -0.0000000000000000 [Eh]
	 Same-Spin Energy          =      -0.2805685516862457 [Eh]
	 Opposite-Spin Energy      =      -0.8290743829793976 [Eh]
	 Correlation Energy        =      -1.1096429346656433 [Eh]
	 Total Energy              =   -2765.0266437290460999 [Eh]

	 ================> DF-SCS-MP2 Energies <==================
	-----------------------------------------------------------
	 SCS Same-Spin Scale       =       0.3333333333333333 [-]
	 SCS Opposite-Spin Scale   =       1.2000000000000000 [-]
	 SCS Same-Spin Energy      =      -0.0935228505620819 [Eh]
	 SCS Opposite-Spin Energy  =      -0.9948892595752771 [Eh]
	 SCS Correlation Energy    =      -1.0884121101373589 [Eh]
	 SCS Total Energy          =   -2765.0054129045174705 [Eh]
	-----------------------------------------------------------

  Dipole Moment: [D]
     X:     2.8090      Y:    -1.8464      Z:     0.0000     Total:     3.3615

*** Psi4 exiting successfully. Buy a developer a beer!
