                               Psi4 1.3.2 release

  ==> Input File <==

--------------------------------------------------------------------------
#psi4
#
memory 32 gb

molecule  {
0 1
 Br       -1.3836610    -0.1471480    -0.0001220
  O        0.8234410     1.5925820     0.0002040
  C        1.4590910    -0.7608190     0.0007700
  C        2.9264930    -0.3526980    -0.0006480
  C        0.3491092     0.3729621     0.0002067
  H        1.1964500    -1.3653870     0.8759120
  H        1.1952150    -1.3675680    -0.8724330
  H        3.1657420     0.2413720    -0.8848640
  H        3.1669300     0.2432120     0.8819950
  H        3.5587740    -1.2437650    -0.0001660
units angstrom
no_reorient  #important for SAPT in psi4, default
symmetry c1  #important for SAPT in psi4, default
}

set PROPERTIES_ORIGIN ["COM"]
properties('MP2/aug-cc-pvtz', properties = ['dipole'])
--------------------------------------------------------------------------

    Molecular point group: c1
  Charge       = 0
  Multiplicity = 1
  Basis Set: AUG-CC-PVTZ
    Blend: AUG-CC-PVTZ
  Basis Set: (AUG-CC-PVTZ AUX)
    Blend: AUG-CC-PVTZ-JKFIT

    Orbital Energies [Eh]
    ---------------------

    Doubly Occupied:

       1A   -490.063250     2A    -65.203751     3A    -58.558884
       4A    -58.557692     5A    -58.557483     6A    -20.574135
       7A    -11.408734     8A    -11.268466     9A    -11.232130
      10A     -9.877556    11A     -7.489228    12A     -7.482768
      13A     -7.481842    14A     -3.233110    15A     -3.229659
      16A     -3.228466    17A     -3.220583    18A     -3.220544
      19A     -1.353550    20A     -1.108281    21A     -1.048074
      22A     -0.897139    23A     -0.750043    24A     -0.647700
      25A     -0.642264    26A     -0.619768    27A     -0.555447
      28A     -0.543314    29A     -0.525858    30A     -0.499873
      31A     -0.446893    32A     -0.438964    33A     -0.433824

  @DF-RHF Final Energy: -2763.87609488803491

   => Energetics <=

    Nuclear Repulsion Energy =            309.4724867670486219
    One-Electron Energy =               -4457.8986150534174158
    Two-Electron Energy =                1384.5500333983343353
    Total Energy =                      -2763.8760948880344586
  Basis Set: (AUG-CC-PVTZ AUX)
    Blend: AUG-CC-PVTZ-RI
    Molecular point group: c1

    Geometry (in Angstrom), charge = 0, multiplicity = 1:

       Center              X                  Y                   Z               Mass
    ------------   -----------------  -----------------  -----------------  -----------------
         BR          -1.186313864112    -0.157845986492    -0.000107486092    78.918337600000
         O            1.020788135888     1.581884013508     0.000218513908    15.994914619570
         C            1.656438135888    -0.771516986492     0.000784513908    12.000000000000
         C            3.123840135888    -0.363395986492    -0.000633486092    12.000000000000
         C            0.546456335888     0.362264113508     0.000221213908    12.000000000000
         H            1.393797135888    -1.376084986492     0.875926513908     1.007825032230
         H            1.392562135888    -1.378265986492    -0.872418486092     1.007825032230
         H            3.363089135888     0.230674013508    -0.884849486092     1.007825032230
         H            3.364277135888     0.232514013508     0.882009513908     1.007825032230
         H            3.756121135888    -1.254462986492    -0.000151486092     1.007825032230

  Basis Set: AUG-CC-PVTZ
    Blend: AUG-CC-PVTZ
  Basis Set: (AUG-CC-PVTZ AUX)
    Blend: AUG-CC-PVTZ-JKFIT
	 Reference Energy          =   -2763.8760948880349133 [Eh]
	 Singles Energy            =      -0.0000000000000000 [Eh]
	 Same-Spin Energy          =      -0.2845223251896126 [Eh]
	 Opposite-Spin Energy      =      -0.8383719389731987 [Eh]
	 Correlation Energy        =      -1.1228942641628112 [Eh]
	 Total Energy              =   -2764.9989891521977370 [Eh]

	 ================> DF-SCS-MP2 Energies <==================
	-----------------------------------------------------------
	 SCS Same-Spin Scale       =       0.3333333333333333 [-]
	 SCS Opposite-Spin Scale   =       1.2000000000000000 [-]
	 SCS Same-Spin Energy      =      -0.0948407750632042 [Eh]
	 SCS Opposite-Spin Energy  =      -1.0060463267678383 [Eh]
	 SCS Correlation Energy    =      -1.1008871018310424 [Eh]
	 SCS Total Energy          =   -2764.9769819898660899 [Eh]
	-----------------------------------------------------------

  Dipole Moment: [D]
     X:     0.2876      Y:    -2.5506      Z:     0.0005     Total:     2.5668

*** Psi4 exiting successfully. Buy a developer a beer!
