                               Psi4 1.3.2 release

  ==> Input File <==

--------------------------------------------------------------------------
#psi4
#
memory 32 gb

molecule  {
0 1
 Br       -1.3836610    -0.1471480    -0.0001220
  O        0.8234410     1.5925820     0.0002040
  C        1.4590910    -0.7608190     0.0007700
  C        2.9264930    -0.3526980    -0.0006480
  C        0.4933804     0.2361302     0.0002495
  H        1.1964500    -1.3653870     0.8759120
  H        1.1952150    -1.3675680    -0.8724330
  H        3.1657420     0.2413720    -0.8848640
  H        3.1669300     0.2432120     0.8819950
  H        3.5587740    -1.2437650    -0.0001660
units angstrom
no_reorient  #important for SAPT in psi4, default
symmetry c1  #important for SAPT in psi4, default
}

set PROPERTIES_ORIGIN ["COM"]
properties('MP2/aug-cc-pvtz', properties = ['dipole'])
--------------------------------------------------------------------------

    Molecular point group: c1
  Charge       = 0
  Multiplicity = 1
  Basis Set: AUG-CC-PVTZ
    Blend: AUG-CC-PVTZ
  Basis Set: (AUG-CC-PVTZ AUX)
    Blend: AUG-CC-PVTZ-JKFIT

    Orbital Energies [Eh]
    ---------------------

    Doubly Occupied:

       1A   -490.055557     2A    -65.195240     3A    -58.550545
       4A    -58.549155     5A    -58.548990     6A    -20.569112
       7A    -11.419494     8A    -11.271108     9A    -11.242280
      10A     -9.867937    11A     -7.479546    12A     -7.472858
      13A     -7.472113    14A     -3.223446    15A     -3.220096
      16A     -3.219116    17A     -3.210577    18A     -3.210550
      19A     -1.311308    20A     -1.123128    21A     -1.051062
      22A     -0.935221    23A     -0.750330    24A     -0.667955
      25A     -0.653945    26A     -0.612790    27A     -0.551032
      28A     -0.544930    29A     -0.520271    30A     -0.482313
      31A     -0.459214    32A     -0.428597    33A     -0.425937

  @DF-RHF Final Energy: -2763.84640917474644

   => Energetics <=

    Nuclear Repulsion Energy =            307.4636594182270528
    One-Electron Energy =               -4454.0286362140732308
    Two-Electron Energy =                1382.7185676210990550
    Total Energy =                      -2763.8464091747464408
  Basis Set: (AUG-CC-PVTZ AUX)
    Blend: AUG-CC-PVTZ-RI
    Molecular point group: c1

    Geometry (in Angstrom), charge = 0, multiplicity = 1:

       Center              X                  Y                   Z               Mass
    ------------   -----------------  -----------------  -----------------  -----------------
         BR          -1.199048134990    -0.145768354371    -0.000111263885    78.918337600000
         O            1.008053865010     1.593961645629     0.000214736115    15.994914619570
         C            1.643703865010    -0.759439354371     0.000780736115    12.000000000000
         C            3.111105865010    -0.351318354371    -0.000637263885    12.000000000000
         C            0.677993265010     0.237509845629     0.000260236115    12.000000000000
         H            1.381062865010    -1.364007354371     0.875922736115     1.007825032230
         H            1.379827865010    -1.366188354371    -0.872422263885     1.007825032230
         H            3.350354865010     0.242751645629    -0.884853263885     1.007825032230
         H            3.351542865010     0.244591645629     0.882005736115     1.007825032230
         H            3.743386865010    -1.242385354371    -0.000155263885     1.007825032230

  Basis Set: AUG-CC-PVTZ
    Blend: AUG-CC-PVTZ
  Basis Set: (AUG-CC-PVTZ AUX)
    Blend: AUG-CC-PVTZ-JKFIT
	 Reference Energy          =   -2763.8464091747464408 [Eh]
	 Singles Energy            =      -0.0000000000000000 [Eh]
	 Same-Spin Energy          =      -0.2876730609702695 [Eh]
	 Opposite-Spin Energy      =      -0.8446157002273513 [Eh]
	 Correlation Energy        =      -1.1322887611976209 [Eh]
	 Total Energy              =   -2764.9786979359441830 [Eh]

	 ================> DF-SCS-MP2 Energies <==================
	-----------------------------------------------------------
	 SCS Same-Spin Scale       =       0.3333333333333333 [-]
	 SCS Opposite-Spin Scale   =       1.2000000000000000 [-]
	 SCS Same-Spin Energy      =      -0.0958910203234232 [Eh]
	 SCS Opposite-Spin Energy  =      -1.0135388402728216 [Eh]
	 SCS Correlation Energy    =      -1.1094298605962447 [Eh]
	 SCS Total Energy          =   -2764.9558390353427058 [Eh]
	-----------------------------------------------------------

  Dipole Moment: [D]
     X:     1.1744      Y:    -2.9069      Z:     0.0009     Total:     3.1352

*** Psi4 exiting successfully. Buy a developer a beer!
