                               Psi4 1.3.2 release

  ==> Input File <==

--------------------------------------------------------------------------
#psi4
#
memory 32 gb

molecule  {
0 1
 Br       -1.3836610    -0.1471480    -0.0001220
  O        0.8234410     1.5925820     0.0002040
  C        1.4590910    -0.7608190     0.0007700
  C        2.9333922    -0.3783699    -0.0006277
  C        0.5406660     0.4304600     0.0002430
  H        1.1964500    -1.3653870     0.8759120
  H        1.1952150    -1.3675680    -0.8724330
  H        3.1657420     0.2413720    -0.8848640
  H        3.1669300     0.2432120     0.8819950
  H        3.5587740    -1.2437650    -0.0001660
units angstrom
no_reorient  #important for SAPT in psi4, default
symmetry c1  #important for SAPT in psi4, default
}

set PROPERTIES_ORIGIN ["COM"]
properties('MP2/aug-cc-pvtz', properties = ['dipole'])
--------------------------------------------------------------------------

    Molecular point group: c1
  Charge       = 0
  Multiplicity = 1
  Basis Set: AUG-CC-PVTZ
    Blend: AUG-CC-PVTZ
  Basis Set: (AUG-CC-PVTZ AUX)
    Blend: AUG-CC-PVTZ-JKFIT

    Orbital Energies [Eh]
    ---------------------

    Doubly Occupied:

       1A   -490.025867     2A    -65.165786     3A    -58.520962
       4A    -58.519754     5A    -58.519629     6A    -20.603951
       7A    -11.413498     8A    -11.275895     9A    -11.242020
      10A     -9.838425    11A     -7.449395    12A     -7.443657
      13A     -7.443142    14A     -3.192808    15A     -3.190035
      16A     -3.189326    17A     -3.181998    18A     -3.181981
      19A     -1.444909    20A     -1.096281    21A     -1.023437
      22A     -0.912253    23A     -0.764416    24A     -0.681611
      25A     -0.661967    26A     -0.643209    27A     -0.572837
      28A     -0.568998    29A     -0.541041    30A     -0.517249
      31A     -0.429911    32A     -0.423185    33A     -0.420004

  @DF-RHF Final Energy: -2763.91563767844900

   => Energetics <=

    Nuclear Repulsion Energy =            306.3651875568635887
    One-Electron Energy =               -4452.3627749151764874
    Two-Electron Energy =                1382.0819496798635555
    Total Energy =                      -2763.9156376784490021
  Basis Set: (AUG-CC-PVTZ AUX)
    Blend: AUG-CC-PVTZ-RI
    Molecular point group: c1

    Geometry (in Angstrom), charge = 0, multiplicity = 1:

       Center              X                  Y                   Z               Mass
    ------------   -----------------  -----------------  -----------------  -----------------
         BR          -1.203830821490    -0.160655146636    -0.000112481959    78.918337600000
         O            1.003271178510     1.579074853364     0.000213518041    15.994914619570
         C            1.638921178510    -0.774326146636     0.000779518041    12.000000000000
         C            3.113222378510    -0.391877046636    -0.000618181959    12.000000000000
         C            0.720496178510     0.416952853364     0.000252518041    12.000000000000
         H            1.376280178510    -1.378894146636     0.875921518041     1.007825032230
         H            1.375045178510    -1.381075146636    -0.872423481959     1.007825032230
         H            3.345572178510     0.227864853364    -0.884854481959     1.007825032230
         H            3.346760178510     0.229704853364     0.882004518041     1.007825032230
         H            3.738604178510    -1.257272146636    -0.000156481959     1.007825032230

  Basis Set: AUG-CC-PVTZ
    Blend: AUG-CC-PVTZ
  Basis Set: (AUG-CC-PVTZ AUX)
    Blend: AUG-CC-PVTZ-JKFIT
	 Reference Energy          =   -2763.9156376784490021 [Eh]
	 Singles Energy            =      -0.0000000000000000 [Eh]
	 Same-Spin Energy          =      -0.2810017470424363 [Eh]
	 Opposite-Spin Energy      =      -0.8304867650778377 [Eh]
	 Correlation Energy        =      -1.1114885121202740 [Eh]
	 Total Energy              =   -2765.0271261905691063 [Eh]

	 ================> DF-SCS-MP2 Energies <==================
	-----------------------------------------------------------
	 SCS Same-Spin Scale       =       0.3333333333333333 [-]
	 SCS Opposite-Spin Scale   =       1.2000000000000000 [-]
	 SCS Same-Spin Energy      =      -0.0936672490141454 [Eh]
	 SCS Opposite-Spin Energy  =      -0.9965841180934052 [Eh]
	 SCS Correlation Energy    =      -1.0902513671075507 [Eh]
	 SCS Total Energy          =   -2765.0058890455566143 [Eh]
	-----------------------------------------------------------

  Dipole Moment: [D]
     X:     2.2202      Y:    -2.0166      Z:     0.0009     Total:     2.9993

*** Psi4 exiting successfully. Buy a developer a beer!
