                               Psi4 1.3.2 release

  ==> Input File <==

--------------------------------------------------------------------------
#psi4
#
memory 32 gb

molecule  {
0 1
 Br       -1.3836610    -0.1471480    -0.0001220
  O        0.8234410     1.5925820     0.0002040
  C        1.4590910    -0.7608190     0.0007700
  C        2.9264930    -0.3526980    -0.0006480
  C        0.4448876     0.4017111     0.0002248
  H        1.1964500    -1.3653870     0.8759120
  H        1.1952150    -1.3675680    -0.8724330
  H        3.1657420     0.2413720    -0.8848640
  H        3.1669300     0.2432120     0.8819950
  H        3.5587740    -1.2437650    -0.0001660
units angstrom
no_reorient  #important for SAPT in psi4, default
symmetry c1  #important for SAPT in psi4, default
}

set PROPERTIES_ORIGIN ["COM"]
properties('MP2/aug-cc-pvtz', properties = ['dipole'])
--------------------------------------------------------------------------

    Molecular point group: c1
  Charge       = 0
  Multiplicity = 1
  Basis Set: AUG-CC-PVTZ
    Blend: AUG-CC-PVTZ
  Basis Set: (AUG-CC-PVTZ AUX)
    Blend: AUG-CC-PVTZ-JKFIT

    Orbital Energies [Eh]
    ---------------------

    Doubly Occupied:

       1A   -490.046276     2A    -65.186342     3A    -58.541541
       4A    -58.540282     5A    -58.540123     6A    -20.587559
       7A    -11.409799     8A    -11.270799     9A    -11.236273
      10A     -9.859374    11A     -7.470743    12A     -7.464507
      13A     -7.463826    14A     -3.214426    15A     -3.211274
      16A     -3.210367    17A     -3.202518    18A     -3.202494
      19A     -1.397613    20A     -1.091802    21A     -1.043416
      22A     -0.904534    23A     -0.754237    24A     -0.660078
      25A     -0.651235    26A     -0.632846    27A     -0.558117
      28A     -0.552691    29A     -0.533116    30A     -0.509200
      31A     -0.437193    32A     -0.435885    33A     -0.435226

  @DF-RHF Final Energy: -2763.90436871760130

   => Energetics <=

    Nuclear Repulsion Energy =            307.8464061717040749
    One-Electron Energy =               -4454.9901241144325468
    Two-Electron Energy =                1383.2393492251269436
    Total Energy =                      -2763.9043687176017556
  Basis Set: (AUG-CC-PVTZ AUX)
    Blend: AUG-CC-PVTZ-RI
    Molecular point group: c1

    Geometry (in Angstrom), charge = 0, multiplicity = 1:

       Center              X                  Y                   Z               Mass
    ------------   -----------------  -----------------  -----------------  -----------------
         BR          -1.194767859711    -0.160383551532    -0.000109083710    78.918337600000
         O            1.012334140289     1.579346448468     0.000216916290    15.994914619570
         C            1.647984140289    -0.774054551532     0.000782916290    12.000000000000
         C            3.115386140289    -0.365933551532    -0.000635083710    12.000000000000
         C            0.633780740289     0.388475548468     0.000237716290    12.000000000000
         H            1.385343140289    -1.378622551532     0.875924916290     1.007825032230
         H            1.384108140289    -1.380803551532    -0.872420083710     1.007825032230
         H            3.354635140289     0.228136448468    -0.884851083710     1.007825032230
         H            3.355823140289     0.229976448468     0.882007916290     1.007825032230
         H            3.747667140289    -1.257000551532    -0.000153083710     1.007825032230

  Basis Set: AUG-CC-PVTZ
    Blend: AUG-CC-PVTZ
  Basis Set: (AUG-CC-PVTZ AUX)
    Blend: AUG-CC-PVTZ-JKFIT
	 Reference Energy          =   -2763.9043687176013009 [Eh]
	 Singles Energy            =      -0.0000000000000000 [Eh]
	 Same-Spin Energy          =      -0.2823258986781024 [Eh]
	 Opposite-Spin Energy      =      -0.8337344895599458 [Eh]
	 Correlation Energy        =      -1.1160603882380482 [Eh]
	 Total Energy              =   -2765.0204291058394119 [Eh]

	 ================> DF-SCS-MP2 Energies <==================
	-----------------------------------------------------------
	 SCS Same-Spin Scale       =       0.3333333333333333 [-]
	 SCS Opposite-Spin Scale   =       1.2000000000000000 [-]
	 SCS Same-Spin Energy      =      -0.0941086328927008 [Eh]
	 SCS Opposite-Spin Energy  =      -1.0004813874719349 [Eh]
	 SCS Correlation Energy    =      -1.0945900203646357 [Eh]
	 SCS Total Energy          =   -2764.9989587379659497 [Eh]
	-----------------------------------------------------------

  Dipole Moment: [D]
     X:     1.1878      Y:    -2.3049      Z:     0.0007     Total:     2.5929

*** Psi4 exiting successfully. Buy a developer a beer!
