                               Psi4 1.4a3.dev225

  ==> Input File <==

--------------------------------------------------------------------------
#psi4
#
memory 32 gb

molecule  {
0 1
 Br       -1.3836660    -0.1471400     0.0000000
  O        0.8235020     1.5925660     0.0000000
  C        1.4590730    -0.7608090     0.0000000
  C        2.9264910    -0.3527110    -0.0000010
  C        0.5284466     0.4462993     0.0000000
  H        1.1958170    -1.3664940     0.8741710
  H        1.1958160    -1.3664970    -0.8741670
  H        3.1663090     0.2422710    -0.8834470
  H        3.1663120     0.2422700     0.8834460
  H        3.5586990    -1.2438130    -0.0000020
units angstrom
no_reorient  #important for SAPT in psi4, default
symmetry c1  #important for SAPT in psi4, default
}

set PROPERTIES_ORIGIN ["COM"]
properties('MP2/aug-cc-pvtz', properties = ['dipole'])
--------------------------------------------------------------------------

    Molecular point group: c1
  Charge       = 0
  Multiplicity = 1
  Basis Set: AUG-CC-PVTZ
    Blend: AUG-CC-PVTZ
  Basis Set: (AUG-CC-PVTZ AUX)
    Blend: AUG-CC-PVTZ-JKFIT

    Orbital Energies [Eh]
    ---------------------

    Doubly Occupied:

       1A   -490.025501     2A    -65.165476     3A    -58.520637
       4A    -58.519446     5A    -58.519320     6A    -20.604481
       7A    -11.411040     8A    -11.275776     9A    -11.241133
      10A     -9.838178    11A     -7.449128    12A     -7.443438
      13A     -7.442917    14A     -3.192523    15A     -3.189767
      16A     -3.189050    17A     -3.181805    18A     -3.181787
      19A     -1.453789    20A     -1.092076    21A     -1.024106
      22A     -0.908114    23A     -0.765016    24A     -0.682105
      25A     -0.661949    26A     -0.644781    27A     -0.575283
      28A     -0.565400    29A     -0.542417    30A     -0.521543
      31A     -0.426691    32A     -0.423516    33A     -0.420444

  @DF-RHF Final Energy: -2763.91769246192052

   => Energetics <=

    Nuclear Repulsion Energy =            306.6797117069144178
    One-Electron Energy =               -4452.9975464425815517
    Two-Electron Energy =                1382.4001422737467237
    Total Energy =                      -2763.9176924619205238
  Basis Set: (AUG-CC-PVTZ AUX)
    Blend: AUG-CC-PVTZ-RI
    Molecular point group: c1

    Geometry (in Angstrom), charge = 0, multiplicity = 1:

       Center              X                  Y                   Z               Mass
    ------------   -----------------  -----------------  -----------------  -----------------
         BR          -1.202149632968    -0.164312737807     0.000000080853    78.918337600000
         O            1.005018367032     1.575393262193     0.000000080853    15.994914619570
         C            1.640589367032    -0.777981737807     0.000000080853    12.000000000000
         C            3.108007367032    -0.369883737807    -0.000000919147    12.000000000000
         C            0.709962967032     0.429126562193     0.000000080853    12.000000000000
         H            1.377333367032    -1.383666737807     0.874171080853     1.007825032230
         H            1.377332367032    -1.383669737807    -0.874166919147     1.007825032230
         H            3.347825367032     0.225098262193    -0.883446919147     1.007825032230
         H            3.347828367032     0.225097262193     0.883446080853     1.007825032230
         H            3.740215367032    -1.260985737807    -0.000001919147     1.007825032230

  Basis Set: AUG-CC-PVTZ
    Blend: AUG-CC-PVTZ
  Basis Set: (AUG-CC-PVTZ AUX)
    Blend: AUG-CC-PVTZ-JKFIT
	 Reference Energy          =   -2763.9176924619205238 [Eh]
	 Singles Energy            =      -0.0000000000000000 [Eh]
	 Same-Spin Energy          =      -0.2805507420285801 [Eh]
	 Opposite-Spin Energy      =      -0.8295239203981123 [Eh]
	 Correlation Energy        =      -1.1100746624266924 [Eh]
	 Total Energy              =   -2765.0277671243470650 [Eh]

	 ================> DF-SCS-MP2 Energies <==================
	-----------------------------------------------------------
	 SCS Same-Spin Scale       =       0.3333333333333333 [-]
	 SCS Opposite-Spin Scale   =       1.2000000000000000 [-]
	 SCS Same-Spin Energy      =      -0.0935169140095267 [Eh]
	 SCS Opposite-Spin Energy  =      -0.9954287044777347 [Eh]
	 SCS Correlation Energy    =      -1.0889456184872615 [Eh]
	 SCS Total Energy          =   -2765.0066380804078108 [Eh]
	-----------------------------------------------------------

  Dipole Moment: [D]
     X:     2.1804      Y:    -1.9435      Z:     0.0000     Total:     2.9208

*** Psi4 exiting successfully. Buy a developer a beer!
