                               Psi4 1.3.2 release

  ==> Input File <==

--------------------------------------------------------------------------
#psi4
#
memory 32 gb

molecule  {
0 1
 Br       -1.3836610    -0.1471480    -0.0001220
  O        0.8234410     1.5925820     0.0002040
  C        1.4590910    -0.7608190     0.0007700
  C        2.9264930    -0.3526980    -0.0006480
  C        0.6364444     0.4592089     0.0002612
  H        1.1964500    -1.3653870     0.8759120
  H        1.1952150    -1.3675680    -0.8724330
  H        3.1657420     0.2413720    -0.8848640
  H        3.1669300     0.2432120     0.8819950
  H        3.5587740    -1.2437650    -0.0001660
units angstrom
no_reorient  #important for SAPT in psi4, default
symmetry c1  #important for SAPT in psi4, default
}

set PROPERTIES_ORIGIN ["COM"]
properties('MP2/aug-cc-pvtz', properties = ['dipole'])
--------------------------------------------------------------------------

    Molecular point group: c1
  Charge       = 0
  Multiplicity = 1
  Basis Set: AUG-CC-PVTZ
    Blend: AUG-CC-PVTZ
  Basis Set: (AUG-CC-PVTZ AUX)
    Blend: AUG-CC-PVTZ-JKFIT

    Orbital Energies [Eh]
    ---------------------

    Doubly Occupied:

       1A   -490.000457     2A    -65.140482     3A    -58.495547
       4A    -58.494513     5A    -58.494411     6A    -20.624720
       7A    -11.420067     8A    -11.284847     9A    -11.249878
      10A     -9.813034    11A     -7.423450    12A     -7.418567
      13A     -7.418166    14A     -3.166494    15A     -3.164232
      16A     -3.163658    17A     -3.157415    18A     -3.157401
      19A     -1.494603    20A     -1.111462    21A     -0.998784
      22A     -0.918261    23A     -0.780659    24A     -0.707301
      25A     -0.680409    26A     -0.656082    27A     -0.596436
      28A     -0.573932    29A     -0.556125    30A     -0.533668
      31A     -0.411473    32A     -0.404495    33A     -0.400914

  @DF-RHF Final Energy: -2763.91443085791252

   => Energetics <=

    Nuclear Repulsion Energy =            305.4046632747784997
    One-Electron Energy =               -4450.8143016403755610
    Two-Electron Energy =                1381.4952075076841993
    Total Energy =                      -2763.9144308579125209
  Basis Set: (AUG-CC-PVTZ AUX)
    Blend: AUG-CC-PVTZ-RI
    Molecular point group: c1

    Geometry (in Angstrom), charge = 0, multiplicity = 1:

       Center              X                  Y                   Z               Mass
    ------------   -----------------  -----------------  -----------------  -----------------
         BR          -1.211675850908    -0.165458663960    -0.000112296600    78.918337600000
         O            0.995426149092     1.574271336040     0.000213703400    15.994914619570
         C            1.631076149092    -0.779129663960     0.000779703400    12.000000000000
         C            3.098478149092    -0.371008663960    -0.000638296600    12.000000000000
         C            0.808429549092     0.440898236040     0.000270903400    12.000000000000
         H            1.368435149092    -1.383697663960     0.875921703400     1.007825032230
         H            1.367200149092    -1.385878663960    -0.872423296600     1.007825032230
         H            3.337727149092     0.223061336040    -0.884854296600     1.007825032230
         H            3.338915149092     0.224901336040     0.882004703400     1.007825032230
         H            3.730759149092    -1.262075663960    -0.000156296600     1.007825032230

  Basis Set: AUG-CC-PVTZ
    Blend: AUG-CC-PVTZ
  Basis Set: (AUG-CC-PVTZ AUX)
    Blend: AUG-CC-PVTZ-JKFIT
	 Reference Energy          =   -2763.9144308579125209 [Eh]
	 Singles Energy            =      -0.0000000000000000 [Eh]
	 Same-Spin Energy          =      -0.2801728185746649 [Eh]
	 Opposite-Spin Energy      =      -0.8277423970322628 [Eh]
	 Correlation Energy        =      -1.1079152156069276 [Eh]
	 Total Energy              =   -2765.0223460735196568 [Eh]

	 ================> DF-SCS-MP2 Energies <==================
	-----------------------------------------------------------
	 SCS Same-Spin Scale       =       0.3333333333333333 [-]
	 SCS Opposite-Spin Scale   =       1.2000000000000000 [-]
	 SCS Same-Spin Energy      =      -0.0933909395248883 [Eh]
	 SCS Opposite-Spin Energy  =      -0.9932908764387154 [Eh]
	 SCS Correlation Energy    =      -1.0866818159636038 [Eh]
	 SCS Total Energy          =   -2765.0011126738759231 [Eh]
	-----------------------------------------------------------

  Dipole Moment: [D]
     X:     3.4130      Y:    -1.6770      Z:     0.0011     Total:     3.8027

*** Psi4 exiting successfully. Buy a developer a beer!
