                               Psi4 1.3.2 release

  ==> Input File <==

--------------------------------------------------------------------------
#psi4
#
memory 32 gb

molecule  {
0 1
 Br       -1.3836610    -0.1471480    -0.0001220
  O        0.8234410     1.5925820     0.0002040
  C        1.4590910    -0.7608190     0.0007700
  C        2.9264930    -0.3526980    -0.0006480
  C        0.5522958     0.4391464     0.0221181
  H        1.1964500    -1.3653870     0.8759120
  H        1.1952150    -1.3675680    -0.8724330
  H        3.1657420     0.2413720    -0.8848640
  H        3.1669300     0.2432120     0.8819950
  H        3.5587740    -1.2437650    -0.0001660
units angstrom
no_reorient  #important for SAPT in psi4, default
symmetry c1  #important for SAPT in psi4, default
}

set PROPERTIES_ORIGIN ["COM"]
properties('MP2/aug-cc-pvtz', properties = ['dipole'])
--------------------------------------------------------------------------

    Molecular point group: c1
  Charge       = 0
  Multiplicity = 1
  Basis Set: AUG-CC-PVTZ
    Blend: AUG-CC-PVTZ
  Basis Set: (AUG-CC-PVTZ AUX)
    Blend: AUG-CC-PVTZ-JKFIT

    Orbital Energies [Eh]
    ---------------------

    Doubly Occupied:

       1A   -490.021840     2A    -65.161782     3A    -58.516939
       4A    -58.515759     5A    -58.515638     6A    -20.607003
       7A    -11.413424     8A    -11.277215     9A    -11.242878
      10A     -9.834411    11A     -7.445291    12A     -7.439691
      13A     -7.439196    14A     -3.188642    15A     -3.185952
      16A     -3.185267    17A     -3.178115    18A     -3.178098
      19A     -1.454827    20A     -1.097128    21A     -1.019665
      22A     -0.911911    23A     -0.766880    24A     -0.685102
      25A     -0.665384    26A     -0.645157    27A     -0.575913
      28A     -0.566220    29A     -0.544792    30A     -0.523434
      31A     -0.426262    32A     -0.420477    33A     -0.417222

  @DF-RHF Final Energy: -2763.91719681509767

   => Energetics <=

    Nuclear Repulsion Energy =            306.3674037004900015
    One-Electron Energy =               -4452.4341689824286732
    Two-Electron Energy =                1382.1495684668407193
    Total Energy =                      -2763.9171968150976681
  Basis Set: (AUG-CC-PVTZ AUX)
    Blend: AUG-CC-PVTZ-RI
    Molecular point group: c1

    Geometry (in Angstrom), charge = 0, multiplicity = 1:

       Center              X                  Y                   Z               Mass
    ------------   -----------------  -----------------  -----------------  -----------------
         BR          -1.204248373585    -0.163687823283    -0.002041522150    78.918337600000
         O            1.002853626415     1.576042176717    -0.001715522150    15.994914619570
         C            1.638503626415    -0.777358823283    -0.001149522150    12.000000000000
         C            3.105905626415    -0.369237823283    -0.002567522150    12.000000000000
         C            0.731708426415     0.422606576717     0.020198577850    12.000000000000
         H            1.375862626415    -1.381926823283     0.873992477850     1.007825032230
         H            1.374627626415    -1.384107823283    -0.874352522150     1.007825032230
         H            3.345154626415     0.224832176717    -0.886783522150     1.007825032230
         H            3.346342626415     0.226672176717     0.880075477850     1.007825032230
         H            3.738186626415    -1.260304823283    -0.002085522150     1.007825032230

  Basis Set: AUG-CC-PVTZ
    Blend: AUG-CC-PVTZ
  Basis Set: (AUG-CC-PVTZ AUX)
    Blend: AUG-CC-PVTZ-JKFIT
	 Reference Energy          =   -2763.9171968150976681 [Eh]
	 Singles Energy            =      -0.0000000000000000 [Eh]
	 Same-Spin Energy          =      -0.2807436359092158 [Eh]
	 Opposite-Spin Energy      =      -0.8297783581122788 [Eh]
	 Correlation Energy        =      -1.1105219940214948 [Eh]
	 Total Energy              =   -2765.0277188091190510 [Eh]

	 ================> DF-SCS-MP2 Energies <==================
	-----------------------------------------------------------
	 SCS Same-Spin Scale       =       0.3333333333333333 [-]
	 SCS Opposite-Spin Scale   =       1.2000000000000000 [-]
	 SCS Same-Spin Energy      =      -0.0935812119697386 [Eh]
	 SCS Opposite-Spin Energy  =      -0.9957340297347346 [Eh]
	 SCS Correlation Energy    =      -1.0893152417044731 [Eh]
	 SCS Total Energy          =   -2765.0065120568019665 [Eh]
	-----------------------------------------------------------

  Dipole Moment: [D]
     X:     2.3954      Y:    -1.9412      Z:     0.0125     Total:     3.0833

*** Psi4 exiting successfully. Buy a developer a beer!
