                               Psi4 1.3.2 release

  ==> Input File <==

--------------------------------------------------------------------------
#psi4
#
memory 32 gb

molecule  {
0 1
 Br       -1.3836610    -0.1471480    -0.0001220
  O        0.8638262     1.5820054     0.0002217
  C        1.4590910    -0.7608190     0.0007700
  C        2.9264930    -0.3526980    -0.0006480
  C        0.5406660     0.4304600     0.0002430
  H        1.1964500    -1.3653870     0.8759120
  H        1.1952150    -1.3675680    -0.8724330
  H        3.1657420     0.2413720    -0.8848640
  H        3.1669300     0.2432120     0.8819950
  H        3.5587740    -1.2437650    -0.0001660
units angstrom
no_reorient  #important for SAPT in psi4, default
symmetry c1  #important for SAPT in psi4, default
}

set PROPERTIES_ORIGIN ["COM"]
properties('MP2/aug-cc-pvtz', properties = ['dipole'])
--------------------------------------------------------------------------

    Molecular point group: c1
  Charge       = 0
  Multiplicity = 1
  Basis Set: AUG-CC-PVTZ
    Blend: AUG-CC-PVTZ
  Basis Set: (AUG-CC-PVTZ AUX)
    Blend: AUG-CC-PVTZ-JKFIT

    Orbital Energies [Eh]
    ---------------------

    Doubly Occupied:

       1A   -490.027909     2A    -65.167786     3A    -58.522973
       4A    -58.521750     5A    -58.521626     6A    -20.603379
       7A    -11.412350     8A    -11.274132     9A    -11.240665
      10A     -9.840386    11A     -7.451380    12A     -7.445592
      13A     -7.445077    14A     -3.194814    15A     -3.192015
      16A     -3.191309    17A     -3.183909    18A     -3.183892
      19A     -1.444657    20A     -1.094986    21A     -1.024505
      22A     -0.910744    23A     -0.763819    24A     -0.680395
      25A     -0.662571    26A     -0.643206    27A     -0.570084
      28A     -0.562601    29A     -0.541529    30A     -0.520425
      31A     -0.429667    32A     -0.424821    33A     -0.422018

  @DF-RHF Final Energy: -2763.91589704272974

   => Energetics <=

    Nuclear Repulsion Energy =            306.3132293675622009
    One-Electron Energy =               -4452.2243061453791597
    Two-Electron Energy =                1381.9951797350872766
    Total Energy =                      -2763.9158970427292843
  Basis Set: (AUG-CC-PVTZ AUX)
    Blend: AUG-CC-PVTZ-RI
    Molecular point group: c1

    Geometry (in Angstrom), charge = 0, multiplicity = 1:

       Center              X                  Y                   Z               Mass
    ------------   -----------------  -----------------  -----------------  -----------------
         BR          -1.207973208970    -0.161676761621    -0.000112772575    78.918337600000
         O            1.039513991030     1.567476638379     0.000230927425    15.994914619570
         C            1.634778791030    -0.775347761621     0.000779227425    12.000000000000
         C            3.102180791030    -0.367226761621    -0.000638772575    12.000000000000
         C            0.716353791030     0.415931238379     0.000252227425    12.000000000000
         H            1.372137791030    -1.379915761621     0.875921227425     1.007825032230
         H            1.370902791030    -1.382096761621    -0.872423772575     1.007825032230
         H            3.341429791030     0.226843238379    -0.884854772575     1.007825032230
         H            3.342617791030     0.228683238379     0.882004227425     1.007825032230
         H            3.734461791030    -1.258293761621    -0.000156772575     1.007825032230

  Basis Set: AUG-CC-PVTZ
    Blend: AUG-CC-PVTZ
  Basis Set: (AUG-CC-PVTZ AUX)
    Blend: AUG-CC-PVTZ-JKFIT
	 Reference Energy          =   -2763.9158970427297390 [Eh]
	 Singles Energy            =      -0.0000000000000000 [Eh]
	 Same-Spin Energy          =      -0.2810728511591439 [Eh]
	 Opposite-Spin Energy      =      -0.8306109215915520 [Eh]
	 Correlation Energy        =      -1.1116837727506959 [Eh]
	 Total Energy              =   -2765.0275808154806327 [Eh]

	 ================> DF-SCS-MP2 Energies <==================
	-----------------------------------------------------------
	 SCS Same-Spin Scale       =       0.3333333333333333 [-]
	 SCS Opposite-Spin Scale   =       1.2000000000000000 [-]
	 SCS Same-Spin Energy      =      -0.0936909503863813 [Eh]
	 SCS Opposite-Spin Energy  =      -0.9967331059098624 [Eh]
	 SCS Correlation Energy    =      -1.0904240562962437 [Eh]
	 SCS Total Energy          =   -2765.0063210990260814 [Eh]
	-----------------------------------------------------------

  Dipole Moment: [D]
     X:     2.1115      Y:    -1.9973      Z:     0.0009     Total:     2.9065

*** Psi4 exiting successfully. Buy a developer a beer!
