                               Psi4 1.4a3.dev225

  ==> Input File <==

--------------------------------------------------------------------------
#psi4
#
memory 32 gb

molecule  {
0 1
 Br       -1.3836660    -0.1471400     0.0000000
  O        0.8235020     1.5925660     0.0000000
  C        1.4590730    -0.7608090     0.0000000
  C        2.9264910    -0.3527110    -0.0000010
  C        0.5453877     0.4498927     0.0000000
  H        1.1958170    -1.3664940     0.8741710
  H        1.1958160    -1.3664970    -0.8741670
  H        3.1663090     0.2422710    -0.8834470
  H        3.1663120     0.2422700     0.8834460
  H        3.5586990    -1.2438130    -0.0000020
units angstrom
no_reorient  #important for SAPT in psi4, default
symmetry c1  #important for SAPT in psi4, default
}

set PROPERTIES_ORIGIN ["COM"]
properties('MP2/aug-cc-pvtz', properties = ['dipole'])
--------------------------------------------------------------------------

    Molecular point group: c1
  Charge       = 0
  Multiplicity = 1
  Basis Set: AUG-CC-PVTZ
    Blend: AUG-CC-PVTZ
  Basis Set: (AUG-CC-PVTZ AUX)
    Blend: AUG-CC-PVTZ-JKFIT

    Orbital Energies [Eh]
    ---------------------

    Doubly Occupied:

       1A   -490.021578     2A    -65.161551     3A    -58.516700
       4A    -58.515529     5A    -58.515407     6A    -20.607581
       7A    -11.411994     8A    -11.277052     9A    -11.242351
      10A     -9.834213    11A     -7.445081    12A     -7.439509
      13A     -7.439010    14A     -3.188422    15A     -3.185742
      16A     -3.185052    17A     -3.177947    18A     -3.177930
      19A     -1.461533    20A     -1.094250    21A     -1.019982
      22A     -0.909601    23A     -0.767344    24A     -0.686225
      25A     -0.664619    26A     -0.646469    27A     -0.579043
      28A     -0.566761    29A     -0.544390    30A     -0.523484
      31A     -0.424651    32A     -0.420653    33A     -0.417429

  @DF-RHF Final Energy: -2763.91817363744167

   => Energetics <=

    Nuclear Repulsion Energy =            306.4697259517355405
    One-Electron Energy =               -4452.6376372839422402
    Two-Electron Energy =                1382.2497376947655994
    Total Energy =                      -2763.9181736374412139
  Basis Set: (AUG-CC-PVTZ AUX)
    Blend: AUG-CC-PVTZ-RI
    Molecular point group: c1

    Geometry (in Angstrom), charge = 0, multiplicity = 1:

       Center              X                  Y                   Z               Mass
    ------------   -----------------  -----------------  -----------------  -----------------
         BR          -1.203644959522    -0.164629913577     0.000000080853    78.918337600000
         O            1.003523040478     1.575076086423     0.000000080853    15.994914619570
         C            1.639094040478    -0.778298913577     0.000000080853    12.000000000000
         C            3.106512040478    -0.370200913577    -0.000000919147    12.000000000000
         C            0.725408740478     0.432402786423     0.000000080853    12.000000000000
         H            1.375838040478    -1.383983913577     0.874171080853     1.007825032230
         H            1.375837040478    -1.383986913577    -0.874166919147     1.007825032230
         H            3.346330040478     0.224781086423    -0.883446919147     1.007825032230
         H            3.346333040478     0.224780086423     0.883446080853     1.007825032230
         H            3.738720040478    -1.261302913577    -0.000001919147     1.007825032230

  Basis Set: AUG-CC-PVTZ
    Blend: AUG-CC-PVTZ
  Basis Set: (AUG-CC-PVTZ AUX)
    Blend: AUG-CC-PVTZ-JKFIT
	 Reference Energy          =   -2763.9181736374416687 [Eh]
	 Singles Energy            =      -0.0000000000000000 [Eh]
	 Same-Spin Energy          =      -0.2804055942442029 [Eh]
	 Opposite-Spin Energy      =      -0.8290907551807074 [Eh]
	 Correlation Energy        =      -1.1094963494249104 [Eh]
	 Total Energy              =   -2765.0276699868663854 [Eh]

	 ================> DF-SCS-MP2 Energies <==================
	-----------------------------------------------------------
	 SCS Same-Spin Scale       =       0.3333333333333333 [-]
	 SCS Opposite-Spin Scale   =       1.2000000000000000 [-]
	 SCS Same-Spin Energy      =      -0.0934685314147343 [Eh]
	 SCS Opposite-Spin Energy  =      -0.9949089062168488 [Eh]
	 SCS Correlation Energy    =      -1.0883774376315831 [Eh]
	 SCS Total Energy          =   -2765.0065510750732756 [Eh]
	-----------------------------------------------------------

  Dipole Moment: [D]
     X:     2.3732      Y:    -1.8939      Z:     0.0000     Total:     3.0362

*** Psi4 exiting successfully. Buy a developer a beer!
