                               Psi4 1.3.2 release

  ==> Input File <==

--------------------------------------------------------------------------
#psi4
#
memory 32 gb

molecule  {
0 1
 Br       -1.3836610    -0.1471480    -0.0001220
  O        0.8234410     1.5925820     0.0002040
  C        1.4590910    -0.7608190     0.0007700
  C        2.9264930    -0.3526980    -0.0006480
  C        0.5642017     0.4474674     0.0439867
  H        1.1964500    -1.3653870     0.8759120
  H        1.1952150    -1.3675680    -0.8724330
  H        3.1657420     0.2413720    -0.8848640
  H        3.1669300     0.2432120     0.8819950
  H        3.5587740    -1.2437650    -0.0001660
units angstrom
no_reorient  #important for SAPT in psi4, default
symmetry c1  #important for SAPT in psi4, default
}

set PROPERTIES_ORIGIN ["COM"]
properties('MP2/aug-cc-pvtz', properties = ['dipole'])
--------------------------------------------------------------------------

    Molecular point group: c1
  Charge       = 0
  Multiplicity = 1
  Basis Set: AUG-CC-PVTZ
    Blend: AUG-CC-PVTZ
  Basis Set: (AUG-CC-PVTZ AUX)
    Blend: AUG-CC-PVTZ-JKFIT

    Orbital Energies [Eh]
    ---------------------

    Doubly Occupied:

       1A   -490.018177     2A    -65.158133     3A    -58.513275
       4A    -58.512117     5A    -58.512000     6A    -20.610249
       7A    -11.413904     8A    -11.278400     9A    -11.243751
      10A     -9.830746    11A     -7.441548    12A     -7.436065
      13A     -7.435588    14A     -3.184846    15A     -3.182228
      16A     -3.181565    17A     -3.174559    18A     -3.174543
      19A     -1.464418    20A     -1.097867    21A     -1.016020
      22A     -0.912052    23A     -0.769296    24A     -0.689241
      25A     -0.667340    26A     -0.647158    27A     -0.580565
      28A     -0.567693    29A     -0.546471    30A     -0.525096
      31A     -0.423430    32A     -0.417816    33A     -0.414569

  @DF-RHF Final Energy: -2763.91716585708036

   => Energetics <=

    Nuclear Repulsion Energy =            306.2014195245412793
    One-Electron Energy =               -4452.1557164903779267
    Two-Electron Energy =                1382.0371311087567392
    Total Energy =                      -2763.9171658570803629
  Basis Set: (AUG-CC-PVTZ AUX)
    Blend: AUG-CC-PVTZ-RI
    Molecular point group: c1

    Geometry (in Angstrom), charge = 0, multiplicity = 1:

       Center              X                  Y                   Z               Mass
    ------------   -----------------  -----------------  -----------------  -----------------
         BR          -1.205299262159    -0.164422286349    -0.003971780414    78.918337600000
         O            1.001802737841     1.575307713651    -0.003645780414    15.994914619570
         C            1.637452737841    -0.778093286349    -0.003079780414    12.000000000000
         C            3.104854737841    -0.369972286349    -0.004497780414    12.000000000000
         C            0.742563437841     0.430193113651     0.040136919586    12.000000000000
         H            1.374811737841    -1.382661286349     0.872062219586     1.007825032230
         H            1.373576737841    -1.384842286349    -0.876282780414     1.007825032230
         H            3.344103737841     0.224097713651    -0.888713780414     1.007825032230
         H            3.345291737841     0.225937713651     0.878145219586     1.007825032230
         H            3.737135737841    -1.261039286349    -0.004015780414     1.007825032230

  Basis Set: AUG-CC-PVTZ
    Blend: AUG-CC-PVTZ
  Basis Set: (AUG-CC-PVTZ AUX)
    Blend: AUG-CC-PVTZ-JKFIT
	 Reference Energy          =   -2763.9171658570803629 [Eh]
	 Singles Energy            =      -0.0000000000000000 [Eh]
	 Same-Spin Energy          =      -0.2805069045181080 [Eh]
	 Opposite-Spin Energy      =      -0.8292106164060236 [Eh]
	 Correlation Energy        =      -1.1097175209241317 [Eh]
	 Total Energy              =   -2765.0268833780046407 [Eh]

	 ================> DF-SCS-MP2 Energies <==================
	-----------------------------------------------------------
	 SCS Same-Spin Scale       =       0.3333333333333333 [-]
	 SCS Opposite-Spin Scale   =       1.2000000000000000 [-]
	 SCS Same-Spin Energy      =      -0.0935023015060360 [Eh]
	 SCS Opposite-Spin Energy  =      -0.9950527396872282 [Eh]
	 SCS Correlation Energy    =      -1.0885550411932643 [Eh]
	 SCS Total Energy          =   -2765.0057208982734664 [Eh]
	-----------------------------------------------------------

  Dipole Moment: [D]
     X:     2.5589      Y:    -1.8731      Z:     0.0254     Total:     3.1713

*** Psi4 exiting successfully. Buy a developer a beer!
