                               Psi4 1.4a3.dev225

  ==> Input File <==

--------------------------------------------------------------------------
#psi4
#
memory 32 gb

molecule  {
0 1
 Br       -1.3836660    -0.1471400     0.0000000
  O        0.8235020     1.5925660     0.0000000
  C        1.4590730    -0.7608090     0.0000000
  C        2.9264910    -0.3527110    -0.0000010
  C        0.5215023     0.4247103     0.0000000
  H        1.1958170    -1.3664940     0.8741710
  H        1.1958160    -1.3664970    -0.8741670
  H        3.1663090     0.2422710    -0.8834470
  H        3.1663120     0.2422700     0.8834460
  H        3.5586990    -1.2438130    -0.0000020
units angstrom
no_reorient  #important for SAPT in psi4, default
symmetry c1  #important for SAPT in psi4, default
}

set PROPERTIES_ORIGIN ["COM"]
properties('MP2/aug-cc-pvtz', properties = ['dipole'])
--------------------------------------------------------------------------

    Molecular point group: c1
  Charge       = 0
  Multiplicity = 1
  Basis Set: AUG-CC-PVTZ
    Blend: AUG-CC-PVTZ
  Basis Set: (AUG-CC-PVTZ AUX)
    Blend: AUG-CC-PVTZ-JKFIT

    Orbital Energies [Eh]
    ---------------------

    Doubly Occupied:

       1A   -490.029944     2A    -65.169880     3A    -58.525064
       4A    -58.523841     5A    -58.523711     6A    -20.600300
       7A    -11.412201     8A    -11.274814     9A    -11.240747
      10A     -9.842578    11A     -7.453627    12A     -7.447784
      13A     -7.447240    14A     -3.197094    15A     -3.194246
      16A     -3.193503    17A     -3.186057    18A     -3.186038
      19A     -1.435237    20A     -1.094454    21A     -1.027937
      22A     -0.910380    23A     -0.762066    24A     -0.676235
      25A     -0.660769    26A     -0.641017    27A     -0.566887
      28A     -0.563148    29A     -0.540875    30A     -0.519107
      31A     -0.431501    32A     -0.426078    33A     -0.423176

  @DF-RHF Final Energy: -2763.91520003500136

   => Energetics <=

    Nuclear Repulsion Energy =            306.7640407392156590
    One-Electron Energy =               -4453.1034046803533784
    Two-Electron Energy =                1382.4241639061360729
    Total Energy =                      -2763.9152000350018170
  Basis Set: (AUG-CC-PVTZ AUX)
    Blend: AUG-CC-PVTZ-RI
    Molecular point group: c1

    Geometry (in Angstrom), charge = 0, multiplicity = 1:

       Center              X                  Y                   Z               Mass
    ------------   -----------------  -----------------  -----------------  -----------------
         BR          -1.201536685982    -0.162407158773     0.000000080853    78.918337600000
         O            1.005631314018     1.577298841227     0.000000080853    15.994914619570
         C            1.641202314018    -0.776076158773     0.000000080853    12.000000000000
         C            3.108620314018    -0.367978158773    -0.000000919147    12.000000000000
         C            0.703631614018     0.409443141227     0.000000080853    12.000000000000
         H            1.377946314018    -1.381761158773     0.874171080853     1.007825032230
         H            1.377945314018    -1.381764158773    -0.874166919147     1.007825032230
         H            3.348438314018     0.227003841227    -0.883446919147     1.007825032230
         H            3.348441314018     0.227002841227     0.883446080853     1.007825032230
         H            3.740828314018    -1.259080158773    -0.000001919147     1.007825032230

  Basis Set: AUG-CC-PVTZ
    Blend: AUG-CC-PVTZ
  Basis Set: (AUG-CC-PVTZ AUX)
    Blend: AUG-CC-PVTZ-JKFIT
	 Reference Energy          =   -2763.9152000350013623 [Eh]
	 Singles Energy            =      -0.0000000000000000 [Eh]
	 Same-Spin Energy          =      -0.2812223461388677 [Eh]
	 Opposite-Spin Energy      =      -0.8310194616972556 [Eh]
	 Correlation Energy        =      -1.1122418078361234 [Eh]
	 Total Energy              =   -2765.0274418428375611 [Eh]

	 ================> DF-SCS-MP2 Energies <==================
	-----------------------------------------------------------
	 SCS Same-Spin Scale       =       0.3333333333333333 [-]
	 SCS Opposite-Spin Scale   =       1.2000000000000000 [-]
	 SCS Same-Spin Energy      =      -0.0937407820462892 [Eh]
	 SCS Opposite-Spin Energy  =      -0.9972233540367067 [Eh]
	 SCS Correlation Energy    =      -1.0909641360829958 [Eh]
	 SCS Total Energy          =   -2765.0061641710844924 [Eh]
	-----------------------------------------------------------

  Dipole Moment: [D]
     X:     2.0144      Y:    -2.0717      Z:     0.0000     Total:     2.8896

*** Psi4 exiting successfully. Buy a developer a beer!
