                               Psi4 1.4a3.dev225

  ==> Input File <==

--------------------------------------------------------------------------
#psi4
#
memory 32 gb

molecule  {
0 1
 Br       -1.3836660    -0.1471400     0.0000000
  O        0.8235020     1.5925660     0.0000000
  C        1.4590730    -0.7608090     0.0000000
  C        2.9264910    -0.3527110    -0.0000010
  C        0.5528694     0.4146207     0.0000000
  H        1.1958170    -1.3664940     0.8741710
  H        1.1958160    -1.3664970    -0.8741670
  H        3.1663090     0.2422710    -0.8834470
  H        3.1663120     0.2422700     0.8834460
  H        3.5586990    -1.2438130    -0.0000020
units angstrom
no_reorient  #important for SAPT in psi4, default
symmetry c1  #important for SAPT in psi4, default
}

set PROPERTIES_ORIGIN ["COM"]
properties('MP2/aug-cc-pvtz', properties = ['dipole'])
--------------------------------------------------------------------------

    Molecular point group: c1
  Charge       = 0
  Multiplicity = 1
  Basis Set: AUG-CC-PVTZ
    Blend: AUG-CC-PVTZ
  Basis Set: (AUG-CC-PVTZ AUX)
    Blend: AUG-CC-PVTZ-JKFIT

    Orbital Energies [Eh]
    ---------------------

    Doubly Occupied:

       1A   -490.025360     2A    -65.165242     3A    -58.520424
       4A    -58.519210     5A    -58.519088     6A    -20.603248
       7A    -11.415180     8A    -11.276446     9A    -11.243020
      10A     -9.837835    11A     -7.448800    12A     -7.443059
      13A     -7.442550    14A     -3.192213    15A     -3.189447
      16A     -3.188746    17A     -3.181399    18A     -3.181382
      19A     -1.436082    20A     -1.101331    21A     -1.022274
      22A     -0.915513    23A     -0.764341    24A     -0.679919
      25A     -0.665369    26A     -0.641468    27A     -0.567558
      28A     -0.563931    29A     -0.543898    30A     -0.521281
      31A     -0.431132    32A     -0.422357    33A     -0.418973

  @DF-RHF Final Energy: -2763.91409113824648

   => Energetics <=

    Nuclear Repulsion Energy =            306.3597582894072389
    One-Electron Energy =               -4452.3715454441735346
    Two-Electron Energy =                1382.0976960165198761
    Total Energy =                      -2763.9140911382464765
  Basis Set: (AUG-CC-PVTZ AUX)
    Blend: AUG-CC-PVTZ-RI
    Molecular point group: c1

    Geometry (in Angstrom), charge = 0, multiplicity = 1:

       Center              X                  Y                   Z               Mass
    ------------   -----------------  -----------------  -----------------  -----------------
         BR          -1.204305340766    -0.161516588102     0.000000080853    78.918337600000
         O            1.002862659234     1.578189411898     0.000000080853    15.994914619570
         C            1.638433659234    -0.775185588102     0.000000080853    12.000000000000
         C            3.105851659234    -0.367087588102    -0.000000919147    12.000000000000
         C            0.732230059234     0.400244111898     0.000000080853    12.000000000000
         H            1.375177659234    -1.380870588102     0.874171080853     1.007825032230
         H            1.375176659234    -1.380873588102    -0.874166919147     1.007825032230
         H            3.345669659234     0.227894411898    -0.883446919147     1.007825032230
         H            3.345672659234     0.227893411898     0.883446080853     1.007825032230
         H            3.738059659234    -1.258189588102    -0.000001919147     1.007825032230

  Basis Set: AUG-CC-PVTZ
    Blend: AUG-CC-PVTZ
  Basis Set: (AUG-CC-PVTZ AUX)
    Blend: AUG-CC-PVTZ-JKFIT
	 Reference Energy          =   -2763.9140911382464765 [Eh]
	 Singles Energy            =      -0.0000000000000000 [Eh]
	 Same-Spin Energy          =      -0.2815144912254876 [Eh]
	 Opposite-Spin Energy      =      -0.8314204092386882 [Eh]
	 Correlation Energy        =      -1.1129349004641758 [Eh]
	 Total Energy              =   -2765.0270260387105736 [Eh]

	 ================> DF-SCS-MP2 Energies <==================
	-----------------------------------------------------------
	 SCS Same-Spin Scale       =       0.3333333333333333 [-]
	 SCS Opposite-Spin Scale   =       1.2000000000000000 [-]
	 SCS Same-Spin Energy      =      -0.0938381637418292 [Eh]
	 SCS Opposite-Spin Energy  =      -0.9977044910864258 [Eh]
	 SCS Correlation Energy    =      -1.0915426548282550 [Eh]
	 SCS Total Energy          =   -2765.0056337930745940 [Eh]
	-----------------------------------------------------------

  Dipole Moment: [D]
     X:     2.2909      Y:    -2.0743      Z:     0.0000     Total:     3.0905

*** Psi4 exiting successfully. Buy a developer a beer!
