                               Psi4 1.4a3.dev225

  ==> Input File <==

--------------------------------------------------------------------------
#psi4
#
memory 32 gb

molecule  {
0 1
 Br       -1.3836660    -0.1471400     0.0000000
  O        0.8235020     1.5925660     0.0000000
  C        1.4590730    -0.7608090     0.0000000
  C        2.9264910    -0.3527110    -0.0000010
  C        0.4927688     0.4160857     0.0000000
  H        1.1958170    -1.3664940     0.8741710
  H        1.1958160    -1.3664970    -0.8741670
  H        3.1663090     0.2422710    -0.8834470
  H        3.1663120     0.2422700     0.8834460
  H        3.5586990    -1.2438130    -0.0000020
units angstrom
no_reorient  #important for SAPT in psi4, default
symmetry c1  #important for SAPT in psi4, default
}

set PROPERTIES_ORIGIN ["COM"]
properties('MP2/aug-cc-pvtz', properties = ['dipole'])
--------------------------------------------------------------------------

    Molecular point group: c1
  Charge       = 0
  Multiplicity = 1
  Basis Set: AUG-CC-PVTZ
    Blend: AUG-CC-PVTZ
  Basis Set: (AUG-CC-PVTZ AUX)
    Blend: AUG-CC-PVTZ-JKFIT

    Orbital Energies [Eh]
    ---------------------

    Doubly Occupied:

       1A   -490.036386     2A    -65.176350     3A    -58.531546
       4A    -58.530300     5A    -58.530161     6A    -20.595234
       7A    -11.411071     8A    -11.273063     9A    -11.238929
      10A     -9.849148    11A     -7.460326    12A     -7.454312
      13A     -7.453722    14A     -3.203880    15A     -3.200910
      16A     -3.200112    17A     -3.192475    18A     -3.192454
      19A     -1.420901    20A     -1.092193    21A     -1.034582
      22A     -0.908203    23A     -0.758672    24A     -0.669579
      25A     -0.656905    26A     -0.638028    27A     -0.560993
      28A     -0.560895    29A     -0.537710    30A     -0.515358
      31A     -0.434443    32A     -0.430319    33A     -0.428014

  @DF-RHF Final Energy: -2763.91229204837691

   => Energetics <=

    Nuclear Repulsion Energy =            307.1503301433465367
    One-Electron Energy =               -4453.7708969032764799
    Two-Electron Energy =                1382.7082747115528036
    Total Energy =                      -2763.9122920483769121
  Basis Set: (AUG-CC-PVTZ AUX)
    Blend: AUG-CC-PVTZ-RI
    Molecular point group: c1

    Geometry (in Angstrom), charge = 0, multiplicity = 1:

       Center              X                  Y                   Z               Mass
    ------------   -----------------  -----------------  -----------------  -----------------
         BR          -1.199000489068    -0.161645898087     0.000000080853    78.918337600000
         O            1.008167510932     1.578060101913     0.000000080853    15.994914619570
         C            1.643738510932    -0.775314898087     0.000000080853    12.000000000000
         C            3.111156510932    -0.367216898087    -0.000000919147    12.000000000000
         C            0.677434310932     0.401579801913     0.000000080853    12.000000000000
         H            1.380482510932    -1.380999898087     0.874171080853     1.007825032230
         H            1.380481510932    -1.381002898087    -0.874166919147     1.007825032230
         H            3.350974510932     0.227765101913    -0.883446919147     1.007825032230
         H            3.350977510932     0.227764101913     0.883446080853     1.007825032230
         H            3.743364510932    -1.258318898087    -0.000001919147     1.007825032230

  Basis Set: AUG-CC-PVTZ
    Blend: AUG-CC-PVTZ
  Basis Set: (AUG-CC-PVTZ AUX)
    Blend: AUG-CC-PVTZ-JKFIT
	 Reference Energy          =   -2763.9122920483769121 [Eh]
	 Singles Energy            =      -0.0000000000000000 [Eh]
	 Same-Spin Energy          =      -0.2815798044392672 [Eh]
	 Opposite-Spin Energy      =      -0.8319549540234485 [Eh]
	 Correlation Energy        =      -1.1135347584627158 [Eh]
	 Total Energy              =   -2765.0258268068396319 [Eh]

	 ================> DF-SCS-MP2 Energies <==================
	-----------------------------------------------------------
	 SCS Same-Spin Scale       =       0.3333333333333333 [-]
	 SCS Opposite-Spin Scale   =       1.2000000000000000 [-]
	 SCS Same-Spin Energy      =      -0.0938599348130891 [Eh]
	 SCS Opposite-Spin Energy  =      -0.9983459448281382 [Eh]
	 SCS Correlation Energy    =      -1.0922058796412273 [Eh]
	 SCS Total Energy          =   -2765.0044979280182815 [Eh]
	-----------------------------------------------------------

  Dipole Moment: [D]
     X:     1.6936      Y:    -2.1626      Z:     0.0000     Total:     2.7469

*** Psi4 exiting successfully. Buy a developer a beer!
