                               Psi4 1.3.2 release

  ==> Input File <==

--------------------------------------------------------------------------
#psi4
#
memory 32 gb

molecule  {
0 1
 Br       -1.3836610    -0.1471480    -0.0001220
  O        0.8234410     1.5925820     0.0002040
  C        1.4590910    -0.7608190     0.0007700
  C        2.9264930    -0.3526980    -0.0006480
  C        0.4969787     0.3921136    -0.0871891
  H        1.1964500    -1.3653870     0.8759120
  H        1.1952150    -1.3675680    -0.8724330
  H        3.1657420     0.2413720    -0.8848640
  H        3.1669300     0.2432120     0.8819950
  H        3.5587740    -1.2437650    -0.0001660
units angstrom
no_reorient  #important for SAPT in psi4, default
symmetry c1  #important for SAPT in psi4, default
}

set PROPERTIES_ORIGIN ["COM"]
properties('MP2/aug-cc-pvtz', properties = ['dipole'])
--------------------------------------------------------------------------

    Molecular point group: c1
  Charge       = 0
  Multiplicity = 1
  Basis Set: AUG-CC-PVTZ
    Blend: AUG-CC-PVTZ
  Basis Set: (AUG-CC-PVTZ AUX)
    Blend: AUG-CC-PVTZ-JKFIT

    Orbital Energies [Eh]
    ---------------------

    Doubly Occupied:

       1A   -490.038850     2A    -65.178746     3A    -58.533967
       4A    -58.532687     5A    -58.532548     6A    -20.592980
       7A    -11.413624     8A    -11.273136     9A    -11.239346
      10A     -9.851492    11A     -7.462740    12A     -7.456599
      13A     -7.456005    14A     -3.206346    15A     -3.203314
      16A     -3.202512    17A     -3.194690    18A     -3.194671
      19A     -1.403416    20A     -1.095989    21A     -1.035876
      22A     -0.911910    23A     -0.757422    24A     -0.666172
      25A     -0.657111    26A     -0.633559    27A     -0.559028
      28A     -0.554713    29A     -0.536994    30A     -0.511911
      31A     -0.438782    32A     -0.430664    33A     -0.428367

  @DF-RHF Final Energy: -2763.90444367771079

   => Energetics <=

    Nuclear Repulsion Energy =            306.9753885586530942
    One-Electron Energy =               -4453.3873358229329824
    Two-Electron Energy =                1382.5075035865686459
    Total Energy =                      -2763.9044436777112423
  Basis Set: (AUG-CC-PVTZ AUX)
    Blend: AUG-CC-PVTZ-RI
    Molecular point group: c1

    Geometry (in Angstrom), charge = 0, multiplicity = 1:

       Center              X                  Y                   Z               Mass
    ------------   -----------------  -----------------  -----------------  -----------------
         BR          -1.199365743264    -0.159536416659     0.007606609242    78.918337600000
         O            1.007736256736     1.580193583341     0.007932609242    15.994914619570
         C            1.643386256736    -0.773207416659     0.008498609242    12.000000000000
         C            3.110788256736    -0.365086416659     0.007080609242    12.000000000000
         C            0.681273956736     0.379725183341    -0.079460490758    12.000000000000
         H            1.380745256736    -1.377775416659     0.883640609242     1.007825032230
         H            1.379510256736    -1.379956416659    -0.864704390758     1.007825032230
         H            3.350037256736     0.228983583341    -0.877135390758     1.007825032230
         H            3.351225256736     0.230823583341     0.889723609242     1.007825032230
         H            3.743069256736    -1.256153416659     0.007562609242     1.007825032230

  Basis Set: AUG-CC-PVTZ
    Blend: AUG-CC-PVTZ
  Basis Set: (AUG-CC-PVTZ AUX)
    Blend: AUG-CC-PVTZ-JKFIT
	 Reference Energy          =   -2763.9044436777107876 [Eh]
	 Singles Energy            =      -0.0000000000000000 [Eh]
	 Same-Spin Energy          =      -0.2824502251383497 [Eh]
	 Opposite-Spin Energy      =      -0.8340262972835858 [Eh]
	 Correlation Energy        =      -1.1164765224219355 [Eh]
	 Total Energy              =   -2765.0209202001328777 [Eh]

	 ================> DF-SCS-MP2 Energies <==================
	-----------------------------------------------------------
	 SCS Same-Spin Scale       =       0.3333333333333333 [-]
	 SCS Opposite-Spin Scale   =       1.2000000000000000 [-]
	 SCS Same-Spin Energy      =      -0.0941500750461166 [Eh]
	 SCS Opposite-Spin Energy  =      -1.0008315567403030 [Eh]
	 SCS Correlation Energy    =      -1.0949816317864196 [Eh]
	 SCS Total Energy          =   -2764.9994253094973828 [Eh]
	-----------------------------------------------------------

  Dipole Moment: [D]
     X:     1.6407      Y:    -2.2662      Z:    -0.0298     Total:     2.7980

*** Psi4 exiting successfully. Buy a developer a beer!
