                               Psi4 1.3.2 release

  ==> Input File <==

--------------------------------------------------------------------------
#psi4
#
memory 32 gb

molecule  {
0 1
  O        1.6278220     1.1039490    -0.3557360
  O        1.6261270    -1.1051420    -0.3568940
  N        1.2303560    -0.0005110     0.0571010
  C       -1.2291370     0.0005950     0.4261400
  C       -0.0210802    -0.0000172     0.9069683
  C       -1.4725310    -1.2637550    -0.3963350
  C       -1.4703770     1.2649030    -0.3970360
  H       -1.9318680     0.0014310     1.2711020
  H        0.3121680     0.8980270     1.6854240
  H        0.3113180    -0.8988370     1.6852010
  H       -0.8065590    -1.3055500    -1.2620530
  H       -2.5039820    -1.2782850    -0.7600790
  H       -1.3066080    -2.1670550     0.1981350
  H       -1.3030680     2.1682800     0.1969290
  H       -0.8042250     1.3051620    -1.2627130
  H       -2.5017350     1.2809580    -0.7610030
units angstrom
no_reorient  #important for SAPT in psi4, default
symmetry c1  #important for SAPT in psi4, default
}

set PROPERTIES_ORIGIN ["COM"]
properties('MP2/aug-cc-pvtz', properties = ['dipole'])
--------------------------------------------------------------------------

    Molecular point group: c1
  Charge       = 0
  Multiplicity = 1
  Basis Set: AUG-CC-PVTZ
    Blend: AUG-CC-PVTZ
  Basis Set: (AUG-CC-PVTZ AUX)
    Blend: AUG-CC-PVTZ-JKFIT

    Orbital Energies [Eh]
    ---------------------

    Doubly Occupied:

       1A    -20.607995     2A    -20.607945     3A    -15.845901
       4A    -11.320217     5A    -11.249467     6A    -11.231184
       7A    -11.231163     8A     -1.584274     9A     -1.385732
      10A     -1.183961    11A     -1.031134    12A     -0.954504
      13A     -0.906660    14A     -0.806568    15A     -0.738374
      16A     -0.725066    17A     -0.694980    18A     -0.651766
      19A     -0.627599    20A     -0.605426    21A     -0.559680
      22A     -0.533578    23A     -0.525795    24A     -0.517481
      25A     -0.504028    26A     -0.466518    27A     -0.456231
      28A     -0.443316

  @DF-RHF Final Energy:  -360.81988882022904

   => Energetics <=

    Nuclear Repulsion Energy =            331.5852104869811114
    One-Electron Energy =               -1148.8171134705253280
    Two-Electron Energy =                 456.4120141633151206
    Total Energy =                       -360.8198888202290391
  Basis Set: (AUG-CC-PVTZ AUX)
    Blend: AUG-CC-PVTZ-RI
    Molecular point group: c1

    Geometry (in Angstrom), charge = 0, multiplicity = 1:

       Center              X                  Y                   Z               Mass
    ------------   -----------------  -----------------  -----------------  -----------------
         O            1.546892070740     1.103962240197    -0.325431120853    15.994914619570
         O            1.545197070740    -1.105128759803    -0.326589120853    15.994914619570
         N            1.149426070740    -0.000497759803     0.087405879147    14.003074004430
         C           -1.310066929260     0.000608240197     0.456444879147    12.000000000000
         C           -0.102010129260    -0.000003959803     0.937273179147    12.000000000000
         C           -1.553460929260    -1.263741759803    -0.366030120853    12.000000000000
         C           -1.551306929260     1.264916240197    -0.366731120853    12.000000000000
         H           -2.012797929260     0.001444240197     1.301406879147     1.007825032230
         H            0.231238070740     0.898040240197     1.715728879147     1.007825032230
         H            0.230388070740    -0.898823759803     1.715505879147     1.007825032230
         H           -0.887488929260    -1.305536759803    -1.231748120853     1.007825032230
         H           -2.584911929260    -1.278271759803    -0.729774120853     1.007825032230
         H           -1.387537929260    -2.167041759803     0.228439879147     1.007825032230
         H           -1.383997929260     2.168293240197     0.227233879147     1.007825032230
         H           -0.885154929260     1.305175240197    -1.232408120853     1.007825032230
         H           -2.582664929260     1.280971240197    -0.730698120853     1.007825032230

  Basis Set: AUG-CC-PVTZ
    Blend: AUG-CC-PVTZ
  Basis Set: (AUG-CC-PVTZ AUX)
    Blend: AUG-CC-PVTZ-JKFIT
	 Reference Energy          =    -360.8198888202290391 [Eh]
	 Singles Energy            =      -0.0000000000000000 [Eh]
	 Same-Spin Energy          =      -0.3735835758001480 [Eh]
	 Opposite-Spin Energy      =      -1.1891331739499880 [Eh]
	 Correlation Energy        =      -1.5627167497501360 [Eh]
	 Total Energy              =    -362.3826055699791482 [Eh]

	 ================> DF-SCS-MP2 Energies <==================
	-----------------------------------------------------------
	 SCS Same-Spin Scale       =       0.3333333333333333 [-]
	 SCS Opposite-Spin Scale   =       1.2000000000000000 [-]
	 SCS Same-Spin Energy      =      -0.1245278586000493 [Eh]
	 SCS Opposite-Spin Energy  =      -1.4269598087399855 [Eh]
	 SCS Correlation Energy    =      -1.5514876673400348 [Eh]
	 SCS Total Energy          =    -362.3713764875690799 [Eh]
	-----------------------------------------------------------

  Dipole Moment: [D]
     X:    -3.2057      Y:     0.0015      Z:     1.8099     Total:     3.6814

*** Psi4 exiting successfully. Buy a developer a beer!
