                               Psi4 1.3.2 release

  ==> Input File <==

--------------------------------------------------------------------------
#psi4
#
memory 32 gb

molecule  {
0 1
  O        1.6278220     1.1039490    -0.3557360
  O        1.6261270    -1.1051420    -0.3568940
  N        1.2303560    -0.0005110     0.0571010
  C       -1.2291370     0.0005950     0.4261400
  C        0.0488687    -0.0001083     0.9784326
  C       -1.4725310    -1.2637550    -0.3963350
  C       -1.4703770     1.2649030    -0.3970360
  H       -1.9318680     0.0014310     1.2711020
  H        0.3121680     0.8980270     1.6854240
  H        0.3113180    -0.8988370     1.6852010
  H       -0.8065590    -1.3055500    -1.2620530
  H       -2.5039820    -1.2782850    -0.7600790
  H       -1.3066080    -2.1670550     0.1981350
  H       -1.3030680     2.1682800     0.1969290
  H       -0.8042250     1.3051620    -1.2627130
  H       -2.5017350     1.2809580    -0.7610030
units angstrom
no_reorient  #important for SAPT in psi4, default
symmetry c1  #important for SAPT in psi4, default
}

set PROPERTIES_ORIGIN ["COM"]
properties('MP2/aug-cc-pvtz', properties = ['dipole'])
--------------------------------------------------------------------------

    Molecular point group: c1
  Charge       = 0
  Multiplicity = 1
  Basis Set: AUG-CC-PVTZ
    Blend: AUG-CC-PVTZ
  Basis Set: (AUG-CC-PVTZ AUX)
    Blend: AUG-CC-PVTZ-JKFIT

    Orbital Energies [Eh]
    ---------------------

    Doubly Occupied:

       1A    -20.607588     2A    -20.607537     3A    -15.845762
       4A    -11.313931     5A    -11.255511     6A    -11.229186
       7A    -11.229168     8A     -1.584829     9A     -1.385791
      10A     -1.164313    11A     -1.036826    12A     -0.950942
      13A     -0.893795    14A     -0.806663    15A     -0.737412
      16A     -0.726453    17A     -0.699057    18A     -0.641871
      19A     -0.627057    20A     -0.608426    21A     -0.557718
      22A     -0.531416    23A     -0.527149    24A     -0.511619
      25A     -0.502957    26A     -0.472638    27A     -0.470797
      28A     -0.447829

  @DF-RHF Final Energy:  -360.87142100282819

   => Energetics <=

    Nuclear Repulsion Energy =            330.3132319646447854
    One-Electron Energy =               -1146.4208224124949993
    Two-Electron Energy =                 455.2361694450220853
    Total Energy =                       -360.8714210028281855
  Basis Set: (AUG-CC-PVTZ AUX)
    Blend: AUG-CC-PVTZ-RI
    Molecular point group: c1

    Geometry (in Angstrom), charge = 0, multiplicity = 1:

       Center              X                  Y                   Z               Mass
    ------------   -----------------  -----------------  -----------------  -----------------
         O            1.538747691823     1.103972847267    -0.333751942742    15.994914619570
         O            1.537052691823    -1.105118152733    -0.334909942742    15.994914619570
         N            1.141281691823    -0.000487152733     0.079085057258    14.003074004430
         C           -1.318211308177     0.000618847267     0.448124057258    12.000000000000
         C           -0.040205608177    -0.000084452733     1.000416657258    12.000000000000
         C           -1.561605308177    -1.263731152733    -0.374350942742    12.000000000000
         C           -1.559451308177     1.264926847267    -0.375051942742    12.000000000000
         H           -2.020942308177     0.001454847267     1.293086057258     1.007825032230
         H            0.223093691823     0.898050847267     1.707408057258     1.007825032230
         H            0.222243691823    -0.898813152733     1.707185057258     1.007825032230
         H           -0.895633308177    -1.305526152733    -1.240068942742     1.007825032230
         H           -2.593056308177    -1.278261152733    -0.738094942742     1.007825032230
         H           -1.395682308177    -2.167031152733     0.220119057258     1.007825032230
         H           -1.392142308177     2.168303847267     0.218913057258     1.007825032230
         H           -0.893299308177     1.305185847267    -1.240728942742     1.007825032230
         H           -2.590809308177     1.280981847267    -0.739018942742     1.007825032230

  Basis Set: AUG-CC-PVTZ
    Blend: AUG-CC-PVTZ
  Basis Set: (AUG-CC-PVTZ AUX)
    Blend: AUG-CC-PVTZ-JKFIT
	 Reference Energy          =    -360.8714210028281855 [Eh]
	 Singles Energy            =      -0.0000000000000000 [Eh]
	 Same-Spin Energy          =      -0.3710076286580326 [Eh]
	 Opposite-Spin Energy      =      -1.1847704991469175 [Eh]
	 Correlation Energy        =      -1.5557781278049501 [Eh]
	 Total Energy              =    -362.4271991306331415 [Eh]

	 ================> DF-SCS-MP2 Energies <==================
	-----------------------------------------------------------
	 SCS Same-Spin Scale       =       0.3333333333333333 [-]
	 SCS Opposite-Spin Scale   =       1.2000000000000000 [-]
	 SCS Same-Spin Energy      =      -0.1236692095526775 [Eh]
	 SCS Opposite-Spin Energy  =      -1.4217245989763010 [Eh]
	 SCS Correlation Energy    =      -1.5453938085289785 [Eh]
	 SCS Total Energy          =    -362.4168148113571419 [Eh]
	-----------------------------------------------------------

  Dipole Moment: [D]
     X:    -3.0760      Y:     0.0013      Z:     1.9919     Total:     3.6646

*** Psi4 exiting successfully. Buy a developer a beer!
