                               Psi4 1.3.2 release

  ==> Input File <==

--------------------------------------------------------------------------
#psi4
#
memory 32 gb

molecule  {
0 1
  O        1.6278220     1.1039490    -0.3557360
  O        1.6261270    -1.1051420    -0.3568940
  N        1.2303560    -0.0005110     0.0571010
  C       -1.2291370     0.0005950     0.4261400
  C        0.1188176    -0.0001994     1.0498969
  C       -1.4725310    -1.2637550    -0.3963350
  C       -1.4703770     1.2649030    -0.3970360
  H       -1.9318680     0.0014310     1.2711020
  H        0.3121680     0.8980270     1.6854240
  H        0.3113180    -0.8988370     1.6852010
  H       -0.8065590    -1.3055500    -1.2620530
  H       -2.5039820    -1.2782850    -0.7600790
  H       -1.3066080    -2.1670550     0.1981350
  H       -1.3030680     2.1682800     0.1969290
  H       -0.8042250     1.3051620    -1.2627130
  H       -2.5017350     1.2809580    -0.7610030
units angstrom
no_reorient  #important for SAPT in psi4, default
symmetry c1  #important for SAPT in psi4, default
}

set PROPERTIES_ORIGIN ["COM"]
properties('MP2/aug-cc-pvtz', properties = ['dipole'])
--------------------------------------------------------------------------

    Molecular point group: c1
  Charge       = 0
  Multiplicity = 1
  Basis Set: AUG-CC-PVTZ
    Blend: AUG-CC-PVTZ
  Basis Set: (AUG-CC-PVTZ AUX)
    Blend: AUG-CC-PVTZ-JKFIT

    Orbital Energies [Eh]
    ---------------------

    Doubly Occupied:

       1A    -20.606684     2A    -20.606634     3A    -15.845684
       4A    -11.308322     5A    -11.261613     6A    -11.228334
       7A    -11.228317     8A     -1.584607     9A     -1.385328
      10A     -1.149737    11A     -1.040521    12A     -0.948698
      13A     -0.884391    14A     -0.805320    15A     -0.737843
      16A     -0.727820    17A     -0.703589    18A     -0.632759
      19A     -0.632416    20A     -0.608847    21A     -0.557083
      22A     -0.540393    23A     -0.520201    24A     -0.504427
      25A     -0.501618    26A     -0.481353    27A     -0.475174
      28A     -0.448322

  @DF-RHF Final Energy:  -360.89576199431059

   => Energetics <=

    Nuclear Repulsion Energy =            329.0883672784700025
    One-Electron Energy =               -1144.0561861634150773
    Two-Electron Energy =                 454.0720568906344283
    Total Energy =                       -360.8957619943105897
  Basis Set: (AUG-CC-PVTZ AUX)
    Blend: AUG-CC-PVTZ-RI
    Molecular point group: c1

    Geometry (in Angstrom), charge = 0, multiplicity = 1:

       Center              X                  Y                   Z               Mass
    ------------   -----------------  -----------------  -----------------  -----------------
         O            1.530603312907     1.103983454338    -0.342072764631    15.994914619570
         O            1.528908312907    -1.105107545662    -0.343230764631    15.994914619570
         N            1.133137312907    -0.000476545662     0.070764235369    14.003074004430
         C           -1.326355687093     0.000629454338     0.439803235369    12.000000000000
         C            0.021598912907    -0.000164945662     1.063560135369    12.000000000000
         C           -1.569749687093    -1.263720545662    -0.382671764631    12.000000000000
         C           -1.567595687093     1.264937454338    -0.383372764631    12.000000000000
         H           -2.029086687093     0.001465454338     1.284765235369     1.007825032230
         H            0.214949312907     0.898061454338     1.699087235369     1.007825032230
         H            0.214099312907    -0.898802545662     1.698864235369     1.007825032230
         H           -0.903777687093    -1.305515545662    -1.248389764631     1.007825032230
         H           -2.601200687093    -1.278250545662    -0.746415764631     1.007825032230
         H           -1.403826687093    -2.167020545662     0.211798235369     1.007825032230
         H           -1.400286687093     2.168314454338     0.210592235369     1.007825032230
         H           -0.901443687093     1.305196454338    -1.249049764631     1.007825032230
         H           -2.598953687093     1.280992454338    -0.747339764631     1.007825032230

  Basis Set: AUG-CC-PVTZ
    Blend: AUG-CC-PVTZ
  Basis Set: (AUG-CC-PVTZ AUX)
    Blend: AUG-CC-PVTZ-JKFIT
	 Reference Energy          =    -360.8957619943105897 [Eh]
	 Singles Energy            =      -0.0000000000000000 [Eh]
	 Same-Spin Energy          =      -0.3693897363245849 [Eh]
	 Opposite-Spin Energy      =      -1.1820341399834025 [Eh]
	 Correlation Energy        =      -1.5514238763079873 [Eh]
	 Total Energy              =    -362.4471858706185685 [Eh]

	 ================> DF-SCS-MP2 Energies <==================
	-----------------------------------------------------------
	 SCS Same-Spin Scale       =       0.3333333333333333 [-]
	 SCS Opposite-Spin Scale   =       1.2000000000000000 [-]
	 SCS Same-Spin Energy      =      -0.1231299121081950 [Eh]
	 SCS Opposite-Spin Energy  =      -1.4184409679800829 [Eh]
	 SCS Correlation Energy    =      -1.5415708800882779 [Eh]
	 SCS Total Energy          =    -362.4373328743988623 [Eh]
	-----------------------------------------------------------

  Dipole Moment: [D]
     X:    -3.0062      Y:     0.0011      Z:     2.1201     Total:     3.6786

*** Psi4 exiting successfully. Buy a developer a beer!
