                               Psi4 1.3.2 release

  ==> Input File <==

--------------------------------------------------------------------------
#psi4
#
memory 32 gb

molecule  {
0 1
  O        1.6278220     1.1039490    -0.3557360
  O        1.6261270    -1.1051420    -0.3568940
  N        1.2303560    -0.0005110     0.0571010
  C       -1.2291370     0.0005950     0.4261400
  C        0.0838431    -0.0001539     1.0141647
  C       -1.4725310    -1.2637550    -0.3963350
  C       -1.4703770     1.2649030    -0.3970360
  H       -1.9318680     0.0014310     1.2711020
  H        0.3121680     0.8980270     1.6854240
  H        0.3113180    -0.8988370     1.6852010
  H       -0.8065590    -1.3055500    -1.2620530
  H       -2.5039820    -1.2782850    -0.7600790
  H       -1.3066080    -2.1670550     0.1981350
  H       -1.3030680     2.1682800     0.1969290
  H       -0.8042250     1.3051620    -1.2627130
  H       -2.5017350     1.2809580    -0.7610030
units angstrom
no_reorient  #important for SAPT in psi4, default
symmetry c1  #important for SAPT in psi4, default
}

set PROPERTIES_ORIGIN ["COM"]
properties('MP2/aug-cc-pvtz', properties = ['dipole'])
--------------------------------------------------------------------------

    Molecular point group: c1
  Charge       = 0
  Multiplicity = 1
  Basis Set: AUG-CC-PVTZ
    Blend: AUG-CC-PVTZ
  Basis Set: (AUG-CC-PVTZ AUX)
    Blend: AUG-CC-PVTZ-JKFIT

    Orbital Energies [Eh]
    ---------------------

    Doubly Occupied:

       1A    -20.607201     2A    -20.607150     3A    -15.845712
       4A    -11.311005     5A    -11.258573     6A    -11.228640
       7A    -11.228623     8A     -1.584816     9A     -1.385626
      10A     -1.156483    11A     -1.038887    12A     -0.949678
      13A     -0.888585    14A     -0.806174    15A     -0.737506
      16A     -0.727122    17A     -0.701400    18A     -0.636892
      19A     -0.629091    20A     -0.608977    21A     -0.557214
      22A     -0.535773    23A     -0.523678    24A     -0.508261
      25A     -0.502280    26A     -0.476855    27A     -0.474383
      28A     -0.448220

  @DF-RHF Final Energy:  -360.88663886252579

   => Energetics <=

    Nuclear Repulsion Energy =            329.6968968353166929
    One-Electron Energy =               -1145.2374597736318265
    Two-Electron Energy =                 454.6539240757893481
    Total Energy =                       -360.8866388625257855
  Basis Set: (AUG-CC-PVTZ AUX)
    Blend: AUG-CC-PVTZ-RI
    Molecular point group: c1

    Geometry (in Angstrom), charge = 0, multiplicity = 1:

       Center              X                  Y                   Z               Mass
    ------------   -----------------  -----------------  -----------------  -----------------
         O            1.534675508187     1.103978156624    -0.337912347865    15.994914619570
         O            1.532980508187    -1.105112843376    -0.339070347865    15.994914619570
         N            1.137209508187    -0.000481843376     0.074924652135    14.003074004430
         C           -1.322283491813     0.000624156624     0.443963652135    12.000000000000
         C           -0.009303391813    -0.000124743376     1.031988352135    12.000000000000
         C           -1.565677491813    -1.263725843376    -0.378511347865    12.000000000000
         C           -1.563523491813     1.264932156624    -0.379212347865    12.000000000000
         H           -2.025014491813     0.001460156624     1.288925652135     1.007825032230
         H            0.219021508187     0.898056156624     1.703247652135     1.007825032230
         H            0.218171508187    -0.898807843376     1.703024652135     1.007825032230
         H           -0.899705491813    -1.305520843376    -1.244229347865     1.007825032230
         H           -2.597128491813    -1.278255843376    -0.742255347865     1.007825032230
         H           -1.399754491813    -2.167025843376     0.215958652135     1.007825032230
         H           -1.396214491813     2.168309156624     0.214752652135     1.007825032230
         H           -0.897371491813     1.305191156624    -1.244889347865     1.007825032230
         H           -2.594881491813     1.280987156624    -0.743179347865     1.007825032230

  Basis Set: AUG-CC-PVTZ
    Blend: AUG-CC-PVTZ
  Basis Set: (AUG-CC-PVTZ AUX)
    Blend: AUG-CC-PVTZ-JKFIT
	 Reference Energy          =    -360.8866388625257855 [Eh]
	 Singles Energy            =      -0.0000000000000000 [Eh]
	 Same-Spin Energy          =      -0.3700863636259047 [Eh]
	 Opposite-Spin Energy      =      -1.1832082886723350 [Eh]
	 Correlation Energy        =      -1.5532946522982396 [Eh]
	 Total Energy              =    -362.4399335148240198 [Eh]

	 ================> DF-SCS-MP2 Energies <==================
	-----------------------------------------------------------
	 SCS Same-Spin Scale       =       0.3333333333333333 [-]
	 SCS Opposite-Spin Scale   =       1.2000000000000000 [-]
	 SCS Same-Spin Energy      =      -0.1233621212086349 [Eh]
	 SCS Opposite-Spin Energy  =      -1.4198499464068020 [Eh]
	 SCS Correlation Energy    =      -1.5432120676154368 [Eh]
	 SCS Total Energy          =    -362.4298509301412423 [Eh]
	-----------------------------------------------------------

  Dipole Moment: [D]
     X:    -3.0343      Y:     0.0012      Z:     2.0616     Total:     3.6684

*** Psi4 exiting successfully. Buy a developer a beer!
