                               Psi4 1.3.2 release

  ==> Input File <==

--------------------------------------------------------------------------
#psi4
#
memory 32 gb

molecule  {
0 1
  O        1.6278220     1.1039490    -0.3557360
  O        1.6261270    -1.1051420    -0.3568940
  N        1.2303560    -0.0005110     0.0571010
  C       -1.2291370     0.0005950     0.4261400
  C        0.0138942    -0.0000627     0.9427004
  C       -1.4725310    -1.2637550    -0.3963350
  C       -1.4703770     1.2649030    -0.3970360
  H       -1.9318680     0.0014310     1.2711020
  H        0.3121680     0.8980270     1.6854240
  H        0.3113180    -0.8988370     1.6852010
  H       -0.8065590    -1.3055500    -1.2620530
  H       -2.5039820    -1.2782850    -0.7600790
  H       -1.3066080    -2.1670550     0.1981350
  H       -1.3030680     2.1682800     0.1969290
  H       -0.8042250     1.3051620    -1.2627130
  H       -2.5017350     1.2809580    -0.7610030
units angstrom
no_reorient  #important for SAPT in psi4, default
symmetry c1  #important for SAPT in psi4, default
}

set PROPERTIES_ORIGIN ["COM"]
properties('MP2/aug-cc-pvtz', properties = ['dipole'])
--------------------------------------------------------------------------

    Molecular point group: c1
  Charge       = 0
  Multiplicity = 1
  Basis Set: AUG-CC-PVTZ
    Blend: AUG-CC-PVTZ
  Basis Set: (AUG-CC-PVTZ AUX)
    Blend: AUG-CC-PVTZ-JKFIT

    Orbital Energies [Eh]
    ---------------------

    Doubly Occupied:

       1A    -20.607850     2A    -20.607800     3A    -15.845828
       4A    -11.317026     5A    -11.252458     6A    -11.230016
       7A    -11.229997     8A     -1.584647     9A     -1.385826
      10A     -1.173419    11A     -1.034262    12A     -0.952532
      13A     -0.899890    14A     -0.806784    15A     -0.737665
      16A     -0.725775    17A     -0.696816    18A     -0.646949
      19A     -0.626593    20A     -0.607237    21A     -0.558542
      22A     -0.530465    23A     -0.527959    24A     -0.514641
      25A     -0.503574    26A     -0.470021    27A     -0.463369
      28A     -0.446737

  @DF-RHF Final Energy:  -360.84943033598870

   => Energetics <=

    Nuclear Repulsion Energy =            330.9412963046515870
    One-Electron Energy =               -1147.6120925003442608
    Two-Electron Energy =                 455.8213658597039739
    Total Energy =                       -360.8494303359886999
  Basis Set: (AUG-CC-PVTZ AUX)
    Blend: AUG-CC-PVTZ-RI
    Molecular point group: c1

    Geometry (in Angstrom), charge = 0, multiplicity = 1:

       Center              X                  Y                   Z               Mass
    ------------   -----------------  -----------------  -----------------  -----------------
         O            1.542819887103     1.103967537910    -0.329591525976    15.994914619570
         O            1.541124887103    -1.105123462090    -0.330749525976    15.994914619570
         N            1.145353887103    -0.000492462090     0.083245474024    14.003074004430
         C           -1.314139112897     0.000613537910     0.452284474024    12.000000000000
         C           -0.071107912897    -0.000044162090     0.968844874024    12.000000000000
         C           -1.557533112897    -1.263736462090    -0.370190525976    12.000000000000
         C           -1.555379112897     1.264921537910    -0.370891525976    12.000000000000
         H           -2.016870112897     0.001449537910     1.297246474024     1.007825032230
         H            0.227165887103     0.898045537910     1.711568474024     1.007825032230
         H            0.226315887103    -0.898818462090     1.711345474024     1.007825032230
         H           -0.891561112897    -1.305531462090    -1.235908525976     1.007825032230
         H           -2.588984112897    -1.278266462090    -0.733934525976     1.007825032230
         H           -1.391610112897    -2.167036462090     0.224279474024     1.007825032230
         H           -1.388070112897     2.168298537910     0.223073474024     1.007825032230
         H           -0.889227112897     1.305180537910    -1.236568525976     1.007825032230
         H           -2.586737112897     1.280976537910    -0.734858525976     1.007825032230

  Basis Set: AUG-CC-PVTZ
    Blend: AUG-CC-PVTZ
  Basis Set: (AUG-CC-PVTZ AUX)
    Blend: AUG-CC-PVTZ-JKFIT
	 Reference Energy          =    -360.8494303359886999 [Eh]
	 Singles Energy            =      -0.0000000000000000 [Eh]
	 Same-Spin Energy          =      -0.3721683035973508 [Eh]
	 Opposite-Spin Energy      =      -1.1867395521716237 [Eh]
	 Correlation Energy        =      -1.5589078557689746 [Eh]
	 Total Energy              =    -362.4083381917576503 [Eh]

	 ================> DF-SCS-MP2 Energies <==================
	-----------------------------------------------------------
	 SCS Same-Spin Scale       =       0.3333333333333333 [-]
	 SCS Opposite-Spin Scale   =       1.2000000000000000 [-]
	 SCS Same-Spin Energy      =      -0.1240561011991169 [Eh]
	 SCS Opposite-Spin Energy  =      -1.4240874626059485 [Eh]
	 SCS Correlation Energy    =      -1.5481435638050656 [Eh]
	 SCS Total Energy          =    -362.3975738997937697 [Eh]
	-----------------------------------------------------------

  Dipole Moment: [D]
     X:    -3.1327      Y:     0.0014      Z:     1.9088     Total:     3.6684

*** Psi4 exiting successfully. Buy a developer a beer!
