                               Psi4 1.3.2 release

  ==> Input File <==

--------------------------------------------------------------------------
#psi4
#
memory 32 gb

molecule  {
0 1
  O        1.6278220     1.1039490    -0.3557360
  O        1.6261270    -1.1051420    -0.3568940
  N        1.2303560    -0.0005110     0.0571010
  C       -1.2291370     0.0005950     0.4261400
  C       -0.0560547     0.0000284     0.8712361
  C       -1.4725310    -1.2637550    -0.3963350
  C       -1.4703770     1.2649030    -0.3970360
  H       -1.9318680     0.0014310     1.2711020
  H        0.3121680     0.8980270     1.6854240
  H        0.3113180    -0.8988370     1.6852010
  H       -0.8065590    -1.3055500    -1.2620530
  H       -2.5039820    -1.2782850    -0.7600790
  H       -1.3066080    -2.1670550     0.1981350
  H       -1.3030680     2.1682800     0.1969290
  H       -0.8042250     1.3051620    -1.2627130
  H       -2.5017350     1.2809580    -0.7610030
units angstrom
no_reorient  #important for SAPT in psi4, default
symmetry c1  #important for SAPT in psi4, default
}

set PROPERTIES_ORIGIN ["COM"]
properties('MP2/aug-cc-pvtz', properties = ['dipole'])
--------------------------------------------------------------------------

    Molecular point group: c1
  Charge       = 0
  Multiplicity = 1
  Basis Set: AUG-CC-PVTZ
    Blend: AUG-CC-PVTZ
  Basis Set: (AUG-CC-PVTZ AUX)
    Blend: AUG-CC-PVTZ-JKFIT

    Orbital Energies [Eh]
    ---------------------

    Doubly Occupied:

       1A    -20.608029     2A    -20.607978     3A    -15.845968
       4A    -11.323446     5A    -11.246615     6A    -11.232760
       7A    -11.232736     8A     -1.583716     9A     -1.385511
      10A     -1.196025    11A     -1.027400    12A     -0.956923
      13A     -0.913847    14A     -0.806063    15A     -0.739669
      16A     -0.724313    17A     -0.693823    18A     -0.656061
      19A     -0.629989    20A     -0.603006    21A     -0.561150
      22A     -0.536532    23A     -0.525053    24A     -0.520247
      25A     -0.504230    26A     -0.462072    27A     -0.452437
      28A     -0.434755

  @DF-RHF Final Energy:  -360.78188148709188

   => Energetics <=

    Nuclear Repulsion Energy =            332.2493119070899752
    One-Electron Energy =               -1150.0416772798434977
    Two-Electron Energy =                 457.0104838856615856
    Total Energy =                       -360.7818814870918800
  Basis Set: (AUG-CC-PVTZ AUX)
    Blend: AUG-CC-PVTZ-RI
    Molecular point group: c1

    Geometry (in Angstrom), charge = 0, multiplicity = 1:

       Center              X                  Y                   Z               Mass
    ------------   -----------------  -----------------  -----------------  -----------------
         O            1.550964266020     1.103956930840    -0.321270704087    15.994914619570
         O            1.549269266020    -1.105134069160    -0.322428704087    15.994914619570
         N            1.153498266020    -0.000503069160     0.091566295913    14.003074004430
         C           -1.305994733980     0.000602930840     0.460605295913    12.000000000000
         C           -0.132912433980     0.000036330840     0.905701395913    12.000000000000
         C           -1.549388733980    -1.263747069160    -0.361869704087    12.000000000000
         C           -1.547234733980     1.264910930840    -0.362570704087    12.000000000000
         H           -2.008725733980     0.001438930840     1.305567295913     1.007825032230
         H            0.235310266020     0.898034930840     1.719889295913     1.007825032230
         H            0.234460266020    -0.898829069160     1.719666295913     1.007825032230
         H           -0.883416733980    -1.305542069160    -1.227587704087     1.007825032230
         H           -2.580839733980    -1.278277069160    -0.725613704087     1.007825032230
         H           -1.383465733980    -2.167047069160     0.232600295913     1.007825032230
         H           -1.379925733980     2.168287930840     0.231394295913     1.007825032230
         H           -0.881082733980     1.305169930840    -1.228247704087     1.007825032230
         H           -2.578592733980     1.280965930840    -0.726537704087     1.007825032230

  Basis Set: AUG-CC-PVTZ
    Blend: AUG-CC-PVTZ
  Basis Set: (AUG-CC-PVTZ AUX)
    Blend: AUG-CC-PVTZ-JKFIT
	 Reference Energy          =    -360.7818814870918800 [Eh]
	 Singles Energy            =      -0.0000000000000000 [Eh]
	 Same-Spin Energy          =      -0.3752675786864750 [Eh]
	 Opposite-Spin Energy      =      -1.1919643010314023 [Eh]
	 Correlation Energy        =      -1.5672318797178773 [Eh]
	 Total Energy              =    -362.3491133668097746 [Eh]

	 ================> DF-SCS-MP2 Energies <==================
	-----------------------------------------------------------
	 SCS Same-Spin Scale       =       0.3333333333333333 [-]
	 SCS Opposite-Spin Scale   =       1.2000000000000000 [-]
	 SCS Same-Spin Energy      =      -0.1250891928954916 [Eh]
	 SCS Opposite-Spin Energy  =      -1.4303571612376826 [Eh]
	 SCS Correlation Energy    =      -1.5554463541331742 [Eh]
	 SCS Total Energy          =    -362.3373278412250329 [Eh]
	-----------------------------------------------------------

  Dipole Moment: [D]
     X:    -3.2967      Y:     0.0017      Z:     1.6923     Total:     3.7057

*** Psi4 exiting successfully. Buy a developer a beer!
