                               Psi4 1.3.2 release

  ==> Input File <==

--------------------------------------------------------------------------
#psi4
#
memory 32 gb

molecule  {
0 1
  O        1.6278220     1.1039490    -0.3557360
  O        1.6261270    -1.1051420    -0.3568940
  N        1.2303560    -0.0005110     0.0571010
  C       -1.2291370     0.0005950     0.4261400
  C        0.1537920    -0.0002450     1.0856290
  C       -1.4725310    -1.2637550    -0.3963350
  C       -1.4703770     1.2649030    -0.3970360
  H       -1.9318680     0.0014310     1.2711020
  H        0.3121680     0.8980270     1.6854240
  H        0.3113180    -0.8988370     1.6852010
  H       -0.8065590    -1.3055500    -1.2620530
  H       -2.5039820    -1.2782850    -0.7600790
  H       -1.3066080    -2.1670550     0.1981350
  H       -1.3030680     2.1682800     0.1969290
  H       -0.8042250     1.3051620    -1.2627130
  H       -2.5017350     1.2809580    -0.7610030
units angstrom
no_reorient  #important for SAPT in psi4, default
symmetry c1  #important for SAPT in psi4, default
}

set PROPERTIES_ORIGIN ["COM"]
properties('MP2/aug-cc-pvtz', properties = ['dipole'])
--------------------------------------------------------------------------

    Molecular point group: c1
  Charge       = 0
  Multiplicity = 1
  Basis Set: AUG-CC-PVTZ
    Blend: AUG-CC-PVTZ
  Basis Set: (AUG-CC-PVTZ AUX)
    Blend: AUG-CC-PVTZ-JKFIT

    Orbital Energies [Eh]
    ---------------------

    Doubly Occupied:

       1A    -20.606034     2A    -20.605984     3A    -15.845680
       4A    -11.305959     5A    -11.264618     6A    -11.228236
       7A    -11.228219     8A     -1.584201     9A     -1.384897
      10A     -1.143870    11A     -1.041807    12A     -0.947970
      13A     -0.881230    14A     -0.804152    15A     -0.738317
      16A     -0.728598    17A     -0.705442    18A     -0.637996
      19A     -0.628821    20A     -0.607999    21A     -0.557442
      22A     -0.544559    23A     -0.516909    24A     -0.501023
      25A     -0.500167    26A     -0.484534    27A     -0.474740
      28A     -0.448258

  @DF-RHF Final Energy:  -360.89940135025836

   => Energetics <=

    Nuclear Repulsion Energy =            328.4839240636237037
    One-Electron Energy =               -1142.8713285981987156
    Two-Electron Energy =                 453.4880031843166535
    Total Energy =                       -360.8994013502583584
  Basis Set: (AUG-CC-PVTZ AUX)
    Blend: AUG-CC-PVTZ-RI
    Molecular point group: c1

    Geometry (in Angstrom), charge = 0, multiplicity = 1:

       Center              X                  Y                   Z               Mass
    ------------   -----------------  -----------------  -----------------  -----------------
         O            1.526531129270     1.103988763695    -0.346233169753    15.994914619570
         O            1.524836129270    -1.105102236305    -0.347391169753    15.994914619570
         N            1.129065129270    -0.000471236305     0.066603830247    14.003074004430
         C           -1.330427870730     0.000634763695     0.435642830247    12.000000000000
         C            0.052501129270    -0.000205236305     1.095131830247    12.000000000000
         C           -1.573821870730    -1.263715236305    -0.386832169753    12.000000000000
         C           -1.571667870730     1.264942763695    -0.387533169753    12.000000000000
         H           -2.033158870730     0.001470763695     1.280604830247     1.007825032230
         H            0.210877129270     0.898066763695     1.694926830247     1.007825032230
         H            0.210027129270    -0.898797236305     1.694703830247     1.007825032230
         H           -0.907849870730    -1.305510236305    -1.252550169753     1.007825032230
         H           -2.605272870730    -1.278245236305    -0.750576169753     1.007825032230
         H           -1.407898870730    -2.167015236305     0.207637830247     1.007825032230
         H           -1.404358870730     2.168319763695     0.206431830247     1.007825032230
         H           -0.905515870730     1.305201763695    -1.253210169753     1.007825032230
         H           -2.603025870730     1.280997763695    -0.751500169753     1.007825032230

  Basis Set: AUG-CC-PVTZ
    Blend: AUG-CC-PVTZ
  Basis Set: (AUG-CC-PVTZ AUX)
    Blend: AUG-CC-PVTZ-JKFIT
	 Reference Energy          =    -360.8994013502583584 [Eh]
	 Singles Energy            =      -0.0000000000000000 [Eh]
	 Same-Spin Energy          =      -0.3689042538051160 [Eh]
	 Opposite-Spin Energy      =      -1.1812308596732124 [Eh]
	 Correlation Energy        =      -1.5501351134783286 [Eh]
	 Total Energy              =    -362.4495364637367061 [Eh]

	 ================> DF-SCS-MP2 Energies <==================
	-----------------------------------------------------------
	 SCS Same-Spin Scale       =       0.3333333333333333 [-]
	 SCS Opposite-Spin Scale   =       1.2000000000000000 [-]
	 SCS Same-Spin Energy      =      -0.1229680846017053 [Eh]
	 SCS Opposite-Spin Energy  =      -1.4174770316078549 [Eh]
	 SCS Correlation Energy    =      -1.5404451162095603 [Eh]
	 SCS Total Energy          =    -362.4398464664679409 [Eh]
	-----------------------------------------------------------

  Dipole Moment: [D]
     X:    -2.9908      Y:     0.0010      Z:     2.1689     Total:     3.6945

*** Psi4 exiting successfully. Buy a developer a beer!
