                               Psi4 1.3.2 release

  ==> Input File <==

--------------------------------------------------------------------------
#psi4
#
memory 32 gb

molecule  {
0 1
  S        1.5510760    -1.0871590     0.0000010
  O       -1.4242190    -1.5655850    -0.0000010
  N       -2.0132560     0.6673690     0.0000000
  N        0.6809160     1.3479160    -0.0000010
  C        0.2854510     0.0833791    -0.2000000
  C       -1.1339070    -0.3627170    -0.0000010
  C       -3.4470980     0.4588130     0.0000010
  C        2.6913180     0.1894230     0.0000000
  C        2.0463170     1.4081830     0.0000000
  H       -1.6187540     1.6018420     0.0000010
  H       -3.9049180     0.8972840    -0.8911940
  H       -3.9049160     0.8972760     0.8912010
  H       -3.6178680    -0.6175520    -0.0000030
  H        3.7564850    -0.0027380     0.0000010
  H        2.5404020     2.3736430     0.0000000
units angstrom
no_reorient  #important for SAPT in psi4, default
symmetry c1  #important for SAPT in psi4, default
}

set PROPERTIES_ORIGIN ["COM"]
properties('MP2/aug-cc-pvtz', properties = ['dipole'])
--------------------------------------------------------------------------

    Molecular point group: c1
  Charge       = 0
  Multiplicity = 1
  Basis Set: AUG-CC-PVTZ
    Blend: AUG-CC-PVTZ
  Basis Set: (AUG-CC-PVTZ AUX)
    Blend: AUG-CC-PVTZ-JKFIT

    Orbital Energies [Eh]
    ---------------------

    Doubly Occupied:

       1A    -92.013417     2A    -20.528649     3A    -15.600363
       4A    -15.593051     5A    -11.369663     6A    -11.326341
       7A    -11.285882     8A    -11.284248     9A    -11.263363
      10A     -9.013082    11A     -6.693756    12A     -6.693215
      13A     -6.692598    14A     -1.383145    15A     -1.292661
      16A     -1.237126    17A     -1.079542    18A     -1.033759
      19A     -0.958829    20A     -0.845298    21A     -0.802067
      22A     -0.776662    23A     -0.717929    24A     -0.655495
      25A     -0.650200    26A     -0.632598    27A     -0.598189
      28A     -0.583678    29A     -0.565691    30A     -0.551694
      31A     -0.529294    32A     -0.517578    33A     -0.466698
      34A     -0.436155    35A     -0.406072    36A     -0.391322
      37A     -0.348844

  @DF-RHF Final Energy:  -774.26527320612229

   => Energetics <=

    Nuclear Repulsion Energy =            504.1792388818844302
    One-Electron Energy =               -2063.2527154992371834
    Two-Electron Energy =                 784.8082034112304655
    Total Energy =                       -774.2652732061222878
  Basis Set: (AUG-CC-PVTZ AUX)
    Blend: AUG-CC-PVTZ-RI
    Molecular point group: c1

    Geometry (in Angstrom), charge = 0, multiplicity = 1:

       Center              X                  Y                   Z               Mass
    ------------   -----------------  -----------------  -----------------  -----------------
         S            1.504205285922    -1.051495641733     0.016899961833    31.972071174400
         O           -1.471089714078    -1.529921641733     0.016897961833    15.994914619570
         N           -2.060126714078     0.703032358267     0.016898961833    14.003074004430
         N            0.634045285922     1.383579358267     0.016897961833    14.003074004430
         C            0.238580285922     0.119042458267    -0.183101038167    12.000000000000
         C           -1.180777714078    -0.327053641733     0.016897961833    12.000000000000
         C           -3.493968714078     0.494476358267     0.016899961833    12.000000000000
         C            2.644447285922     0.225086358267     0.016898961833    12.000000000000
         C            1.999446285922     1.443846358267     0.016898961833    12.000000000000
         H           -1.665624714078     1.637505358267     0.016899961833     1.007825032230
         H           -3.951788714078     0.932947358267    -0.874295038167     1.007825032230
         H           -3.951786714078     0.932939358267     0.908099961833     1.007825032230
         H           -3.664738714078    -0.581888641733     0.016895961833     1.007825032230
         H            3.709614285922     0.032925358267     0.016899961833     1.007825032230
         H            2.493531285922     2.409306358267     0.016898961833     1.007825032230

  Basis Set: AUG-CC-PVTZ
    Blend: AUG-CC-PVTZ
  Basis Set: (AUG-CC-PVTZ AUX)
    Blend: AUG-CC-PVTZ-JKFIT
	 Reference Energy          =    -774.2652732061222878 [Eh]
	 Singles Energy            =      -0.0000000000000000 [Eh]
	 Same-Spin Energy          =      -0.4595976997685484 [Eh]
	 Opposite-Spin Energy      =      -1.3708899119234141 [Eh]
	 Correlation Energy        =      -1.8304876116919626 [Eh]
	 Total Energy              =    -776.0957608178142664 [Eh]

	 ================> DF-SCS-MP2 Energies <==================
	-----------------------------------------------------------
	 SCS Same-Spin Scale       =       0.3333333333333333 [-]
	 SCS Opposite-Spin Scale   =       1.2000000000000000 [-]
	 SCS Same-Spin Energy      =      -0.1531992332561828 [Eh]
	 SCS Opposite-Spin Energy  =      -1.6450678943080970 [Eh]
	 SCS Correlation Energy    =      -1.7982671275642796 [Eh]
	 SCS Total Energy          =    -776.0635403336865465 [Eh]
	-----------------------------------------------------------

  Dipole Moment: [D]
     X:     1.1667      Y:     2.4778      Z:     0.0380     Total:     2.7390

*** Psi4 exiting successfully. Buy a developer a beer!
