                               Psi4 1.3.2 release

  ==> Input File <==

--------------------------------------------------------------------------
#psi4
#
memory 32 gb

molecule  {
0 1
  S        1.5510760    -1.0871590     0.0000010
  O       -1.4242190    -1.5655850    -0.0000010
  N       -2.0132560     0.6673690     0.0000000
  N        0.6809160     1.3479160    -0.0000010
  C        0.2854510     0.0833790     0.0000000
  C       -1.1339071    -0.3627169     0.0999990
  C       -3.4470980     0.4588130     0.0000010
  C        2.6913180     0.1894230     0.0000000
  C        2.0463170     1.4081830     0.0000000
  H       -1.6187540     1.6018420     0.0000010
  H       -3.9049180     0.8972840    -0.8911940
  H       -3.9049160     0.8972760     0.8912010
  H       -3.6178680    -0.6175520    -0.0000030
  H        3.7564850    -0.0027380     0.0000010
  H        2.5404020     2.3736430     0.0000000
units angstrom
no_reorient  #important for SAPT in psi4, default
symmetry c1  #important for SAPT in psi4, default
}

set PROPERTIES_ORIGIN ["COM"]
properties('MP2/aug-cc-pvtz', properties = ['dipole'])
--------------------------------------------------------------------------

    Molecular point group: c1
  Charge       = 0
  Multiplicity = 1
  Basis Set: AUG-CC-PVTZ
    Blend: AUG-CC-PVTZ
  Basis Set: (AUG-CC-PVTZ AUX)
    Blend: AUG-CC-PVTZ-JKFIT

    Orbital Energies [Eh]
    ---------------------

    Doubly Occupied:

       1A    -92.012697     2A    -20.529992     3A    -15.596843
       4A    -15.594192     5A    -11.370759     6A    -11.325109
       7A    -11.285098     8A    -11.282557     9A    -11.263658
      10A     -9.012612    11A     -6.693317    12A     -6.692786
      13A     -6.692158    14A     -1.382407    15A     -1.295899
      16A     -1.236783    17A     -1.081109    18A     -1.035405
      19A     -0.959393    20A     -0.847540    21A     -0.804948
      22A     -0.776632    23A     -0.718479    24A     -0.655307
      25A     -0.650012    26A     -0.632899    27A     -0.599098
      28A     -0.584512    29A     -0.567126    30A     -0.551875
      31A     -0.531351    32A     -0.517777    33A     -0.466244
      34A     -0.436437    35A     -0.408305    36A     -0.392097
      37A     -0.348181

  @DF-RHF Final Energy:  -774.27181865712691

   => Energetics <=

    Nuclear Repulsion Energy =            504.6552747671517523
    One-Electron Energy =               -2064.1910008465310966
    Two-Electron Energy =                 785.2639074222524869
    Total Energy =                       -774.2718186571269143
  Basis Set: (AUG-CC-PVTZ AUX)
    Blend: AUG-CC-PVTZ-RI
    Molecular point group: c1

    Geometry (in Angstrom), charge = 0, multiplicity = 1:

       Center              X                  Y                   Z               Mass
    ------------   -----------------  -----------------  -----------------  -----------------
         S            1.504205294372    -1.051495641733    -0.008448565634    31.972071174400
         O           -1.471089705628    -1.529921641733    -0.008450565634    15.994914619570
         N           -2.060126705628     0.703032358267    -0.008449565634    14.003074004430
         N            0.634045294372     1.383579358267    -0.008450565634    14.003074004430
         C            0.238580294372     0.119042358267    -0.008449565634    12.000000000000
         C           -1.180777805628    -0.327053541733     0.091549434366    12.000000000000
         C           -3.493968705628     0.494476358267    -0.008448565634    12.000000000000
         C            2.644447294372     0.225086358267    -0.008449565634    12.000000000000
         C            1.999446294372     1.443846358267    -0.008449565634    12.000000000000
         H           -1.665624705628     1.637505358267    -0.008448565634     1.007825032230
         H           -3.951788705628     0.932947358267    -0.899643565634     1.007825032230
         H           -3.951786705628     0.932939358267     0.882751434366     1.007825032230
         H           -3.664738705628    -0.581888641733    -0.008452565634     1.007825032230
         H            3.709614294372     0.032925358267    -0.008448565634     1.007825032230
         H            2.493531294372     2.409306358267    -0.008449565634     1.007825032230

  Basis Set: AUG-CC-PVTZ
    Blend: AUG-CC-PVTZ
  Basis Set: (AUG-CC-PVTZ AUX)
    Blend: AUG-CC-PVTZ-JKFIT
	 Reference Energy          =    -774.2718186571269143 [Eh]
	 Singles Energy            =      -0.0000000000000000 [Eh]
	 Same-Spin Energy          =      -0.4591338063365491 [Eh]
	 Opposite-Spin Energy      =      -1.3697822540034355 [Eh]
	 Correlation Energy        =      -1.8289160603399846 [Eh]
	 Total Energy              =    -776.1007347174669349 [Eh]

	 ================> DF-SCS-MP2 Energies <==================
	-----------------------------------------------------------
	 SCS Same-Spin Scale       =       0.3333333333333333 [-]
	 SCS Opposite-Spin Scale   =       1.2000000000000000 [-]
	 SCS Same-Spin Energy      =      -0.1530446021121830 [Eh]
	 SCS Opposite-Spin Energy  =      -1.6437387048041225 [Eh]
	 SCS Correlation Energy    =      -1.7967833069163055 [Eh]
	 SCS Total Energy          =    -776.0686019640431823 [Eh]
	-----------------------------------------------------------

  Dipole Moment: [D]
     X:     1.1117      Y:     2.4448      Z:     0.0900     Total:     2.6872

*** Psi4 exiting successfully. Buy a developer a beer!
