                               Psi4 1.3.2 release

  ==> Input File <==

--------------------------------------------------------------------------
#psi4
#
memory 32 gb

molecule  {
0 1
  S        1.5510760    -1.0871590     0.0000010
  O       -1.4242190    -1.5655850    -0.0000010
  N       -2.0132560     0.6673690     0.0000000
  N        0.6809160     1.3479160    -0.0000010
  C        0.2854510     0.0833790     0.0000000
  C       -1.1339070    -0.3627170    -0.0000010
  C       -3.4470980     0.4588130     0.0000010
  C        2.6913180     0.1894230     0.0000000
  C        2.0463170     1.4081830     0.0000000
  H       -1.6187540     1.6018420     0.0000010
  H       -3.9049180     0.8972840    -0.8911940
  H       -3.9049160     0.8972760     0.8912010
  H       -3.6178680    -0.6175520    -0.0000030
  H        3.7564851    -0.0027381    -0.2999990
  H        2.5404020     2.3736430     0.0000000
units angstrom
no_reorient  #important for SAPT in psi4, default
symmetry c1  #important for SAPT in psi4, default
}

set PROPERTIES_ORIGIN ["COM"]
properties('MP2/aug-cc-pvtz', properties = ['dipole'])
--------------------------------------------------------------------------

    Molecular point group: c1
  Charge       = 0
  Multiplicity = 1
  Basis Set: AUG-CC-PVTZ
    Blend: AUG-CC-PVTZ
  Basis Set: (AUG-CC-PVTZ AUX)
    Blend: AUG-CC-PVTZ-JKFIT

    Orbital Energies [Eh]
    ---------------------

    Doubly Occupied:

       1A    -92.012657     2A    -20.529617     3A    -15.597370
       4A    -15.594242     5A    -11.369698     6A    -11.325464
       7A    -11.286574     8A    -11.285043     9A    -11.264024
      10A     -9.012594    11A     -6.693294    12A     -6.692744
      13A     -6.692127    14A     -1.384582    15A     -1.296704
      16A     -1.238329    17A     -1.080431    18A     -1.036115
      19A     -0.959788    20A     -0.847949    21A     -0.801335
      22A     -0.777951    23A     -0.715338    24A     -0.656047
      25A     -0.648503    26A     -0.633919    27A     -0.599396
      28A     -0.585683    29A     -0.562646    30A     -0.552331
      31A     -0.531312    32A     -0.517796    33A     -0.466666
      34A     -0.437061    35A     -0.408592    36A     -0.392715
      37A     -0.348586

  @DF-RHF Final Energy:  -774.27109564796444

   => Energetics <=

    Nuclear Repulsion Energy =            504.6705192382987093
    One-Electron Energy =               -2064.2127819462552907
    Two-Electron Energy =                 785.2711670599920808
    Total Energy =                       -774.2710956479644437
  Basis Set: (AUG-CC-PVTZ AUX)
    Blend: AUG-CC-PVTZ-RI
    Molecular point group: c1

    Geometry (in Angstrom), charge = 0, multiplicity = 1:

       Center              X                  Y                   Z               Mass
    ------------   -----------------  -----------------  -----------------  -----------------
         S            1.504205285212    -1.051495632574     0.002129850231    31.972071174400
         O           -1.471089714788    -1.529921632574     0.002127850231    15.994914619570
         N           -2.060126714788     0.703032367426     0.002128850231    14.003074004430
         N            0.634045285212     1.383579367426     0.002127850231    14.003074004430
         C            0.238580285212     0.119042367426     0.002128850231    12.000000000000
         C           -1.180777714788    -0.327053632574     0.002127850231    12.000000000000
         C           -3.493968714788     0.494476367426     0.002129850231    12.000000000000
         C            2.644447285212     0.225086367426     0.002128850231    12.000000000000
         C            1.999446285212     1.443846367426     0.002128850231    12.000000000000
         H           -1.665624714788     1.637505367426     0.002129850231     1.007825032230
         H           -3.951788714788     0.932947367426    -0.889065149769     1.007825032230
         H           -3.951786714788     0.932939367426     0.893329850231     1.007825032230
         H           -3.664738714788    -0.581888632574     0.002125850231     1.007825032230
         H            3.709614385212     0.032925267426    -0.297870149769     1.007825032230
         H            2.493531285212     2.409306367426     0.002128850231     1.007825032230

  Basis Set: AUG-CC-PVTZ
    Blend: AUG-CC-PVTZ
  Basis Set: (AUG-CC-PVTZ AUX)
    Blend: AUG-CC-PVTZ-JKFIT
	 Reference Energy          =    -774.2710956479644437 [Eh]
	 Singles Energy            =      -0.0000000000000000 [Eh]
	 Same-Spin Energy          =      -0.4591537590580980 [Eh]
	 Opposite-Spin Energy      =      -1.3697352583034794 [Eh]
	 Correlation Energy        =      -1.8288890173615775 [Eh]
	 Total Energy              =    -776.0999846653260192 [Eh]

	 ================> DF-SCS-MP2 Energies <==================
	-----------------------------------------------------------
	 SCS Same-Spin Scale       =       0.3333333333333333 [-]
	 SCS Opposite-Spin Scale   =       1.2000000000000000 [-]
	 SCS Same-Spin Energy      =      -0.1530512530193660 [Eh]
	 SCS Opposite-Spin Energy  =      -1.6436823099641753 [Eh]
	 SCS Correlation Energy    =      -1.7967335629835413 [Eh]
	 SCS Total Energy          =    -776.0678292109479344 [Eh]
	-----------------------------------------------------------

  Dipole Moment: [D]
     X:     1.0571      Y:     2.4692      Z:    -0.2359     Total:     2.6963

*** Psi4 exiting successfully. Buy a developer a beer!
