                               Psi4 1.3.2 release

  ==> Input File <==

--------------------------------------------------------------------------
#psi4
#
memory 32 gb

molecule  {
0 1
  S        1.5510760    -1.0871590     0.0000010
  O       -1.4242190    -1.5655850    -0.0000010
  N       -2.0132560     0.6673690     0.0000000
  N        0.6809160     1.3479160    -0.0000010
  C        0.2854510     0.0833790     0.0000000
  C       -1.1339071    -0.3627169     0.1999990
  C       -3.4470980     0.4588130     0.0000010
  C        2.6913180     0.1894230     0.0000000
  C        2.0463170     1.4081830     0.0000000
  H       -1.6187540     1.6018420     0.0000010
  H       -3.9049180     0.8972840    -0.8911940
  H       -3.9049160     0.8972760     0.8912010
  H       -3.6178680    -0.6175520    -0.0000030
  H        3.7564850    -0.0027380     0.0000010
  H        2.5404020     2.3736430     0.0000000
units angstrom
no_reorient  #important for SAPT in psi4, default
symmetry c1  #important for SAPT in psi4, default
}

set PROPERTIES_ORIGIN ["COM"]
properties('MP2/aug-cc-pvtz', properties = ['dipole'])
--------------------------------------------------------------------------

    Molecular point group: c1
  Charge       = 0
  Multiplicity = 1
  Basis Set: AUG-CC-PVTZ
    Blend: AUG-CC-PVTZ
  Basis Set: (AUG-CC-PVTZ AUX)
    Blend: AUG-CC-PVTZ-JKFIT

    Orbital Energies [Eh]
    ---------------------

    Doubly Occupied:

       1A    -92.012302     2A    -20.532408     3A    -15.596242
       4A    -15.595307     5A    -11.374911     6A    -11.326769
       7A    -11.284995     8A    -11.282209     9A    -11.263407
      10A     -9.012256    11A     -6.692963    12A     -6.692427
      13A     -6.691795    14A     -1.377185    15A     -1.295224
      16A     -1.233425    17A     -1.080840    18A     -1.033875
      19A     -0.958086    20A     -0.846067    21A     -0.804690
      22A     -0.773831    23A     -0.717940    24A     -0.654668
      25A     -0.648624    26A     -0.630908    27A     -0.597618
      28A     -0.584688    29A     -0.565106    30A     -0.551235
      31A     -0.529012    32A     -0.517458    33A     -0.465756
      34A     -0.435755    35A     -0.407485    36A     -0.390819
      37A     -0.347293

  @DF-RHF Final Energy:  -774.25755735207304

   => Energetics <=

    Nuclear Repulsion Energy =            504.1436046393253605
    One-Electron Energy =               -2063.1911622827924475
    Two-Electron Energy =                 784.7900002913941080
    Total Energy =                       -774.2575573520730359
  Basis Set: (AUG-CC-PVTZ AUX)
    Blend: AUG-CC-PVTZ-RI
    Molecular point group: c1

    Geometry (in Angstrom), charge = 0, multiplicity = 1:

       Center              X                  Y                   Z               Mass
    ------------   -----------------  -----------------  -----------------  -----------------
         S            1.504205294372    -1.051495641733    -0.016898074789    31.972071174400
         O           -1.471089705628    -1.529921641733    -0.016900074789    15.994914619570
         N           -2.060126705628     0.703032358267    -0.016899074789    14.003074004430
         N            0.634045294372     1.383579358267    -0.016900074789    14.003074004430
         C            0.238580294372     0.119042358267    -0.016899074789    12.000000000000
         C           -1.180777805628    -0.327053541733     0.183099925211    12.000000000000
         C           -3.493968705628     0.494476358267    -0.016898074789    12.000000000000
         C            2.644447294372     0.225086358267    -0.016899074789    12.000000000000
         C            1.999446294372     1.443846358267    -0.016899074789    12.000000000000
         H           -1.665624705628     1.637505358267    -0.016898074789     1.007825032230
         H           -3.951788705628     0.932947358267    -0.908093074789     1.007825032230
         H           -3.951786705628     0.932939358267     0.874301925211     1.007825032230
         H           -3.664738705628    -0.581888641733    -0.016902074789     1.007825032230
         H            3.709614294372     0.032925358267    -0.016898074789     1.007825032230
         H            2.493531294372     2.409306358267    -0.016899074789     1.007825032230

  Basis Set: AUG-CC-PVTZ
    Blend: AUG-CC-PVTZ
  Basis Set: (AUG-CC-PVTZ AUX)
    Blend: AUG-CC-PVTZ-JKFIT
	 Reference Energy          =    -774.2575573520730359 [Eh]
	 Singles Energy            =      -0.0000000000000000 [Eh]
	 Same-Spin Energy          =      -0.4600084780624230 [Eh]
	 Opposite-Spin Energy      =      -1.3720836609700950 [Eh]
	 Correlation Energy        =      -1.8320921390325180 [Eh]
	 Total Energy              =    -776.0896494911055470 [Eh]

	 ================> DF-SCS-MP2 Energies <==================
	-----------------------------------------------------------
	 SCS Same-Spin Scale       =       0.3333333333333333 [-]
	 SCS Opposite-Spin Scale   =       1.2000000000000000 [-]
	 SCS Same-Spin Energy      =      -0.1533361593541410 [Eh]
	 SCS Opposite-Spin Energy  =      -1.6465003931641140 [Eh]
	 SCS Correlation Energy    =      -1.7998365525182549 [Eh]
	 SCS Total Energy          =    -776.0573939045913221 [Eh]
	-----------------------------------------------------------

  Dipole Moment: [D]
     X:     1.0784      Y:     2.4278      Z:     0.1730     Total:     2.6621

*** Psi4 exiting successfully. Buy a developer a beer!
