                               Psi4 1.3.2 release

  ==> Input File <==

--------------------------------------------------------------------------
#psi4
#
memory 32 gb

molecule  {
0 1
  S        1.5510760    -1.0871590     0.0000010
  O       -1.4242190    -1.5655850    -0.0000010
  N       -2.0132560     0.6673690     0.0000000
  N        0.6809160     1.3479160    -0.0000010
  C        0.2854510     0.0833790     0.0000000
  C       -1.1339070    -0.3627170     0.0499990
  C       -3.4470980     0.4588130     0.0000010
  C        2.6913180     0.1894230     0.0000000
  C        2.0463170     1.4081830     0.0000000
  H       -1.6187540     1.6018420     0.0000010
  H       -3.9049180     0.8972840    -0.8911940
  H       -3.9049160     0.8972760     0.8912010
  H       -3.6178680    -0.6175520    -0.0000030
  H        3.7564850    -0.0027380     0.0000010
  H        2.5404020     2.3736430     0.0000000
units angstrom
no_reorient  #important for SAPT in psi4, default
symmetry c1  #important for SAPT in psi4, default
}

set PROPERTIES_ORIGIN ["COM"]
properties('MP2/aug-cc-pvtz', properties = ['dipole'])
--------------------------------------------------------------------------

    Molecular point group: c1
  Charge       = 0
  Multiplicity = 1
  Basis Set: AUG-CC-PVTZ
    Blend: AUG-CC-PVTZ
  Basis Set: (AUG-CC-PVTZ AUX)
    Blend: AUG-CC-PVTZ-JKFIT

    Orbital Energies [Eh]
    ---------------------

    Doubly Occupied:

       1A    -92.012799     2A    -20.529389     3A    -15.596997
       4A    -15.593906     5A    -11.369679     6A    -11.324687
       7A    -11.285125     8A    -11.282645     9A    -11.263723
      10A     -9.012703    11A     -6.693407    12A     -6.692878
      13A     -6.692252    14A     -1.383738    15A     -1.296073
      16A     -1.237645    17A     -1.081178    18A     -1.035797
      19A     -0.959722    20A     -0.847924    21A     -0.805013
      22A     -0.777341    23A     -0.718611    24A     -0.655521
      25A     -0.650309    26A     -0.633422    27A     -0.599467
      28A     -0.584452    29A     -0.567643    30A     -0.552029
      31A     -0.531957    32A     -0.517856    33A     -0.466374
      34A     -0.436620    35A     -0.408530    36A     -0.392413
      37A     -0.348408

  @DF-RHF Final Energy:  -774.27537072324060

   => Energetics <=

    Nuclear Repulsion Energy =            504.7849604687118017
    One-Electron Energy =               -2064.4441999968180426
    Two-Electron Energy =                 785.3838688048657559
    Total Energy =                       -774.2753707232405986
  Basis Set: (AUG-CC-PVTZ AUX)
    Blend: AUG-CC-PVTZ-RI
    Molecular point group: c1

    Geometry (in Angstrom), charge = 0, multiplicity = 1:

       Center              X                  Y                   Z               Mass
    ------------   -----------------  -----------------  -----------------  -----------------
         S            1.504205285922    -1.051495633283    -0.004223811056    31.972071174400
         O           -1.471089714078    -1.529921633283    -0.004225811056    15.994914619570
         N           -2.060126714078     0.703032366717    -0.004224811056    14.003074004430
         N            0.634045285922     1.383579366717    -0.004225811056    14.003074004430
         C            0.238580285922     0.119042366717    -0.004224811056    12.000000000000
         C           -1.180777714078    -0.327053633283     0.045774188944    12.000000000000
         C           -3.493968714078     0.494476366717    -0.004223811056    12.000000000000
         C            2.644447285922     0.225086366717    -0.004224811056    12.000000000000
         C            1.999446285922     1.443846366717    -0.004224811056    12.000000000000
         H           -1.665624714078     1.637505366717    -0.004223811056     1.007825032230
         H           -3.951788714078     0.932947366717    -0.895418811056     1.007825032230
         H           -3.951786714078     0.932939366717     0.886976188944     1.007825032230
         H           -3.664738714078    -0.581888633283    -0.004227811056     1.007825032230
         H            3.709614285922     0.032925366717    -0.004223811056     1.007825032230
         H            2.493531285922     2.409306366717    -0.004224811056     1.007825032230

  Basis Set: AUG-CC-PVTZ
    Blend: AUG-CC-PVTZ
  Basis Set: (AUG-CC-PVTZ AUX)
    Blend: AUG-CC-PVTZ-JKFIT
	 Reference Energy          =    -774.2753707232405986 [Eh]
	 Singles Energy            =      -0.0000000000000000 [Eh]
	 Same-Spin Energy          =      -0.4589155420030852 [Eh]
	 Opposite-Spin Energy      =      -1.3692428303020117 [Eh]
	 Correlation Energy        =      -1.8281583723050967 [Eh]
	 Total Energy              =    -776.1035290955456958 [Eh]

	 ================> DF-SCS-MP2 Energies <==================
	-----------------------------------------------------------
	 SCS Same-Spin Scale       =       0.3333333333333333 [-]
	 SCS Opposite-Spin Scale   =       1.2000000000000000 [-]
	 SCS Same-Spin Energy      =      -0.1529718473343617 [Eh]
	 SCS Opposite-Spin Energy  =      -1.6430913963624139 [Eh]
	 SCS Correlation Energy    =      -1.7960632436967756 [Eh]
	 SCS Total Energy          =    -776.0714339669373203 [Eh]
	-----------------------------------------------------------

  Dipole Moment: [D]
     X:     1.1200      Y:     2.4490      Z:     0.0455     Total:     2.6933

*** Psi4 exiting successfully. Buy a developer a beer!
