                               Psi4 1.3.2 release

  ==> Input File <==

--------------------------------------------------------------------------
#psi4
#
memory 32 gb

molecule  {
0 1
  S        1.5510760    -1.0871590     0.0000010
  O       -1.4242190    -1.5655850    -0.0000010
  N       -2.0132560     0.6673690     0.0000000
  N        0.6809160     1.3479160    -0.0000010
  C        0.2854510     0.0833791    -0.1500000
  C       -1.1339070    -0.3627170    -0.0000010
  C       -3.4470980     0.4588130     0.0000010
  C        2.6913180     0.1894230     0.0000000
  C        2.0463170     1.4081830     0.0000000
  H       -1.6187540     1.6018420     0.0000010
  H       -3.9049180     0.8972840    -0.8911940
  H       -3.9049160     0.8972760     0.8912010
  H       -3.6178680    -0.6175520    -0.0000030
  H        3.7564850    -0.0027380     0.0000010
  H        2.5404020     2.3736430     0.0000000
units angstrom
no_reorient  #important for SAPT in psi4, default
symmetry c1  #important for SAPT in psi4, default
}

set PROPERTIES_ORIGIN ["COM"]
properties('MP2/aug-cc-pvtz', properties = ['dipole'])
--------------------------------------------------------------------------

    Molecular point group: c1
  Charge       = 0
  Multiplicity = 1
  Basis Set: AUG-CC-PVTZ
    Blend: AUG-CC-PVTZ
  Basis Set: (AUG-CC-PVTZ AUX)
    Blend: AUG-CC-PVTZ-JKFIT

    Orbital Energies [Eh]
    ---------------------

    Doubly Occupied:

       1A    -92.013164     2A    -20.528882     3A    -15.598928
       4A    -15.593380     5A    -11.369522     6A    -11.325582
       7A    -11.285527     8A    -11.283563     9A    -11.263530
      10A     -9.012933    11A     -6.693621    12A     -6.693085
      13A     -6.692463    14A     -1.383596    15A     -1.294159
      16A     -1.237477    17A     -1.080244    18A     -1.034705
      19A     -0.959262    20A     -0.846475    21A     -0.803341
      22A     -0.777064    23A     -0.718243    24A     -0.655529
      25A     -0.650306    26A     -0.633021    27A     -0.598807
      28A     -0.584012    29A     -0.566597    30A     -0.551865
      31A     -0.530518    32A     -0.517727    33A     -0.466580
      34A     -0.436421    35A     -0.407132    36A     -0.391852
      37A     -0.348675

  @DF-RHF Final Energy:  -774.27021768012457

   => Energetics <=

    Nuclear Repulsion Energy =            504.4613901098226734
    One-Electron Energy =               -2063.8076378742066481
    Two-Electron Energy =                 785.0760300842592869
    Total Energy =                       -774.2702176801245741
  Basis Set: (AUG-CC-PVTZ AUX)
    Blend: AUG-CC-PVTZ-RI
    Molecular point group: c1

    Geometry (in Angstrom), charge = 0, multiplicity = 1:

       Center              X                  Y                   Z               Mass
    ------------   -----------------  -----------------  -----------------  -----------------
         S            1.504205285922    -1.051495641733     0.012675207255    31.972071174400
         O           -1.471089714078    -1.529921641733     0.012673207255    15.994914619570
         N           -2.060126714078     0.703032358267     0.012674207255    14.003074004430
         N            0.634045285922     1.383579358267     0.012673207255    14.003074004430
         C            0.238580285922     0.119042458267    -0.137325792745    12.000000000000
         C           -1.180777714078    -0.327053641733     0.012673207255    12.000000000000
         C           -3.493968714078     0.494476358267     0.012675207255    12.000000000000
         C            2.644447285922     0.225086358267     0.012674207255    12.000000000000
         C            1.999446285922     1.443846358267     0.012674207255    12.000000000000
         H           -1.665624714078     1.637505358267     0.012675207255     1.007825032230
         H           -3.951788714078     0.932947358267    -0.878519792745     1.007825032230
         H           -3.951786714078     0.932939358267     0.903875207255     1.007825032230
         H           -3.664738714078    -0.581888641733     0.012671207255     1.007825032230
         H            3.709614285922     0.032925358267     0.012675207255     1.007825032230
         H            2.493531285922     2.409306358267     0.012674207255     1.007825032230

  Basis Set: AUG-CC-PVTZ
    Blend: AUG-CC-PVTZ
  Basis Set: (AUG-CC-PVTZ AUX)
    Blend: AUG-CC-PVTZ-JKFIT
	 Reference Energy          =    -774.2702176801245741 [Eh]
	 Singles Energy            =      -0.0000000000000000 [Eh]
	 Same-Spin Energy          =      -0.4592658245977573 [Eh]
	 Opposite-Spin Energy      =      -1.3700747767950203 [Eh]
	 Correlation Energy        =      -1.8293406013927775 [Eh]
	 Total Energy              =    -776.0995582815173748 [Eh]

	 ================> DF-SCS-MP2 Energies <==================
	-----------------------------------------------------------
	 SCS Same-Spin Scale       =       0.3333333333333333 [-]
	 SCS Opposite-Spin Scale   =       1.2000000000000000 [-]
	 SCS Same-Spin Energy      =      -0.1530886081992524 [Eh]
	 SCS Opposite-Spin Energy  =      -1.6440897321540244 [Eh]
	 SCS Correlation Energy    =      -1.7971783403532768 [Eh]
	 SCS Total Energy          =    -776.0673960204778723 [Eh]
	-----------------------------------------------------------

  Dipole Moment: [D]
     X:     1.1479      Y:     2.4660      Z:     0.0270     Total:     2.7202

*** Psi4 exiting successfully. Buy a developer a beer!
