                               Psi4 1.3.2 release

  ==> Input File <==

--------------------------------------------------------------------------
#psi4
#
memory 32 gb

molecule  {
0 1
  S        1.5510760    -1.0871590     0.0000010
  O       -1.4242190    -1.5655850    -0.0000010
  N       -2.0132560     0.6673690     0.0000000
  N        0.6809160     1.3479160    -0.0000010
  C        0.2854510     0.0833790     0.0000000
  C       -1.1339070    -0.3627170    -0.0000010
  C       -3.4470980     0.4588130     0.0000010
  C        2.6913180     0.1894230     0.0000000
  C        2.0463170     1.4081830     0.0000000
  H       -1.6187540     1.6018420     0.0000010
  H       -3.9049180     0.8972840    -0.8911940
  H       -3.9049160     0.8972760     0.8912010
  H       -3.6178680    -0.6175520    -0.0000030
  H        3.7564850    -0.0027380     0.0000010
  H        2.5404019     2.3736430     0.2500000
units angstrom
no_reorient  #important for SAPT in psi4, default
symmetry c1  #important for SAPT in psi4, default
}

set PROPERTIES_ORIGIN ["COM"]
properties('MP2/aug-cc-pvtz', properties = ['dipole'])
--------------------------------------------------------------------------

    Molecular point group: c1
  Charge       = 0
  Multiplicity = 1
  Basis Set: AUG-CC-PVTZ
    Blend: AUG-CC-PVTZ
  Basis Set: (AUG-CC-PVTZ AUX)
    Blend: AUG-CC-PVTZ-JKFIT

    Orbital Energies [Eh]
    ---------------------

    Doubly Occupied:

       1A    -92.013231     2A    -20.529405     3A    -15.597289
       4A    -15.593957     5A    -11.369502     6A    -11.324817
       7A    -11.287337     8A    -11.283528     9A    -11.263848
      10A     -9.013139    11A     -6.693839    12A     -6.693312
      13A     -6.692685    14A     -1.384388    15A     -1.296355
      16A     -1.238085    17A     -1.081622    18A     -1.035405
      19A     -0.959608    20A     -0.847782    21A     -0.803122
      22A     -0.777297    23A     -0.718338    24A     -0.652807
      25A     -0.649772    26A     -0.633667    27A     -0.599231
      28A     -0.583409    29A     -0.568163    30A     -0.552162
      31A     -0.533062    32A     -0.515315    33A     -0.466448
      34A     -0.436885    35A     -0.408773    36A     -0.392622
      37A     -0.348372

  @DF-RHF Final Energy:  -774.27241389200765

   => Energetics <=

    Nuclear Repulsion Energy =            504.7191563682038691
    One-Electron Energy =               -2064.3059828422169630
    Two-Electron Energy =                 785.3144125820055024
    Total Energy =                       -774.2724138920076484
  Basis Set: (AUG-CC-PVTZ AUX)
    Blend: AUG-CC-PVTZ-RI
    Molecular point group: c1

    Geometry (in Angstrom), charge = 0, multiplicity = 1:

       Center              X                  Y                   Z               Mass
    ------------   -----------------  -----------------  -----------------  -----------------
         S            1.504205286632    -1.051495633283    -0.001773145403    31.972071174400
         O           -1.471089713368    -1.529921633283    -0.001775145403    15.994914619570
         N           -2.060126713368     0.703032366717    -0.001774145403    14.003074004430
         N            0.634045286632     1.383579366717    -0.001775145403    14.003074004430
         C            0.238580286632     0.119042366717    -0.001774145403    12.000000000000
         C           -1.180777713368    -0.327053633283    -0.001775145403    12.000000000000
         C           -3.493968713368     0.494476366717    -0.001773145403    12.000000000000
         C            2.644447286632     0.225086366717    -0.001774145403    12.000000000000
         C            1.999446286632     1.443846366717    -0.001774145403    12.000000000000
         H           -1.665624713368     1.637505366717    -0.001773145403     1.007825032230
         H           -3.951788713368     0.932947366717    -0.892968145403     1.007825032230
         H           -3.951786713368     0.932939366717     0.889426854597     1.007825032230
         H           -3.664738713368    -0.581888633283    -0.001777145403     1.007825032230
         H            3.709614286632     0.032925366717    -0.001773145403     1.007825032230
         H            2.493531186632     2.409306366717     0.248225854597     1.007825032230

  Basis Set: AUG-CC-PVTZ
    Blend: AUG-CC-PVTZ
  Basis Set: (AUG-CC-PVTZ AUX)
    Blend: AUG-CC-PVTZ-JKFIT
	 Reference Energy          =    -774.2724138920076484 [Eh]
	 Singles Energy            =      -0.0000000000000000 [Eh]
	 Same-Spin Energy          =      -0.4590547708110029 [Eh]
	 Opposite-Spin Energy      =      -1.3695026191670492 [Eh]
	 Correlation Energy        =      -1.8285573899780521 [Eh]
	 Total Energy              =    -776.1009712819857214 [Eh]

	 ================> DF-SCS-MP2 Energies <==================
	-----------------------------------------------------------
	 SCS Same-Spin Scale       =       0.3333333333333333 [-]
	 SCS Opposite-Spin Scale   =       1.2000000000000000 [-]
	 SCS Same-Spin Energy      =      -0.1530182569370009 [Eh]
	 SCS Opposite-Spin Energy  =      -1.6434031430004590 [Eh]
	 SCS Correlation Energy    =      -1.7964213999374599 [Eh]
	 SCS Total Energy          =    -776.0688352919451063 [Eh]
	-----------------------------------------------------------

  Dipole Moment: [D]
     X:     1.0907      Y:     2.4074      Z:     0.1812     Total:     2.6492

*** Psi4 exiting successfully. Buy a developer a beer!
