                               Psi4 1.3.2 release

  ==> Input File <==

--------------------------------------------------------------------------
#psi4
#
memory 32 gb

molecule  {
0 1
  S        1.5510760    -1.0871590     0.0000010
  O       -1.4242190    -1.5655850    -0.0000010
  N       -2.0132560     0.6673690     0.0000000
  N        0.6809160     1.3479160    -0.0000010
  C        0.2854510     0.0833790     0.0000000
  C       -1.1339070    -0.3627170    -0.0000010
  C       -3.4470980     0.4588130     0.0000010
  C        2.6913180     0.1894230     0.0000000
  C        2.0463170     1.4081830     0.0000000
  H       -1.6187540     1.6018420     0.0000010
  H       -3.9049180     0.8972840    -0.8911940
  H       -3.9049160     0.8972760     0.8912010
  H       -3.6178680    -0.6175520    -0.0000030
  H        3.7564850    -0.0027381    -0.1999990
  H        2.5404020     2.3736430     0.0000000
units angstrom
no_reorient  #important for SAPT in psi4, default
symmetry c1  #important for SAPT in psi4, default
}

set PROPERTIES_ORIGIN ["COM"]
properties('MP2/aug-cc-pvtz', properties = ['dipole'])
--------------------------------------------------------------------------

    Molecular point group: c1
  Charge       = 0
  Multiplicity = 1
  Basis Set: AUG-CC-PVTZ
    Blend: AUG-CC-PVTZ
  Basis Set: (AUG-CC-PVTZ AUX)
    Blend: AUG-CC-PVTZ-JKFIT

    Orbital Energies [Eh]
    ---------------------

    Doubly Occupied:

       1A    -92.012743     2A    -20.529381     3A    -15.597191
       4A    -15.594005     5A    -11.369487     6A    -11.324960
       7A    -11.285757     8A    -11.283773     9A    -11.263870
      10A     -9.012661    11A     -6.693364    12A     -6.692826
      13A     -6.692203    14A     -1.384363    15A     -1.296389
      16A     -1.238112    17A     -1.080838    18A     -1.036008
      19A     -0.959804    20A     -0.847984    21A     -0.803279
      22A     -0.777746    23A     -0.717123    24A     -0.655793
      25A     -0.649546    26A     -0.633742    27A     -0.599518
      28A     -0.585059    29A     -0.565437    30A     -0.552197
      31A     -0.531808    32A     -0.517846    33A     -0.466530
      34A     -0.436852    35A     -0.408597    36A     -0.392606
      37A     -0.348526

  @DF-RHF Final Energy:  -774.27430706016139

   => Energetics <=

    Nuclear Repulsion Energy =            504.7566078074030429
    One-Electron Energy =               -2064.3859833778856228
    Two-Electron Energy =                 785.3550685103211890
    Total Energy =                       -774.2743070601613908
  Basis Set: (AUG-CC-PVTZ AUX)
    Blend: AUG-CC-PVTZ-RI
    Molecular point group: c1

    Geometry (in Angstrom), charge = 0, multiplicity = 1:

       Center              X                  Y                   Z               Mass
    ------------   -----------------  -----------------  -----------------  -----------------
         S            1.504205285922    -1.051495632574     0.001420214661    31.972071174400
         O           -1.471089714078    -1.529921632574     0.001418214661    15.994914619570
         N           -2.060126714078     0.703032367426     0.001419214661    14.003074004430
         N            0.634045285922     1.383579367426     0.001418214661    14.003074004430
         C            0.238580285922     0.119042367426     0.001419214661    12.000000000000
         C           -1.180777714078    -0.327053632574     0.001418214661    12.000000000000
         C           -3.493968714078     0.494476367426     0.001420214661    12.000000000000
         C            2.644447285922     0.225086367426     0.001419214661    12.000000000000
         C            1.999446285922     1.443846367426     0.001419214661    12.000000000000
         H           -1.665624714078     1.637505367426     0.001420214661     1.007825032230
         H           -3.951788714078     0.932947367426    -0.889774785339     1.007825032230
         H           -3.951786714078     0.932939367426     0.892620214661     1.007825032230
         H           -3.664738714078    -0.581888632574     0.001416214661     1.007825032230
         H            3.709614285922     0.032925267426    -0.198579785339     1.007825032230
         H            2.493531285922     2.409306367426     0.001419214661     1.007825032230

  Basis Set: AUG-CC-PVTZ
    Blend: AUG-CC-PVTZ
  Basis Set: (AUG-CC-PVTZ AUX)
    Blend: AUG-CC-PVTZ-JKFIT
	 Reference Energy          =    -774.2743070601613908 [Eh]
	 Singles Energy            =      -0.0000000000000000 [Eh]
	 Same-Spin Energy          =      -0.4589816358382278 [Eh]
	 Opposite-Spin Energy      =      -1.3693524216581490 [Eh]
	 Correlation Energy        =      -1.8283340574963769 [Eh]
	 Total Energy              =    -776.1026411176577540 [Eh]

	 ================> DF-SCS-MP2 Energies <==================
	-----------------------------------------------------------
	 SCS Same-Spin Scale       =       0.3333333333333333 [-]
	 SCS Opposite-Spin Scale   =       1.2000000000000000 [-]
	 SCS Same-Spin Energy      =      -0.1529938786127426 [Eh]
	 SCS Opposite-Spin Energy  =      -1.6432229059897787 [Eh]
	 SCS Correlation Energy    =      -1.7962167846025214 [Eh]
	 SCS Total Energy          =    -776.0705238447638976 [Eh]
	-----------------------------------------------------------

  Dipole Moment: [D]
     X:     1.0930      Y:     2.4591      Z:    -0.1587     Total:     2.6957

*** Psi4 exiting successfully. Buy a developer a beer!
