                               Psi4 1.3.2 release

  ==> Input File <==

--------------------------------------------------------------------------
#psi4
#
memory 32 gb

molecule  {
0 1
  S        1.5510760    -1.0871590     0.0000010
  O       -1.4242190    -1.5655850    -0.0000010
  N       -2.0132560     0.6673690     0.0000000
  N        0.6809160     1.3479160    -0.0000010
  C        0.2854510     0.0833790     0.0000000
  C       -1.1339070    -0.3627170    -0.0000010
  C       -3.4470980     0.4588130     0.0000010
  C        2.6913180     0.1894230     0.0000000
  C        2.0463170     1.4081830     0.0000000
  H       -1.6187540     1.6018420     0.0000010
  H       -3.9049180     0.8972840    -0.8911940
  H       -3.9049160     0.8972760     0.8912010
  H       -3.6178680    -0.6175520    -0.0000030
  H        3.7564850    -0.0027380     0.0000010
  H        2.5404019     2.3736430     0.2000000
units angstrom
no_reorient  #important for SAPT in psi4, default
symmetry c1  #important for SAPT in psi4, default
}

set PROPERTIES_ORIGIN ["COM"]
properties('MP2/aug-cc-pvtz', properties = ['dipole'])
--------------------------------------------------------------------------

    Molecular point group: c1
  Charge       = 0
  Multiplicity = 1
  Basis Set: AUG-CC-PVTZ
    Blend: AUG-CC-PVTZ
  Basis Set: (AUG-CC-PVTZ AUX)
    Blend: AUG-CC-PVTZ-JKFIT

    Orbital Energies [Eh]
    ---------------------

    Doubly Occupied:

       1A    -92.013088     2A    -20.529327     3A    -15.597201
       4A    -15.593904     5A    -11.369434     6A    -11.324718
       7A    -11.286547     8A    -11.283231     9A    -11.263811
      10A     -9.012993    11A     -6.693695    12A     -6.693168
      13A     -6.692541    14A     -1.384315    15A     -1.296274
      16A     -1.238031    17A     -1.081471    18A     -1.035582
      19A     -0.959683    20A     -0.847866    21A     -0.803771
      22A     -0.777398    23A     -0.718441    24A     -0.653627
      25A     -0.650145    26A     -0.633644    27A     -0.599371
      28A     -0.583776    29A     -0.568039    30A     -0.552132
      31A     -0.532766    32A     -0.516220    33A     -0.466441
      34A     -0.436812    35A     -0.408713    36A     -0.392584
      37A     -0.348410

  @DF-RHF Final Energy:  -774.27398127789979

   => Energetics <=

    Nuclear Repulsion Energy =            504.7577404162351513
    One-Electron Energy =               -2064.3851076263922550
    Two-Electron Energy =                 785.3533859322571971
    Total Energy =                       -774.2739812778997930
  Basis Set: (AUG-CC-PVTZ AUX)
    Blend: AUG-CC-PVTZ-RI
    Molecular point group: c1

    Geometry (in Angstrom), charge = 0, multiplicity = 1:

       Center              X                  Y                   Z               Mass
    ------------   -----------------  -----------------  -----------------  -----------------
         S            1.504205286632    -1.051495633283    -0.001418327618    31.972071174400
         O           -1.471089713368    -1.529921633283    -0.001420327618    15.994914619570
         N           -2.060126713368     0.703032366717    -0.001419327618    14.003074004430
         N            0.634045286632     1.383579366717    -0.001420327618    14.003074004430
         C            0.238580286632     0.119042366717    -0.001419327618    12.000000000000
         C           -1.180777713368    -0.327053633283    -0.001420327618    12.000000000000
         C           -3.493968713368     0.494476366717    -0.001418327618    12.000000000000
         C            2.644447286632     0.225086366717    -0.001419327618    12.000000000000
         C            1.999446286632     1.443846366717    -0.001419327618    12.000000000000
         H           -1.665624713368     1.637505366717    -0.001418327618     1.007825032230
         H           -3.951788713368     0.932947366717    -0.892613327618     1.007825032230
         H           -3.951786713368     0.932939366717     0.889781672382     1.007825032230
         H           -3.664738713368    -0.581888633283    -0.001422327618     1.007825032230
         H            3.709614286632     0.032925366717    -0.001418327618     1.007825032230
         H            2.493531186632     2.409306366717     0.198580672382     1.007825032230

  Basis Set: AUG-CC-PVTZ
    Blend: AUG-CC-PVTZ
  Basis Set: (AUG-CC-PVTZ AUX)
    Blend: AUG-CC-PVTZ-JKFIT
	 Reference Energy          =    -774.2739812778997930 [Eh]
	 Singles Energy            =      -0.0000000000000000 [Eh]
	 Same-Spin Energy          =      -0.4589787606872313 [Eh]
	 Opposite-Spin Energy      =      -1.3693269822091176 [Eh]
	 Correlation Energy        =      -1.8283057428963490 [Eh]
	 Total Energy              =    -776.1022870207960977 [Eh]

	 ================> DF-SCS-MP2 Energies <==================
	-----------------------------------------------------------
	 SCS Same-Spin Scale       =       0.3333333333333333 [-]
	 SCS Opposite-Spin Scale   =       1.2000000000000000 [-]
	 SCS Same-Spin Energy      =      -0.1529929202290771 [Eh]
	 SCS Opposite-Spin Energy  =      -1.6431923786509410 [Eh]
	 SCS Correlation Energy    =      -1.7961852988800180 [Eh]
	 SCS Total Energy          =    -776.0701665767797977 [Eh]
	-----------------------------------------------------------

  Dipole Moment: [D]
     X:     1.1021      Y:     2.4227      Z:     0.1457     Total:     2.6656

*** Psi4 exiting successfully. Buy a developer a beer!
