                               Psi4 1.3.2 release

  ==> Input File <==

--------------------------------------------------------------------------
#psi4
#
memory 32 gb

molecule  {
0 1
  S        1.5510760    -1.0871590     0.0000010
  O       -1.4242190    -1.5655850    -0.0000010
  N       -2.0132560     0.6673690     0.0000000
  N        0.6809160     1.3479160    -0.0000010
  C        0.2854510     0.0833791    -0.3000000
  C       -1.1339070    -0.3627170    -0.0000010
  C       -3.4470980     0.4588130     0.0000010
  C        2.6913180     0.1894230     0.0000000
  C        2.0463170     1.4081830     0.0000000
  H       -1.6187540     1.6018420     0.0000010
  H       -3.9049180     0.8972840    -0.8911940
  H       -3.9049160     0.8972760     0.8912010
  H       -3.6178680    -0.6175520    -0.0000030
  H        3.7564850    -0.0027380     0.0000010
  H        2.5404020     2.3736430     0.0000000
units angstrom
no_reorient  #important for SAPT in psi4, default
symmetry c1  #important for SAPT in psi4, default
}

set PROPERTIES_ORIGIN ["COM"]
properties('MP2/aug-cc-pvtz', properties = ['dipole'])
--------------------------------------------------------------------------

    Molecular point group: c1
  Charge       = 0
  Multiplicity = 1
  Basis Set: AUG-CC-PVTZ
    Blend: AUG-CC-PVTZ
  Basis Set: (AUG-CC-PVTZ AUX)
    Blend: AUG-CC-PVTZ-JKFIT

    Orbital Energies [Eh]
    ---------------------

    Doubly Occupied:

       1A    -92.014080     2A    -20.528008     3A    -15.604333
       4A    -15.592135     5A    -11.369969     6A    -11.328293
       7A    -11.287371     8A    -11.285910     9A    -11.262889
      10A     -9.013460    11A     -6.694097    12A     -6.693541
      13A     -6.692939    14A     -1.381880    15A     -1.288545
      16A     -1.236139    17A     -1.077721    18A     -1.031071
      19A     -0.957642    20A     -0.842157    21A     -0.798641
      22A     -0.775500    23A     -0.717063    24A     -0.655466
      25A     -0.649776    26A     -0.631489    27A     -0.596383
      28A     -0.582699    29A     -0.563274    30A     -0.551188
      31A     -0.526127    32A     -0.516933    33A     -0.466978
      34A     -0.435150    35A     -0.403384    36A     -0.389749
      37A     -0.349407

  @DF-RHF Final Energy:  -774.25110044031589

   => Energetics <=

    Nuclear Repulsion Energy =            503.3883121131733560
    One-Electron Energy =               -2061.6960532299881379
    Two-Electron Energy =                 784.0566406764987732
    Total Energy =                       -774.2511004403158950
  Basis Set: (AUG-CC-PVTZ AUX)
    Blend: AUG-CC-PVTZ-RI
    Molecular point group: c1

    Geometry (in Angstrom), charge = 0, multiplicity = 1:

       Center              X                  Y                   Z               Mass
    ------------   -----------------  -----------------  -----------------  -----------------
         S            1.504205285922    -1.051495641733     0.025349470989    31.972071174400
         O           -1.471089714078    -1.529921641733     0.025347470989    15.994914619570
         N           -2.060126714078     0.703032358267     0.025348470989    14.003074004430
         N            0.634045285922     1.383579358267     0.025347470989    14.003074004430
         C            0.238580285922     0.119042458267    -0.274651529011    12.000000000000
         C           -1.180777714078    -0.327053641733     0.025347470989    12.000000000000
         C           -3.493968714078     0.494476358267     0.025349470989    12.000000000000
         C            2.644447285922     0.225086358267     0.025348470989    12.000000000000
         C            1.999446285922     1.443846358267     0.025348470989    12.000000000000
         H           -1.665624714078     1.637505358267     0.025349470989     1.007825032230
         H           -3.951788714078     0.932947358267    -0.865845529011     1.007825032230
         H           -3.951786714078     0.932939358267     0.916549470989     1.007825032230
         H           -3.664738714078    -0.581888641733     0.025345470989     1.007825032230
         H            3.709614285922     0.032925358267     0.025349470989     1.007825032230
         H            2.493531285922     2.409306358267     0.025348470989     1.007825032230

  Basis Set: AUG-CC-PVTZ
    Blend: AUG-CC-PVTZ
  Basis Set: (AUG-CC-PVTZ AUX)
    Blend: AUG-CC-PVTZ-JKFIT
	 Reference Energy          =    -774.2511004403158950 [Eh]
	 Singles Energy            =      -0.0000000000000000 [Eh]
	 Same-Spin Energy          =      -0.4605441579922334 [Eh]
	 Opposite-Spin Energy      =      -1.3732496945140098 [Eh]
	 Correlation Energy        =      -1.8337938525062432 [Eh]
	 Total Energy              =    -776.0848942928221277 [Eh]

	 ================> DF-SCS-MP2 Energies <==================
	-----------------------------------------------------------
	 SCS Same-Spin Scale       =       0.3333333333333333 [-]
	 SCS Opposite-Spin Scale   =       1.2000000000000000 [-]
	 SCS Same-Spin Energy      =      -0.1535147193307445 [Eh]
	 SCS Opposite-Spin Energy  =      -1.6478996334168117 [Eh]
	 SCS Correlation Energy    =      -1.8014143527475561 [Eh]
	 SCS Total Energy          =    -776.0525147930634375 [Eh]
	-----------------------------------------------------------

  Dipole Moment: [D]
     X:     1.2155      Y:     2.5093      Z:     0.0644     Total:     2.7889

*** Psi4 exiting successfully. Buy a developer a beer!
