                               Psi4 1.3.2 release

  ==> Input File <==

--------------------------------------------------------------------------
#psi4
#
memory 32 gb

molecule  {
0 1
  S        1.5510760    -1.0871590     0.0000010
  O       -1.4242190    -1.5655850    -0.0000010
  N       -2.0132560     0.6673690     0.0000000
  N        0.6809160     1.3479160    -0.0000010
  C        0.2854510     0.0833790     0.0000000
  C       -1.1339070    -0.3627170    -0.0000010
  C       -3.4470980     0.4588130     0.0000010
  C        2.6913180     0.1894230     0.0000000
  C        2.0463170     1.4081830     0.0000000
  H       -1.6187540     1.6018420     0.0000010
  H       -3.9049180     0.8972840    -0.8911940
  H       -3.9049160     0.8972760     0.8912010
  H       -3.6178680    -0.6175520    -0.0000030
  H        3.7564851    -0.0027381    -0.2499990
  H        2.5404020     2.3736430     0.0000000
units angstrom
no_reorient  #important for SAPT in psi4, default
symmetry c1  #important for SAPT in psi4, default
}

set PROPERTIES_ORIGIN ["COM"]
properties('MP2/aug-cc-pvtz', properties = ['dipole'])
--------------------------------------------------------------------------

    Molecular point group: c1
  Charge       = 0
  Multiplicity = 1
  Basis Set: AUG-CC-PVTZ
    Blend: AUG-CC-PVTZ
  Basis Set: (AUG-CC-PVTZ AUX)
    Blend: AUG-CC-PVTZ-JKFIT

    Orbital Energies [Eh]
    ---------------------

    Doubly Occupied:

       1A    -92.012701     2A    -20.529488     3A    -15.597271
       4A    -15.594112     5A    -11.369582     6A    -11.325189
       7A    -11.286117     8A    -11.284361     9A    -11.263940
      10A     -9.012628    11A     -6.693330    12A     -6.692786
      13A     -6.692166    14A     -1.384462    15A     -1.296531
      16A     -1.238210    17A     -1.080648    18A     -1.036055
      19A     -0.959794    20A     -0.847962    21A     -0.802371
      22A     -0.777839    23A     -0.716302    24A     -0.655907
      25A     -0.649072    26A     -0.633822    27A     -0.599467
      28A     -0.585357    29A     -0.564159    30A     -0.552259
      31A     -0.531593    32A     -0.517824    33A     -0.466592
      34A     -0.436947    35A     -0.408594    36A     -0.392655
      37A     -0.348552

  @DF-RHF Final Energy:  -774.27291220898815

   => Energetics <=

    Nuclear Repulsion Energy =            504.7173938600517999
    One-Electron Energy =               -2064.3073167832335457
    Two-Electron Energy =                 785.3170107141936569
    Total Energy =                       -774.2729122089881457
  Basis Set: (AUG-CC-PVTZ AUX)
    Blend: AUG-CC-PVTZ-RI
    Molecular point group: c1

    Geometry (in Angstrom), charge = 0, multiplicity = 1:

       Center              X                  Y                   Z               Mass
    ------------   -----------------  -----------------  -----------------  -----------------
         S            1.504205285212    -1.051495632574     0.001775032446    31.972071174400
         O           -1.471089714788    -1.529921632574     0.001773032446    15.994914619570
         N           -2.060126714788     0.703032367426     0.001774032446    14.003074004430
         N            0.634045285212     1.383579367426     0.001773032446    14.003074004430
         C            0.238580285212     0.119042367426     0.001774032446    12.000000000000
         C           -1.180777714788    -0.327053632574     0.001773032446    12.000000000000
         C           -3.493968714788     0.494476367426     0.001775032446    12.000000000000
         C            2.644447285212     0.225086367426     0.001774032446    12.000000000000
         C            1.999446285212     1.443846367426     0.001774032446    12.000000000000
         H           -1.665624714788     1.637505367426     0.001775032446     1.007825032230
         H           -3.951788714788     0.932947367426    -0.889419967554     1.007825032230
         H           -3.951786714788     0.932939367426     0.892975032446     1.007825032230
         H           -3.664738714788    -0.581888632574     0.001771032446     1.007825032230
         H            3.709614385212     0.032925267426    -0.248224967554     1.007825032230
         H            2.493531285212     2.409306367426     0.001774032446     1.007825032230

  Basis Set: AUG-CC-PVTZ
    Blend: AUG-CC-PVTZ
  Basis Set: (AUG-CC-PVTZ AUX)
    Blend: AUG-CC-PVTZ-JKFIT
	 Reference Energy          =    -774.2729122089881457 [Eh]
	 Singles Energy            =      -0.0000000000000000 [Eh]
	 Same-Spin Energy          =      -0.4590594666303585 [Eh]
	 Opposite-Spin Energy      =      -1.3695217831687949 [Eh]
	 Correlation Energy        =      -1.8285812497991534 [Eh]
	 Total Energy              =    -776.1014934587873313 [Eh]

	 ================> DF-SCS-MP2 Energies <==================
	-----------------------------------------------------------
	 SCS Same-Spin Scale       =       0.3333333333333333 [-]
	 SCS Opposite-Spin Scale   =       1.2000000000000000 [-]
	 SCS Same-Spin Energy      =      -0.1530198222101195 [Eh]
	 SCS Opposite-Spin Energy  =      -1.6434261398025538 [Eh]
	 SCS Correlation Energy    =      -1.7964459620126734 [Eh]
	 SCS Total Energy          =    -776.0693581710007720 [Eh]
	-----------------------------------------------------------

  Dipole Moment: [D]
     X:     1.0767      Y:     2.4637      Z:    -0.1976     Total:     2.6960

*** Psi4 exiting successfully. Buy a developer a beer!
