                               Psi4 1.3.2 release

  ==> Input File <==

--------------------------------------------------------------------------
#psi4
#
memory 32 gb

molecule  {
0 1
  S        1.5510760    -1.0871590     0.0000010
  O       -1.4242190    -1.5655850    -0.0000010
  N       -2.0132560     0.6673690     0.0000000
  N        0.6809160     1.3479160    -0.0000010
  C        0.2854510     0.0833790     0.0000000
  C       -1.1339071    -0.3627169     0.1499990
  C       -3.4470980     0.4588130     0.0000010
  C        2.6913180     0.1894230     0.0000000
  C        2.0463170     1.4081830     0.0000000
  H       -1.6187540     1.6018420     0.0000010
  H       -3.9049180     0.8972840    -0.8911940
  H       -3.9049160     0.8972760     0.8912010
  H       -3.6178680    -0.6175520    -0.0000030
  H        3.7564850    -0.0027380     0.0000010
  H        2.5404020     2.3736430     0.0000000
units angstrom
no_reorient  #important for SAPT in psi4, default
symmetry c1  #important for SAPT in psi4, default
}

set PROPERTIES_ORIGIN ["COM"]
properties('MP2/aug-cc-pvtz', properties = ['dipole'])
--------------------------------------------------------------------------

    Molecular point group: c1
  Charge       = 0
  Multiplicity = 1
  Basis Set: AUG-CC-PVTZ
    Blend: AUG-CC-PVTZ
  Basis Set: (AUG-CC-PVTZ AUX)
    Blend: AUG-CC-PVTZ-JKFIT

    Orbital Energies [Eh]
    ---------------------

    Doubly Occupied:

       1A    -92.012530     2A    -20.530998     3A    -15.596590
       4A    -15.594662     5A    -11.372521     6A    -11.325807
       7A    -11.285054     8A    -11.282411     9A    -11.263552
      10A     -9.012462    11A     -6.693168    12A     -6.692635
      13A     -6.692005    14A     -1.380212    15A     -1.295614
      16A     -1.235366    17A     -1.080996    18A     -1.034761
      19A     -0.958846    20A     -0.846914    21A     -0.804839
      22A     -0.775458    23A     -0.718256    24A     -0.655003
      25A     -0.649470    26A     -0.632050    27A     -0.598483
      28A     -0.584597    29A     -0.566276    30A     -0.551614
      31A     -0.530361    32A     -0.517644    33A     -0.466035
      34A     -0.436143    35A     -0.407949    36A     -0.391567
      37A     -0.347807

  @DF-RHF Final Energy:  -774.26588564635176

   => Energetics <=

    Nuclear Repulsion Energy =            504.4407164805099910
    One-Electron Energy =               -2063.7718901086677761
    Two-Electron Energy =                 785.0652879818060228
    Total Energy =                       -774.2658856463517623
  Basis Set: (AUG-CC-PVTZ AUX)
    Blend: AUG-CC-PVTZ-RI
    Molecular point group: c1

    Geometry (in Angstrom), charge = 0, multiplicity = 1:

       Center              X                  Y                   Z               Mass
    ------------   -----------------  -----------------  -----------------  -----------------
         S            1.504205294372    -1.051495641733    -0.012673320212    31.972071174400
         O           -1.471089705628    -1.529921641733    -0.012675320212    15.994914619570
         N           -2.060126705628     0.703032358267    -0.012674320212    14.003074004430
         N            0.634045294372     1.383579358267    -0.012675320212    14.003074004430
         C            0.238580294372     0.119042358267    -0.012674320212    12.000000000000
         C           -1.180777805628    -0.327053541733     0.137324679788    12.000000000000
         C           -3.493968705628     0.494476358267    -0.012673320212    12.000000000000
         C            2.644447294372     0.225086358267    -0.012674320212    12.000000000000
         C            1.999446294372     1.443846358267    -0.012674320212    12.000000000000
         H           -1.665624705628     1.637505358267    -0.012673320212     1.007825032230
         H           -3.951788705628     0.932947358267    -0.903868320212     1.007825032230
         H           -3.951786705628     0.932939358267     0.878526679788     1.007825032230
         H           -3.664738705628    -0.581888641733    -0.012677320212     1.007825032230
         H            3.709614294372     0.032925358267    -0.012673320212     1.007825032230
         H            2.493531294372     2.409306358267    -0.012674320212     1.007825032230

  Basis Set: AUG-CC-PVTZ
    Blend: AUG-CC-PVTZ
  Basis Set: (AUG-CC-PVTZ AUX)
    Blend: AUG-CC-PVTZ-JKFIT
	 Reference Energy          =    -774.2658856463517623 [Eh]
	 Singles Energy            =      -0.0000000000000000 [Eh]
	 Same-Spin Energy          =      -0.4594978710039860 [Eh]
	 Opposite-Spin Energy      =      -1.3707218216662325 [Eh]
	 Correlation Energy        =      -1.8302196926702186 [Eh]
	 Total Energy              =    -776.0961053390219604 [Eh]

	 ================> DF-SCS-MP2 Energies <==================
	-----------------------------------------------------------
	 SCS Same-Spin Scale       =       0.3333333333333333 [-]
	 SCS Opposite-Spin Scale   =       1.2000000000000000 [-]
	 SCS Same-Spin Energy      =      -0.1531659570013287 [Eh]
	 SCS Opposite-Spin Energy  =      -1.6448661859994789 [Eh]
	 SCS Correlation Energy    =      -1.7980321430008075 [Eh]
	 SCS Total Energy          =    -776.0639177893525584 [Eh]
	-----------------------------------------------------------

  Dipole Moment: [D]
     X:     1.0978      Y:     2.4377      Z:     0.1328     Total:     2.6768

*** Psi4 exiting successfully. Buy a developer a beer!
