                               Psi4 1.3.2 release

  ==> Input File <==

--------------------------------------------------------------------------
#psi4
#
memory 32 gb

molecule  {
0 1
  S        1.5510760    -1.0871590     0.0000010
  O       -1.4242190    -1.5655850    -0.0000010
  N       -2.0132560     0.6673690     0.0000000
  N        0.6809160     1.3479160    -0.0000010
  C        0.2854510     0.0833791    -0.2500000
  C       -1.1339070    -0.3627170    -0.0000010
  C       -3.4470980     0.4588130     0.0000010
  C        2.6913180     0.1894230     0.0000000
  C        2.0463170     1.4081830     0.0000000
  H       -1.6187540     1.6018420     0.0000010
  H       -3.9049180     0.8972840    -0.8911940
  H       -3.9049160     0.8972760     0.8912010
  H       -3.6178680    -0.6175520    -0.0000030
  H        3.7564850    -0.0027380     0.0000010
  H        2.5404020     2.3736430     0.0000000
units angstrom
no_reorient  #important for SAPT in psi4, default
symmetry c1  #important for SAPT in psi4, default
}

set PROPERTIES_ORIGIN ["COM"]
properties('MP2/aug-cc-pvtz', properties = ['dipole'])
--------------------------------------------------------------------------

    Molecular point group: c1
  Charge       = 0
  Multiplicity = 1
  Basis Set: AUG-CC-PVTZ
    Blend: AUG-CC-PVTZ
  Basis Set: (AUG-CC-PVTZ AUX)
    Blend: AUG-CC-PVTZ-JKFIT

    Orbital Energies [Eh]
    ---------------------

    Doubly Occupied:

       1A    -92.013727     2A    -20.528357     3A    -15.602174
       4A    -15.592635     5A    -11.369819     6A    -11.327257
       7A    -11.286443     8A    -11.285074     9A    -11.263150
      10A     -9.013261    11A     -6.693919    12A     -6.693371
      13A     -6.692760    14A     -1.382572    15A     -1.290779
      16A     -1.236678    17A     -1.078690    18A     -1.032546
      19A     -0.958287    20A     -0.843844    21A     -0.800485
      22A     -0.776141    23A     -0.717533    24A     -0.655471
      25A     -0.650030    26A     -0.632082    27A     -0.597383
      28A     -0.583241    29A     -0.564573    30A     -0.551469
      31A     -0.527802    32A     -0.517335    33A     -0.466836
      34A     -0.435743    35A     -0.404805    36A     -0.390624
      37A     -0.349083

  @DF-RHF Final Energy:  -774.25890087402911

   => Energetics <=

    Nuclear Repulsion Energy =            503.8205714753676148
    One-Electron Energy =               -2062.5469850138115362
    Two-Electron Energy =                 784.4675126644148122
    Total Energy =                       -774.2589008740291092
  Basis Set: (AUG-CC-PVTZ AUX)
    Blend: AUG-CC-PVTZ-RI
    Molecular point group: c1

    Geometry (in Angstrom), charge = 0, multiplicity = 1:

       Center              X                  Y                   Z               Mass
    ------------   -----------------  -----------------  -----------------  -----------------
         S            1.504205285922    -1.051495641733     0.021124716411    31.972071174400
         O           -1.471089714078    -1.529921641733     0.021122716411    15.994914619570
         N           -2.060126714078     0.703032358267     0.021123716411    14.003074004430
         N            0.634045285922     1.383579358267     0.021122716411    14.003074004430
         C            0.238580285922     0.119042458267    -0.228876283589    12.000000000000
         C           -1.180777714078    -0.327053641733     0.021122716411    12.000000000000
         C           -3.493968714078     0.494476358267     0.021124716411    12.000000000000
         C            2.644447285922     0.225086358267     0.021123716411    12.000000000000
         C            1.999446285922     1.443846358267     0.021123716411    12.000000000000
         H           -1.665624714078     1.637505358267     0.021124716411     1.007825032230
         H           -3.951788714078     0.932947358267    -0.870070283589     1.007825032230
         H           -3.951786714078     0.932939358267     0.912324716411     1.007825032230
         H           -3.664738714078    -0.581888641733     0.021120716411     1.007825032230
         H            3.709614285922     0.032925358267     0.021124716411     1.007825032230
         H            2.493531285922     2.409306358267     0.021123716411     1.007825032230

  Basis Set: AUG-CC-PVTZ
    Blend: AUG-CC-PVTZ
  Basis Set: (AUG-CC-PVTZ AUX)
    Blend: AUG-CC-PVTZ-JKFIT
	 Reference Energy          =    -774.2589008740291092 [Eh]
	 Singles Energy            =      -0.0000000000000000 [Eh]
	 Same-Spin Energy          =      -0.4600245398920564 [Eh]
	 Opposite-Spin Energy      =      -1.3719505437011867 [Eh]
	 Correlation Energy        =      -1.8319750835932431 [Eh]
	 Total Energy              =    -776.0908759576223019 [Eh]

	 ================> DF-SCS-MP2 Energies <==================
	-----------------------------------------------------------
	 SCS Same-Spin Scale       =       0.3333333333333333 [-]
	 SCS Opposite-Spin Scale   =       1.2000000000000000 [-]
	 SCS Same-Spin Energy      =      -0.1533415132973521 [Eh]
	 SCS Opposite-Spin Energy  =      -1.6463406524414241 [Eh]
	 SCS Correlation Energy    =      -1.7996821657387763 [Eh]
	 SCS Total Energy          =    -776.0585830397678819 [Eh]
	-----------------------------------------------------------

  Dipole Moment: [D]
     X:     1.1896      Y:     2.4923      Z:     0.0504     Total:     2.7621

*** Psi4 exiting successfully. Buy a developer a beer!
