                               Psi4 1.3.2 release

  ==> Input File <==

--------------------------------------------------------------------------
#psi4
#
memory 32 gb

molecule  {
0 1
  S        1.5510760    -1.0871590     0.0000010
  O       -1.4242190    -1.5655850    -0.0000010
  N       -2.0132560     0.6673690     0.0000000
  N        0.6809160     1.3479160    -0.0000010
  C        0.2854510     0.0833790     0.0000000
  C       -1.1339070    -0.3627170    -0.0000010
  C       -3.4470980     0.4588130     0.0000010
  C        2.6913180     0.1894230     0.0000000
  C        2.0463170     1.4081830     0.0000000
  H       -1.6187540     1.6018420     0.0000010
  H       -3.9049180     0.8972840    -0.8911940
  H       -3.9049160     0.8972760     0.8912010
  H       -3.6178680    -0.6175520    -0.0000030
  H        3.7564850    -0.0027380    -0.0499990
  H        2.5404020     2.3736430     0.0000000
units angstrom
no_reorient  #important for SAPT in psi4, default
symmetry c1  #important for SAPT in psi4, default
}

set PROPERTIES_ORIGIN ["COM"]
properties('MP2/aug-cc-pvtz', properties = ['dipole'])
--------------------------------------------------------------------------

    Molecular point group: c1
  Charge       = 0
  Multiplicity = 1
  Basis Set: AUG-CC-PVTZ
    Blend: AUG-CC-PVTZ
  Basis Set: (AUG-CC-PVTZ AUX)
    Blend: AUG-CC-PVTZ-JKFIT

    Orbital Energies [Eh]
    ---------------------

    Doubly Occupied:

       1A    -92.012827     2A    -20.529200     3A    -15.597058
       4A    -15.593823     5A    -11.369326     6A    -11.324571
       7A    -11.285172     8A    -11.282745     9A    -11.263752
      10A     -9.012728    11A     -6.693433    12A     -6.692904
      13A     -6.692277    14A     -1.384195    15A     -1.296148
      16A     -1.237946    17A     -1.081177    18A     -1.035933
      19A     -0.959830    20A     -0.848048    21A     -0.804920
      22A     -0.777589    23A     -0.718557    24A     -0.655609
      25A     -0.650348    26A     -0.633607    27A     -0.599586
      28A     -0.584474    29A     -0.567663    30A     -0.552087
      31A     -0.532140    32A     -0.517881    33A     -0.466425
      34A     -0.436693    35A     -0.408607    36A     -0.392523
      37A     -0.348487

  @DF-RHF Final Energy:  -774.27642249223697

   => Energetics <=

    Nuclear Repulsion Energy =            504.8237854881745079
    One-Electron Energy =               -2064.5198361242423744
    Two-Electron Energy =                 785.4196281438308915
    Total Energy =                       -774.2764224922369749
  Basis Set: (AUG-CC-PVTZ AUX)
    Blend: AUG-CC-PVTZ-RI
    Molecular point group: c1

    Geometry (in Angstrom), charge = 0, multiplicity = 1:

       Center              X                  Y                   Z               Mass
    ------------   -----------------  -----------------  -----------------  -----------------
         S            1.504205285922    -1.051495633283     0.000355761307    31.972071174400
         O           -1.471089714078    -1.529921633283     0.000353761307    15.994914619570
         N           -2.060126714078     0.703032366717     0.000354761307    14.003074004430
         N            0.634045285922     1.383579366717     0.000353761307    14.003074004430
         C            0.238580285922     0.119042366717     0.000354761307    12.000000000000
         C           -1.180777714078    -0.327053633283     0.000353761307    12.000000000000
         C           -3.493968714078     0.494476366717     0.000355761307    12.000000000000
         C            2.644447285922     0.225086366717     0.000354761307    12.000000000000
         C            1.999446285922     1.443846366717     0.000354761307    12.000000000000
         H           -1.665624714078     1.637505366717     0.000355761307     1.007825032230
         H           -3.951788714078     0.932947366717    -0.890839238693     1.007825032230
         H           -3.951786714078     0.932939366717     0.891555761307     1.007825032230
         H           -3.664738714078    -0.581888633283     0.000351761307     1.007825032230
         H            3.709614285922     0.032925366717    -0.049644238693     1.007825032230
         H            2.493531285922     2.409306366717     0.000354761307     1.007825032230

  Basis Set: AUG-CC-PVTZ
    Blend: AUG-CC-PVTZ
  Basis Set: (AUG-CC-PVTZ AUX)
    Blend: AUG-CC-PVTZ-JKFIT
	 Reference Energy          =    -774.2764224922369749 [Eh]
	 Singles Energy            =      -0.0000000000000000 [Eh]
	 Same-Spin Energy          =      -0.4588513571126054 [Eh]
	 Opposite-Spin Energy      =      -1.3690867487400751 [Eh]
	 Correlation Energy        =      -1.8279381058526805 [Eh]
	 Total Energy              =    -776.1043605980896700 [Eh]

	 ================> DF-SCS-MP2 Energies <==================
	-----------------------------------------------------------
	 SCS Same-Spin Scale       =       0.3333333333333333 [-]
	 SCS Opposite-Spin Scale   =       1.2000000000000000 [-]
	 SCS Same-Spin Energy      =      -0.1529504523708685 [Eh]
	 SCS Opposite-Spin Energy  =      -1.6429040984880900 [Eh]
	 SCS Correlation Energy    =      -1.7958545508589585 [Eh]
	 SCS Total Energy          =    -776.0722770430959372 [Eh]
	-----------------------------------------------------------

  Dipole Moment: [D]
     X:     1.1208      Y:     2.4509      Z:    -0.0400     Total:     2.6954

*** Psi4 exiting successfully. Buy a developer a beer!
