                               Psi4 1.3.2 release

  ==> Input File <==

--------------------------------------------------------------------------
#psi4
#
memory 32 gb

molecule  {
0 1
  S        1.5510760    -1.0871590     0.0000010
  O       -1.4242190    -1.5655850    -0.0000010
  N       -2.0132560     0.6673690     0.0000000
  N        0.6809160     1.3479160    -0.0000010
  C        0.2854510     0.0833790     0.0000000
  C       -1.1339070    -0.3627170    -0.0000010
  C       -3.4470980     0.4588130     0.0000010
  C        2.6913180     0.1894230     0.0000000
  C        2.0463170     1.4081830     0.0000000
  H       -1.6187540     1.6018420     0.0000010
  H       -3.9049180     0.8972840    -0.8911940
  H       -3.9049160     0.8972760     0.8912010
  H       -3.6178680    -0.6175520    -0.0000030
  H        3.7564850    -0.0027380     0.0000010
  H        2.5404019     2.3736430     0.1000000
units angstrom
no_reorient  #important for SAPT in psi4, default
symmetry c1  #important for SAPT in psi4, default
}

set PROPERTIES_ORIGIN ["COM"]
properties('MP2/aug-cc-pvtz', properties = ['dipole'])
--------------------------------------------------------------------------

    Molecular point group: c1
  Charge       = 0
  Multiplicity = 1
  Basis Set: AUG-CC-PVTZ
    Blend: AUG-CC-PVTZ
  Basis Set: (AUG-CC-PVTZ AUX)
    Blend: AUG-CC-PVTZ-JKFIT

    Orbital Energies [Eh]
    ---------------------

    Doubly Occupied:

       1A    -92.012897     2A    -20.529223     3A    -15.597086
       4A    -15.593834     5A    -11.369345     6A    -11.324588
       7A    -11.285487     8A    -11.282818     9A    -11.263761
      10A     -9.012798    11A     -6.693502    12A     -6.692974
      13A     -6.692348    14A     -1.384217    15A     -1.296167
      16A     -1.237958    17A     -1.081268    18A     -1.035838
      19A     -0.959793    20A     -0.848002    21A     -0.804706
      22A     -0.777533    23A     -0.718598    24A     -0.655062
      25A     -0.650368    26A     -0.633610    27A     -0.599539
      28A     -0.584266    29A     -0.567872    30A     -0.552093
      31A     -0.532324    32A     -0.517459    33A     -0.466425
      34A     -0.436714    35A     -0.408634    36A     -0.392534
      37A     -0.348464

  @DF-RHF Final Energy:  -774.27593814195393

   => Energetics <=

    Nuclear Repulsion Energy =            504.8104464309790842
    One-Electron Energy =               -2064.4925591931241797
    Two-Electron Energy =                 785.4061746201912229
    Total Energy =                       -774.2759381419539295
  Basis Set: (AUG-CC-PVTZ AUX)
    Blend: AUG-CC-PVTZ-RI
    Molecular point group: c1

    Geometry (in Angstrom), charge = 0, multiplicity = 1:

       Center              X                  Y                   Z               Mass
    ------------   -----------------  -----------------  -----------------  -----------------
         S            1.504205286632    -1.051495633283    -0.000708692048    31.972071174400
         O           -1.471089713368    -1.529921633283    -0.000710692048    15.994914619570
         N           -2.060126713368     0.703032366717    -0.000709692048    14.003074004430
         N            0.634045286632     1.383579366717    -0.000710692048    14.003074004430
         C            0.238580286632     0.119042366717    -0.000709692048    12.000000000000
         C           -1.180777713368    -0.327053633283    -0.000710692048    12.000000000000
         C           -3.493968713368     0.494476366717    -0.000708692048    12.000000000000
         C            2.644447286632     0.225086366717    -0.000709692048    12.000000000000
         C            1.999446286632     1.443846366717    -0.000709692048    12.000000000000
         H           -1.665624713368     1.637505366717    -0.000708692048     1.007825032230
         H           -3.951788713368     0.932947366717    -0.891903692048     1.007825032230
         H           -3.951786713368     0.932939366717     0.890491307952     1.007825032230
         H           -3.664738713368    -0.581888633283    -0.000712692048     1.007825032230
         H            3.709614286632     0.032925366717    -0.000708692048     1.007825032230
         H            2.493531186632     2.409306366717     0.099290307952     1.007825032230

  Basis Set: AUG-CC-PVTZ
    Blend: AUG-CC-PVTZ
  Basis Set: (AUG-CC-PVTZ AUX)
    Blend: AUG-CC-PVTZ-JKFIT
	 Reference Energy          =    -774.2759381419539295 [Eh]
	 Singles Energy            =      -0.0000000000000000 [Eh]
	 Same-Spin Energy          =      -0.4588767070303359 [Eh]
	 Opposite-Spin Energy      =      -1.3691235319414672 [Eh]
	 Correlation Energy        =      -1.8280002389718031 [Eh]
	 Total Energy              =    -776.1039383809256833 [Eh]

	 ================> DF-SCS-MP2 Energies <==================
	-----------------------------------------------------------
	 SCS Same-Spin Scale       =       0.3333333333333333 [-]
	 SCS Opposite-Spin Scale   =       1.2000000000000000 [-]
	 SCS Same-Spin Energy      =      -0.1529589023434453 [Eh]
	 SCS Opposite-Spin Energy  =      -1.6429482383297607 [Eh]
	 SCS Correlation Energy    =      -1.7959071406732059 [Eh]
	 SCS Total Energy          =    -776.0718452826271232 [Eh]
	-----------------------------------------------------------

  Dipole Moment: [D]
     X:     1.1175      Y:     2.4434      Z:     0.0733     Total:     2.6878

*** Psi4 exiting successfully. Buy a developer a beer!
