                               Psi4 1.3.2 release

  ==> Input File <==

--------------------------------------------------------------------------
#psi4
#
memory 32 gb

molecule  {
0 1
  S        1.5510760    -1.0871590     0.0000010
  O       -1.4242190    -1.5655850    -0.0000010
  N       -2.0132560     0.6673690     0.0000000
  N        0.6809160     1.3479160    -0.0000010
  C        0.2854510     0.0833790     0.0000000
  C       -1.1339071    -0.3627168     0.2499990
  C       -3.4470980     0.4588130     0.0000010
  C        2.6913180     0.1894230     0.0000000
  C        2.0463170     1.4081830     0.0000000
  H       -1.6187540     1.6018420     0.0000010
  H       -3.9049180     0.8972840    -0.8911940
  H       -3.9049160     0.8972760     0.8912010
  H       -3.6178680    -0.6175520    -0.0000030
  H        3.7564850    -0.0027380     0.0000010
  H        2.5404020     2.3736430     0.0000000
units angstrom
no_reorient  #important for SAPT in psi4, default
symmetry c1  #important for SAPT in psi4, default
}

set PROPERTIES_ORIGIN ["COM"]
properties('MP2/aug-cc-pvtz', properties = ['dipole'])
--------------------------------------------------------------------------

    Molecular point group: c1
  Charge       = 0
  Multiplicity = 1
  Basis Set: AUG-CC-PVTZ
    Blend: AUG-CC-PVTZ
  Basis Set: (AUG-CC-PVTZ AUX)
    Blend: AUG-CC-PVTZ-JKFIT

    Orbital Energies [Eh]
    ---------------------

    Doubly Occupied:

       1A    -92.012017     2A    -20.534228     3A    -15.596110
       4A    -15.595805     5A    -11.377854     6A    -11.327979
       7A    -11.284920     8A    -11.281952     9A    -11.263225
      10A     -9.011996    11A     -6.692704    12A     -6.692165
      13A     -6.691529    14A     -1.373372    15A     -1.294735
      16A     -1.231000    17A     -1.080641    18A     -1.032766
      19A     -0.957114    20A     -0.845024    21A     -0.804501
      22A     -0.771769    23A     -0.717526    24A     -0.654353
      25A     -0.647433    26A     -0.629513    27A     -0.596502
      28A     -0.584766    29A     -0.563627    30A     -0.550726
      31A     -0.527342    32A     -0.517217    33A     -0.465420
      34A     -0.435293    35A     -0.406944    36A     -0.389854
      37A     -0.346649

  @DF-RHF Final Energy:  -774.24682314367260

   => Energetics <=

    Nuclear Repulsion Energy =            503.7670757730211335
    One-Electron Energy =               -2062.4546553422342186
    Two-Electron Energy =                 784.4407564255404850
    Total Energy =                       -774.2468231436726001
  Basis Set: (AUG-CC-PVTZ AUX)
    Blend: AUG-CC-PVTZ-RI
    Molecular point group: c1

    Geometry (in Angstrom), charge = 0, multiplicity = 1:

       Center              X                  Y                   Z               Mass
    ------------   -----------------  -----------------  -----------------  -----------------
         S            1.504205294372    -1.051495650182    -0.021122829367    31.972071174400
         O           -1.471089705628    -1.529921650182    -0.021124829367    15.994914619570
         N           -2.060126705628     0.703032349818    -0.021123829367    14.003074004430
         N            0.634045294372     1.383579349818    -0.021124829367    14.003074004430
         C            0.238580294372     0.119042349818    -0.021123829367    12.000000000000
         C           -1.180777805628    -0.327053450182     0.228875170633    12.000000000000
         C           -3.493968705628     0.494476349818    -0.021122829367    12.000000000000
         C            2.644447294372     0.225086349818    -0.021123829367    12.000000000000
         C            1.999446294372     1.443846349818    -0.021123829367    12.000000000000
         H           -1.665624705628     1.637505349818    -0.021122829367     1.007825032230
         H           -3.951788705628     0.932947349818    -0.912317829367     1.007825032230
         H           -3.951786705628     0.932939349818     0.870077170633     1.007825032230
         H           -3.664738705628    -0.581888650182    -0.021126829367     1.007825032230
         H            3.709614294372     0.032925349818    -0.021122829367     1.007825032230
         H            2.493531294372     2.409306349818    -0.021123829367     1.007825032230

  Basis Set: AUG-CC-PVTZ
    Blend: AUG-CC-PVTZ
  Basis Set: (AUG-CC-PVTZ AUX)
    Blend: AUG-CC-PVTZ-JKFIT
	 Reference Energy          =    -774.2468231436726001 [Eh]
	 Singles Energy            =      -0.0000000000000000 [Eh]
	 Same-Spin Energy          =      -0.4606651190609281 [Eh]
	 Opposite-Spin Energy      =      -1.3738816756054195 [Eh]
	 Correlation Energy        =      -1.8345467946663476 [Eh]
	 Total Energy              =    -776.0813699383389803 [Eh]

	 ================> DF-SCS-MP2 Energies <==================
	-----------------------------------------------------------
	 SCS Same-Spin Scale       =       0.3333333333333333 [-]
	 SCS Opposite-Spin Scale   =       1.2000000000000000 [-]
	 SCS Same-Spin Energy      =      -0.1535550396869760 [Eh]
	 SCS Opposite-Spin Energy  =      -1.6486580107265034 [Eh]
	 SCS Correlation Energy    =      -1.8022130504134795 [Eh]
	 SCS Total Energy          =    -776.0490361940860566 [Eh]
	-----------------------------------------------------------

  Dipole Moment: [D]
     X:     1.0533      Y:     2.4147      Z:     0.2098     Total:     2.6428

*** Psi4 exiting successfully. Buy a developer a beer!
