                               Psi4 1.3.2 release

  ==> Input File <==

--------------------------------------------------------------------------
#psi4
#
memory 32 gb

molecule  {
0 1
  S        1.5510760    -1.0871590     0.0000010
  O       -1.4242190    -1.5655850    -0.0000010
  N       -2.0132560     0.6673690     0.0000000
  N        0.6809160     1.3479160    -0.0000010
  C        0.2854510     0.0833790     0.0000000
  C       -1.1339070    -0.3627170    -0.0000010
  C       -3.4470980     0.4588130     0.0000010
  C        2.6913180     0.1894230     0.0000000
  C        2.0463170     1.4081830     0.0000000
  H       -1.6187540     1.6018420     0.0000010
  H       -3.9049180     0.8972840    -0.8911940
  H       -3.9049160     0.8972760     0.8912010
  H       -3.6178680    -0.6175520    -0.0000030
  H        3.7564850    -0.0027381    -0.1499990
  H        2.5404020     2.3736430     0.0000000
units angstrom
no_reorient  #important for SAPT in psi4, default
symmetry c1  #important for SAPT in psi4, default
}

set PROPERTIES_ORIGIN ["COM"]
properties('MP2/aug-cc-pvtz', properties = ['dipole'])
--------------------------------------------------------------------------

    Molecular point group: c1
  Charge       = 0
  Multiplicity = 1
  Basis Set: AUG-CC-PVTZ
    Blend: AUG-CC-PVTZ
  Basis Set: (AUG-CC-PVTZ AUX)
    Blend: AUG-CC-PVTZ-JKFIT

    Orbital Energies [Eh]
    ---------------------

    Doubly Occupied:

       1A    -92.012780     2A    -20.529297     3A    -15.597129
       4A    -15.593920     5A    -11.369412     6A    -11.324780
       7A    -11.285483     8A    -11.283299     9A    -11.263815
      10A     -9.012691    11A     -6.693394    12A     -6.692860
      13A     -6.692236    14A     -1.384285    15A     -1.296277
      16A     -1.238035    17A     -1.080992    18A     -1.035973
      19A     -0.959815    20A     -0.848009    21A     -0.804024
      22A     -0.777673    23A     -0.717782    24A     -0.655706
      25A     -0.649919    26A     -0.633679    27A     -0.599553
      28A     -0.584801    29A     -0.566459    30A     -0.552147
      31A     -0.531967    32A     -0.517862    33A     -0.466481
      34A     -0.436778    35A     -0.408601    36A     -0.392567
      37A     -0.348507

  @DF-RHF Final Energy:  -774.27532884379059

   => Energetics <=

    Nuclear Repulsion Energy =            504.7876665930658646
    One-Electron Energy =               -2064.4480137839695999
    Two-Electron Energy =                 785.3850183471132596
    Total Energy =                       -774.2753288437905894
  Basis Set: (AUG-CC-PVTZ AUX)
    Blend: AUG-CC-PVTZ-RI
    Molecular point group: c1

    Geometry (in Angstrom), charge = 0, multiplicity = 1:

       Center              X                  Y                   Z               Mass
    ------------   -----------------  -----------------  -----------------  -----------------
         S            1.504205285922    -1.051495632574     0.001065396876    31.972071174400
         O           -1.471089714078    -1.529921632574     0.001063396876    15.994914619570
         N           -2.060126714078     0.703032367426     0.001064396876    14.003074004430
         N            0.634045285922     1.383579367426     0.001063396876    14.003074004430
         C            0.238580285922     0.119042367426     0.001064396876    12.000000000000
         C           -1.180777714078    -0.327053632574     0.001063396876    12.000000000000
         C           -3.493968714078     0.494476367426     0.001065396876    12.000000000000
         C            2.644447285922     0.225086367426     0.001064396876    12.000000000000
         C            1.999446285922     1.443846367426     0.001064396876    12.000000000000
         H           -1.665624714078     1.637505367426     0.001065396876     1.007825032230
         H           -3.951788714078     0.932947367426    -0.890129603124     1.007825032230
         H           -3.951786714078     0.932939367426     0.892265396876     1.007825032230
         H           -3.664738714078    -0.581888632574     0.001061396876     1.007825032230
         H            3.709614285922     0.032925267426    -0.148934603124     1.007825032230
         H            2.493531285922     2.409306367426     0.001064396876     1.007825032230

  Basis Set: AUG-CC-PVTZ
    Blend: AUG-CC-PVTZ
  Basis Set: (AUG-CC-PVTZ AUX)
    Blend: AUG-CC-PVTZ-JKFIT
	 Reference Energy          =    -774.2753288437905894 [Eh]
	 Singles Energy            =      -0.0000000000000000 [Eh]
	 Same-Spin Energy          =      -0.4589208458451335 [Eh]
	 Opposite-Spin Energy      =      -1.3692252921887740 [Eh]
	 Correlation Energy        =      -1.8281461380339075 [Eh]
	 Total Energy              =    -776.1034749818245473 [Eh]

	 ================> DF-SCS-MP2 Energies <==================
	-----------------------------------------------------------
	 SCS Same-Spin Scale       =       0.3333333333333333 [-]
	 SCS Opposite-Spin Scale   =       1.2000000000000000 [-]
	 SCS Same-Spin Energy      =      -0.1529736152817112 [Eh]
	 SCS Opposite-Spin Energy  =      -1.6430703506265287 [Eh]
	 SCS Correlation Energy    =      -1.7960439659082399 [Eh]
	 SCS Total Energy          =    -776.0713728096988007 [Eh]
	-----------------------------------------------------------

  Dipole Moment: [D]
     X:     1.1059      Y:     2.4553      Z:    -0.1194     Total:     2.6955

*** Psi4 exiting successfully. Buy a developer a beer!
