                               Psi4 1.3.2 release

  ==> Input File <==

--------------------------------------------------------------------------
#psi4
#
memory 32 gb

molecule  {
0 1
  S        1.5510760    -1.0871590     0.0000010
  O       -1.4242190    -1.5655850    -0.0000010
  N       -2.0132560     0.6673690     0.0000000
  N        0.6809160     1.3479160    -0.0000010
  C        0.2854510     0.0833790     0.0000000
  C       -1.1339072    -0.3627168     0.2999990
  C       -3.4470980     0.4588130     0.0000010
  C        2.6913180     0.1894230     0.0000000
  C        2.0463170     1.4081830     0.0000000
  H       -1.6187540     1.6018420     0.0000010
  H       -3.9049180     0.8972840    -0.8911940
  H       -3.9049160     0.8972760     0.8912010
  H       -3.6178680    -0.6175520    -0.0000030
  H        3.7564850    -0.0027380     0.0000010
  H        2.5404020     2.3736430     0.0000000
units angstrom
no_reorient  #important for SAPT in psi4, default
symmetry c1  #important for SAPT in psi4, default
}

set PROPERTIES_ORIGIN ["COM"]
properties('MP2/aug-cc-pvtz', properties = ['dipole'])
--------------------------------------------------------------------------

    Molecular point group: c1
  Charge       = 0
  Multiplicity = 1
  Basis Set: AUG-CC-PVTZ
    Blend: AUG-CC-PVTZ
  Basis Set: (AUG-CC-PVTZ AUX)
    Blend: AUG-CC-PVTZ-JKFIT

    Orbital Energies [Eh]
    ---------------------

    Doubly Occupied:

       1A    -92.011679     2A    -20.536461     3A    -15.597050
       4A    -15.595286     5A    -11.381256     6A    -11.329418
       7A    -11.284831     8A    -11.281642     9A    -11.263007
      10A     -9.011685    11A     -6.692395    12A     -6.691851
      13A     -6.691213    14A     -1.368833    15A     -1.294153
      16A     -1.228144    17A     -1.080402    18A     -1.031452
      19A     -0.955938    20A     -0.843816    21A     -0.804275
      22A     -0.769303    23A     -0.717005    24A     -0.654082
      25A     -0.645883    26A     -0.627912    27A     -0.595136
      28A     -0.584810    29A     -0.561848    30A     -0.550068
      31A     -0.525397    32A     -0.516917    33A     -0.465041
      34A     -0.434785    35A     -0.406355    36A     -0.388675
      37A     -0.345887

  @DF-RHF Final Energy:  -774.23368428326864

   => Energetics <=

    Nuclear Repulsion Energy =            503.3149815850121058
    One-Electron Energy =               -2061.5695497672713827
    Two-Electron Energy =                 784.0208838989907463
    Total Energy =                       -774.2336842832686443
  Basis Set: (AUG-CC-PVTZ AUX)
    Blend: AUG-CC-PVTZ-RI
    Molecular point group: c1

    Geometry (in Angstrom), charge = 0, multiplicity = 1:

       Center              X                  Y                   Z               Mass
    ------------   -----------------  -----------------  -----------------  -----------------
         S            1.504205302821    -1.051495650182    -0.025347583945    31.972071174400
         O           -1.471089697179    -1.529921650182    -0.025349583945    15.994914619570
         N           -2.060126697179     0.703032349818    -0.025348583945    14.003074004430
         N            0.634045302821     1.383579349818    -0.025349583945    14.003074004430
         C            0.238580302821     0.119042349818    -0.025348583945    12.000000000000
         C           -1.180777897179    -0.327053450182     0.274650416055    12.000000000000
         C           -3.493968697179     0.494476349818    -0.025347583945    12.000000000000
         C            2.644447302821     0.225086349818    -0.025348583945    12.000000000000
         C            1.999446302821     1.443846349818    -0.025348583945    12.000000000000
         H           -1.665624697179     1.637505349818    -0.025347583945     1.007825032230
         H           -3.951788697179     0.932947349818    -0.916542583945     1.007825032230
         H           -3.951786697179     0.932939349818     0.865852416055     1.007825032230
         H           -3.664738697179    -0.581888650182    -0.025351583945     1.007825032230
         H            3.709614302821     0.032925349818    -0.025347583945     1.007825032230
         H            2.493531302821     2.409306349818    -0.025348583945     1.007825032230

  Basis Set: AUG-CC-PVTZ
    Blend: AUG-CC-PVTZ
  Basis Set: (AUG-CC-PVTZ AUX)
    Blend: AUG-CC-PVTZ-JKFIT
	 Reference Energy          =    -774.2336842832686443 [Eh]
	 Singles Energy            =      -0.0000000000000000 [Eh]
	 Same-Spin Energy          =      -0.4614653921751253 [Eh]
	 Opposite-Spin Energy      =      -1.3761238159818041 [Eh]
	 Correlation Energy        =      -1.8375892081569294 [Eh]
	 Total Energy              =    -776.0712734914255861 [Eh]

	 ================> DF-SCS-MP2 Energies <==================
	-----------------------------------------------------------
	 SCS Same-Spin Scale       =       0.3333333333333333 [-]
	 SCS Opposite-Spin Scale   =       1.2000000000000000 [-]
	 SCS Same-Spin Energy      =      -0.1538217973917084 [Eh]
	 SCS Opposite-Spin Energy  =      -1.6513485791781648 [Eh]
	 SCS Correlation Energy    =      -1.8051703765698732 [Eh]
	 SCS Total Energy          =    -776.0388546598385346 [Eh]
	-----------------------------------------------------------

  Dipole Moment: [D]
     X:     1.0229      Y:     2.3986      Z:     0.2424     Total:     2.6188

*** Psi4 exiting successfully. Buy a developer a beer!
