                               Psi4 1.3.2 release

  ==> Input File <==

--------------------------------------------------------------------------
#psi4
#
memory 32 gb

molecule  {
0 1
  S        1.5510760    -1.0871590     0.0000010
  O       -1.4242190    -1.5655850    -0.0000010
  N       -2.0132560     0.6673690     0.0000000
  N        0.6809160     1.3479160    -0.0000010
  C        0.2854510     0.0833790     0.0000000
  C       -1.1339070    -0.3627170    -0.0000010
  C       -3.4470980     0.4588130     0.0000010
  C        2.6913180     0.1894230     0.0000000
  C        2.0463170     1.4081830     0.0000000
  H       -1.6187540     1.6018420     0.0000010
  H       -3.9049180     0.8972840    -0.8911940
  H       -3.9049160     0.8972760     0.8912010
  H       -3.6178680    -0.6175520    -0.0000030
  H        3.7564850    -0.0027380     0.0000010
  H        2.5404018     2.3736430     0.3000000
units angstrom
no_reorient  #important for SAPT in psi4, default
symmetry c1  #important for SAPT in psi4, default
}

set PROPERTIES_ORIGIN ["COM"]
properties('MP2/aug-cc-pvtz', properties = ['dipole'])
--------------------------------------------------------------------------

    Molecular point group: c1
  Charge       = 0
  Multiplicity = 1
  Basis Set: AUG-CC-PVTZ
    Blend: AUG-CC-PVTZ
  Basis Set: (AUG-CC-PVTZ AUX)
    Blend: AUG-CC-PVTZ-JKFIT

    Orbital Energies [Eh]
    ---------------------

    Doubly Occupied:

       1A    -92.013406     2A    -20.529499     3A    -15.597399
       4A    -15.594022     5A    -11.369584     6A    -11.324937
       7A    -11.288292     8A    -11.283882     9A    -11.263894
      10A     -9.013316    11A     -6.694015    12A     -6.693488
      13A     -6.692861    14A     -1.384478    15A     -1.296455
      16A     -1.238151    17A     -1.081805    18A     -1.035204
      19A     -0.959525    20A     -0.847697    21A     -0.802385
      22A     -0.777175    23A     -0.718227    24A     -0.652200
      25A     -0.648984    26A     -0.633693    27A     -0.599045
      28A     -0.582962    29A     -0.568313    30A     -0.552197
      31A     -0.533389    32A     -0.514229    33A     -0.466450
      34A     -0.436974    35A     -0.408846    36A     -0.392669
      37A     -0.348331

  @DF-RHF Final Energy:  -774.27039584580962

   => Energetics <=

    Nuclear Repulsion Energy =            504.6730443187038873
    One-Electron Energy =               -2064.2109178899695507
    Two-Electron Energy =                 785.2674777254560468
    Total Energy =                       -774.2703958458096167
  Basis Set: (AUG-CC-PVTZ AUX)
    Blend: AUG-CC-PVTZ-RI
    Molecular point group: c1

    Geometry (in Angstrom), charge = 0, multiplicity = 1:

       Center              X                  Y                   Z               Mass
    ------------   -----------------  -----------------  -----------------  -----------------
         S            1.504205287341    -1.051495633283    -0.002127963187    31.972071174400
         O           -1.471089712659    -1.529921633283    -0.002129963187    15.994914619570
         N           -2.060126712659     0.703032366717    -0.002128963187    14.003074004430
         N            0.634045287341     1.383579366717    -0.002129963187    14.003074004430
         C            0.238580287341     0.119042366717    -0.002128963187    12.000000000000
         C           -1.180777712659    -0.327053633283    -0.002129963187    12.000000000000
         C           -3.493968712659     0.494476366717    -0.002127963187    12.000000000000
         C            2.644447287341     0.225086366717    -0.002128963187    12.000000000000
         C            1.999446287341     1.443846366717    -0.002128963187    12.000000000000
         H           -1.665624712659     1.637505366717    -0.002127963187     1.007825032230
         H           -3.951788712659     0.932947366717    -0.893322963187     1.007825032230
         H           -3.951786712659     0.932939366717     0.889072036813     1.007825032230
         H           -3.664738712659    -0.581888633283    -0.002131963187     1.007825032230
         H            3.709614287341     0.032925366717    -0.002127963187     1.007825032230
         H            2.493531087341     2.409306366717     0.297871036813     1.007825032230

  Basis Set: AUG-CC-PVTZ
    Blend: AUG-CC-PVTZ
  Basis Set: (AUG-CC-PVTZ AUX)
    Blend: AUG-CC-PVTZ-JKFIT
	 Reference Energy          =    -774.2703958458096167 [Eh]
	 Singles Energy            =      -0.0000000000000000 [Eh]
	 Same-Spin Energy          =      -0.4591467214615274 [Eh]
	 Opposite-Spin Energy      =      -1.3697312406493740 [Eh]
	 Correlation Energy        =      -1.8288779621109015 [Eh]
	 Total Energy              =    -776.0992738079205537 [Eh]

	 ================> DF-SCS-MP2 Energies <==================
	-----------------------------------------------------------
	 SCS Same-Spin Scale       =       0.3333333333333333 [-]
	 SCS Opposite-Spin Scale   =       1.2000000000000000 [-]
	 SCS Same-Spin Energy      =      -0.1530489071538425 [Eh]
	 SCS Opposite-Spin Energy  =      -1.6436774887792487 [Eh]
	 SCS Correlation Energy    =      -1.7967263959330912 [Eh]
	 SCS Total Energy          =    -776.0671222417427089 [Eh]
	-----------------------------------------------------------

  Dipole Moment: [D]
     X:     1.0769      Y:     2.3891      Z:     0.2162     Total:     2.6295

*** Psi4 exiting successfully. Buy a developer a beer!
