                               Psi4 1.3.2 release

  ==> Input File <==

--------------------------------------------------------------------------
#psi4
#
memory 32 gb

molecule  {
-3 1
  P        1.1931290    -0.6069630     0.0087730
  P       -1.8341790     0.1663700     0.0034510
  O        1.3654433     1.0238399    -0.3457328
  O       -0.3886030    -0.8294050    -0.1958090
  O        1.9273580    -1.4129110    -1.0480400
  O        1.6218329    -0.7555455     1.4574720
  O       -1.8332320     1.0931450    -1.2188660
  O       -1.6562150     0.8578460     1.3638040
  O       -2.8968830    -0.9395270    -0.0292720
  C        2.6258790     1.5668310    -0.0085760
  H        2.7349980     1.6139230     1.0781470
  H        3.4479520     0.9704660    -0.4205400
  H        2.6752270     2.5733270    -0.4286450
units angstrom
no_reorient  #important for SAPT in psi4, default
symmetry c1  #important for SAPT in psi4, default
}

set PROPERTIES_ORIGIN ["COM"]
properties('MP2/aug-cc-pvtz', properties = ['dipole'])
--------------------------------------------------------------------------

    Molecular point group: c1
  Charge       = -3
  Multiplicity = 1
  Basis Set: AUG-CC-PVTZ
    Blend: AUG-CC-PVTZ
  Basis Set: (AUG-CC-PVTZ AUX)
    Blend: AUG-CC-PVTZ-JKFIT

    Orbital Energies [Eh]
    ---------------------

    Doubly Occupied:

       1A    -79.622756     2A    -79.559557     3A    -20.149957
       4A    -20.082119     5A    -20.056819     6A    -20.049618
       7A    -19.999741     8A    -19.999247     9A    -19.997373
      10A    -10.914453    11A     -7.136726    12A     -7.073379
      13A     -5.036046    14A     -5.034538    15A     -5.033692
      16A     -4.972950    17A     -4.970488    18A     -4.970353
      19A     -0.968411    20A     -0.888217    21A     -0.842055
      22A     -0.803499    23A     -0.799652    24A     -0.742198
      25A     -0.740411    26A     -0.558309    27A     -0.337267
      28A     -0.283361    29A     -0.254979    30A     -0.231144
      31A     -0.186855    32A     -0.147460    33A     -0.144004
      34A     -0.112511    35A     -0.093499    36A     -0.088989
      37A     -0.061176    38A     -0.058338    39A     -0.043348
      40A     -0.038717    41A     -0.022156    42A      0.007342
      43A      0.020594    44A      0.022201    45A      0.025471
      46A      0.027583    47A      0.064679    48A      0.068175
      49A      0.092960

  @DF-RHF Final Energy: -1245.34631210309090

   => Energetics <=

    Nuclear Repulsion Energy =            820.7335626001456603
    One-Electron Energy =               -3406.6050242500291461
    Two-Electron Energy =                1340.5251495467928180
    Total Energy =                      -1245.3463121030908951
  Basis Set: (AUG-CC-PVTZ AUX)
    Blend: AUG-CC-PVTZ-RI
    Molecular point group: c1

    Geometry (in Angstrom), charge = -3, multiplicity = 1:

       Center              X                  Y                   Z               Mass
    ------------   -----------------  -----------------  -----------------  -----------------
         P            1.241680039202    -0.580272385025     0.007484476394    30.973761998420
         P           -1.785627960798     0.193060614975     0.002162476394    30.973761998420
         O            1.413994339202     1.050530514975    -0.347021323606    15.994914619570
         O           -0.340051960798    -0.802714385025    -0.197097523606    15.994914619570
         O            1.975909039202    -1.386220385025    -1.049328523606    15.994914619570
         O            1.670383939202    -0.728854885025     1.456183476394    15.994914619570
         O           -1.784680960798     1.119835614975    -1.220154523606    15.994914619570
         O           -1.607663960798     0.884536614975     1.362515476394    15.994914619570
         O           -2.848331960798    -0.912836385025    -0.030560523606    15.994914619570
         C            2.674430039202     1.593521614975    -0.009864523606    12.000000000000
         H            2.783549039202     1.640613614975     1.076858476394     1.007825032230
         H            3.496503039202     0.997156614975    -0.421828523606     1.007825032230
         H            2.723778039202     2.600017614975    -0.429933523606     1.007825032230

  Basis Set: AUG-CC-PVTZ
    Blend: AUG-CC-PVTZ
  Basis Set: (AUG-CC-PVTZ AUX)
    Blend: AUG-CC-PVTZ-JKFIT
	 Reference Energy          =   -1245.3463121030908951 [Eh]
	 Singles Energy            =      -0.0000000000000000 [Eh]
	 Same-Spin Energy          =      -0.6459462006127029 [Eh]
	 Opposite-Spin Energy      =      -1.8058525555056471 [Eh]
	 Correlation Energy        =      -2.4517987561183499 [Eh]
	 Total Energy              =   -1247.7981108592091459 [Eh]

	 ================> DF-SCS-MP2 Energies <==================
	-----------------------------------------------------------
	 SCS Same-Spin Scale       =       0.3333333333333333 [-]
	 SCS Opposite-Spin Scale   =       1.2000000000000000 [-]
	 SCS Same-Spin Energy      =      -0.2153154002042343 [Eh]
	 SCS Opposite-Spin Energy  =      -2.1670230666067765 [Eh]
	 SCS Correlation Energy    =      -2.3823384668110106 [Eh]
	 SCS Total Energy          =   -1247.7286505699019017 [Eh]
	-----------------------------------------------------------

  Dipole Moment: [D]
     X:     7.8388      Y:     2.2349      Z:    -0.5147     Total:     8.1674

*** Psi4 exiting successfully. Buy a developer a beer!
