                               Psi4 1.3.2 release

  ==> Input File <==

--------------------------------------------------------------------------
#psi4
#
memory 32 gb

molecule  {
-3 1
  P        1.1931290    -0.6069630     0.0087730
  P       -1.8341790     0.1663700     0.0034510
  O        1.3559990     1.0186560    -0.3729610
  O       -0.3886030    -0.8294050    -0.1958090
  O        1.9273580    -1.4129110    -1.0480400
  O        1.6168640    -0.7815310     1.4560350
  O       -1.8297829     1.1141571    -1.2026385
  O       -1.6547294     0.8815245     1.3513095
  O       -2.8968830    -0.9395270    -0.0292720
  C        2.6258790     1.5668310    -0.0085760
  H        2.7349980     1.6139230     1.0781470
  H        3.4479520     0.9704660    -0.4205400
  H        2.6752270     2.5733270    -0.4286450
units angstrom
no_reorient  #important for SAPT in psi4, default
symmetry c1  #important for SAPT in psi4, default
}

set PROPERTIES_ORIGIN ["COM"]
properties('MP2/aug-cc-pvtz', properties = ['dipole'])
--------------------------------------------------------------------------

    Molecular point group: c1
  Charge       = -3
  Multiplicity = 1
  Basis Set: AUG-CC-PVTZ
    Blend: AUG-CC-PVTZ
  Basis Set: (AUG-CC-PVTZ AUX)
    Blend: AUG-CC-PVTZ-JKFIT

    Orbital Energies [Eh]
    ---------------------

    Doubly Occupied:

       1A    -79.622371     2A    -79.559021     3A    -20.152636
       4A    -20.081588     5A    -20.055018     6A    -20.051098
       7A    -20.001019     8A    -19.997579     9A    -19.995568
      10A    -10.916869    11A     -7.136404    12A     -7.072828
      13A     -5.035708    14A     -5.034196    15A     -5.033388
      16A     -4.972376    17A     -4.969897    18A     -4.969866
      19A     -0.965081    20A     -0.886991    21A     -0.841642
      22A     -0.803192    23A     -0.799288    24A     -0.743064
      25A     -0.737956    26A     -0.560409    27A     -0.336352
      28A     -0.282361    29A     -0.253927    30A     -0.228212
      31A     -0.187143    32A     -0.147215    33A     -0.143881
      34A     -0.114400    35A     -0.093219    36A     -0.088317
      37A     -0.063019    38A     -0.058108    39A     -0.043116
      40A     -0.038408    41A     -0.022273    42A      0.007195
      43A      0.020454    44A      0.023007    45A      0.026025
      46A      0.028333    47A      0.063936    48A      0.070192
      49A      0.093935

  @DF-RHF Final Energy: -1245.34516301876738

   => Energetics <=

    Nuclear Repulsion Energy =            820.4166645975855090
    One-Electron Energy =               -3405.9998001494445816
    Two-Electron Energy =                1340.2379725330915790
    Total Energy =                      -1245.3451630187673800
  Basis Set: (AUG-CC-PVTZ AUX)
    Blend: AUG-CC-PVTZ-RI
    Molecular point group: c1

    Geometry (in Angstrom), charge = -3, multiplicity = 1:

       Center              X                  Y                   Z               Mass
    ------------   -----------------  -----------------  -----------------  -----------------
         P            1.242482471129    -0.581417064307     0.009595189407    30.973761998420
         P           -1.784825528871     0.191915935693     0.004273189407    30.973761998420
         O            1.405352471129     1.044201935693    -0.372138810593    15.994914619570
         O           -0.339249528871    -0.803859064307    -0.194986810593    15.994914619570
         O            1.976711471129    -1.387365064307    -1.047217810593    15.994914619570
         O            1.666217471129    -0.755985064307     1.456857189407    15.994914619570
         O           -1.780429428871     1.139703035693    -1.201816310593    15.994914619570
         O           -1.605375928871     0.907070435693     1.352131689407    15.994914619570
         O           -2.847529528871    -0.913981064307    -0.028449810593    15.994914619570
         C            2.675232471129     1.592376935693    -0.007753810593    12.000000000000
         H            2.784351471129     1.639468935693     1.078969189407     1.007825032230
         H            3.497305471129     0.996011935693    -0.419717810593     1.007825032230
         H            2.724580471129     2.598872935693    -0.427822810593     1.007825032230

  Basis Set: AUG-CC-PVTZ
    Blend: AUG-CC-PVTZ
  Basis Set: (AUG-CC-PVTZ AUX)
    Blend: AUG-CC-PVTZ-JKFIT
	 Reference Energy          =   -1245.3451630187673800 [Eh]
	 Singles Energy            =      -0.0000000000000000 [Eh]
	 Same-Spin Energy          =      -0.6460123560852353 [Eh]
	 Opposite-Spin Energy      =      -1.8062948659568590 [Eh]
	 Correlation Energy        =      -2.4523072220420943 [Eh]
	 Total Energy              =   -1247.7974702408093890 [Eh]

	 ================> DF-SCS-MP2 Energies <==================
	-----------------------------------------------------------
	 SCS Same-Spin Scale       =       0.3333333333333333 [-]
	 SCS Opposite-Spin Scale   =       1.2000000000000000 [-]
	 SCS Same-Spin Energy      =      -0.2153374520284118 [Eh]
	 SCS Opposite-Spin Energy  =      -2.1675538391482307 [Eh]
	 SCS Correlation Energy    =      -2.3828912911766427 [Eh]
	 SCS Total Energy          =   -1247.7280543099441275 [Eh]
	-----------------------------------------------------------

  Dipole Moment: [D]
     X:     7.9024      Y:     2.2219      Z:    -0.4808     Total:     8.2229

*** Psi4 exiting successfully. Buy a developer a beer!
