                               Psi4 1.3.2 release

  ==> Input File <==

--------------------------------------------------------------------------
#psi4
#
memory 32 gb

molecule  {
-3 1
  P        1.1931290    -0.6069630     0.0087730
  P       -1.8341790     0.1663700     0.0034510
  O        1.3559990     1.0186560    -0.3729610
  O       -0.3886030    -0.8294050    -0.1958090
  O        1.9273580    -1.4129110    -1.0480400
  O        1.6168640    -0.7815310     1.4560350
  O       -1.8332320     1.0931450    -1.2188660
  O       -1.6793821     0.7678306     1.1867150
  O       -2.8968830    -0.9395270    -0.0292720
  C        2.6258790     1.5668310    -0.0085760
  H        2.7349980     1.6139230     1.0781470
  H        3.4479520     0.9704660    -0.4205400
  H        2.6752270     2.5733270    -0.4286450
units angstrom
no_reorient  #important for SAPT in psi4, default
symmetry c1  #important for SAPT in psi4, default
}

set PROPERTIES_ORIGIN ["COM"]
properties('MP2/aug-cc-pvtz', properties = ['dipole'])
--------------------------------------------------------------------------

    Molecular point group: c1
  Charge       = -3
  Multiplicity = 1
  Basis Set: AUG-CC-PVTZ
    Blend: AUG-CC-PVTZ
  Basis Set: (AUG-CC-PVTZ AUX)
    Blend: AUG-CC-PVTZ-JKFIT

    Orbital Energies [Eh]
    ---------------------

    Doubly Occupied:

       1A    -79.617199     2A    -79.512481     3A    -20.150942
       4A    -20.066590     5A    -20.050503     6A    -20.049488
       7A    -19.984161     8A    -19.980250     9A    -19.980162
      10A    -10.916191    11A     -7.131252    12A     -7.038310
      13A     -5.030577    14A     -5.028972    15A     -5.028300
      16A     -4.938165    17A     -4.935735    18A     -4.933471
      19A     -0.962811    20A     -0.897278    21A     -0.862151
      22A     -0.812349    23A     -0.800116    24A     -0.753029
      25A     -0.725536    26A     -0.559505    27A     -0.330819
      28A     -0.274883    29A     -0.253253    30A     -0.224910
      31A     -0.182962    32A     -0.147120    33A     -0.140570
      34A     -0.112369    35A     -0.100603    36A     -0.092786
      37A     -0.066272    38A     -0.062559    39A     -0.042622
      40A     -0.035371    41A     -0.021022    42A      0.002821
      43A      0.014664    44A      0.019576    45A      0.027380
      46A      0.034754    47A      0.064106    48A      0.079884
      49A      0.103241

  @DF-RHF Final Energy: -1245.30891817799693

   => Energetics <=

    Nuclear Repulsion Energy =            830.0042890038416772
    One-Electron Energy =               -3425.6519730589479877
    Two-Electron Energy =                1350.3387658771093811
    Total Energy =                      -1245.3089181779969294
  Basis Set: (AUG-CC-PVTZ AUX)
    Blend: AUG-CC-PVTZ-RI
    Molecular point group: c1

    Geometry (in Angstrom), charge = -3, multiplicity = 1:

       Center              X                  Y                   Z               Mass
    ------------   -----------------  -----------------  -----------------  -----------------
         P            1.244861516497    -0.570013108497     0.024903238769    30.973761998420
         P           -1.782446483503     0.203319891503     0.019581238769    30.973761998420
         O            1.407731516497     1.055605891503    -0.356830761231    15.994914619570
         O           -0.336870483503    -0.792455108497    -0.179678761231    15.994914619570
         O            1.979090516497    -1.375961108497    -1.031909761231    15.994914619570
         O            1.668596516497    -0.744581108497     1.472165238769    15.994914619570
         O           -1.781499483503     1.130094891503    -1.202735761231    15.994914619570
         O           -1.627649583503     0.804780491503     1.202845238769    15.994914619570
         O           -2.845150483503    -0.902577108497    -0.013141761231    15.994914619570
         C            2.677611516497     1.603780891503     0.007554238769    12.000000000000
         H            2.786730516497     1.650872891503     1.094277238769     1.007825032230
         H            3.499684516497     1.007415891503    -0.404409761231     1.007825032230
         H            2.726959516497     2.610276891503    -0.412514761231     1.007825032230

  Basis Set: AUG-CC-PVTZ
    Blend: AUG-CC-PVTZ
  Basis Set: (AUG-CC-PVTZ AUX)
    Blend: AUG-CC-PVTZ-JKFIT
	 Reference Energy          =   -1245.3089181779969294 [Eh]
	 Singles Energy            =      -0.0000000000000000 [Eh]
	 Same-Spin Energy          =      -0.6425416743176779 [Eh]
	 Opposite-Spin Energy      =      -1.7973657522342621 [Eh]
	 Correlation Energy        =      -2.4399074265519403 [Eh]
	 Total Energy              =   -1247.7488256045489834 [Eh]

	 ================> DF-SCS-MP2 Energies <==================
	-----------------------------------------------------------
	 SCS Same-Spin Scale       =       0.3333333333333333 [-]
	 SCS Opposite-Spin Scale   =       1.2000000000000000 [-]
	 SCS Same-Spin Energy      =      -0.2141805581058926 [Eh]
	 SCS Opposite-Spin Energy  =      -2.1568389026811143 [Eh]
	 SCS Correlation Energy    =      -2.3710194607870072 [Eh]
	 SCS Total Energy          =   -1247.6799376387839402 [Eh]
	-----------------------------------------------------------

  Dipole Moment: [D]
     X:     7.8854      Y:     2.9672      Z:     0.7246     Total:     8.4563

*** Psi4 exiting successfully. Buy a developer a beer!
