                               Psi4 1.3.2 release

  ==> Input File <==

--------------------------------------------------------------------------
#psi4
#
memory 32 gb

molecule  {
-3 1
  P        1.1931290    -0.6069630     0.0087730
  P       -1.8341790     0.1663700     0.0034510
  O        1.3559990     1.0186560    -0.3729610
  O       -0.3980489    -0.7952978    -0.1521409
  O        1.9732667    -1.3954355    -1.0281429
  O        1.6168640    -0.7815310     1.4560350
  O       -1.8332320     1.0931450    -1.2188660
  O       -1.6562150     0.8578460     1.3638040
  O       -2.8968830    -0.9395270    -0.0292720
  C        2.6258790     1.5668310    -0.0085760
  H        2.7349980     1.6139230     1.0781470
  H        3.4479520     0.9704660    -0.4205400
  H        2.6752270     2.5733270    -0.4286450
units angstrom
no_reorient  #important for SAPT in psi4, default
symmetry c1  #important for SAPT in psi4, default
}

set PROPERTIES_ORIGIN ["COM"]
properties('MP2/aug-cc-pvtz', properties = ['dipole'])
--------------------------------------------------------------------------

    Molecular point group: c1
  Charge       = -3
  Multiplicity = 1
  Basis Set: AUG-CC-PVTZ
    Blend: AUG-CC-PVTZ
  Basis Set: (AUG-CC-PVTZ AUX)
    Blend: AUG-CC-PVTZ-JKFIT

    Orbital Energies [Eh]
    ---------------------

    Doubly Occupied:

       1A    -79.624928     2A    -79.557373     3A    -20.151438
       4A    -20.083583     5A    -20.059475     6A    -20.048272
       7A    -19.998354     8A    -19.998267     9A    -19.993277
      10A    -10.915829    11A     -7.138712    12A     -7.071330
      13A     -5.038106    14A     -5.036459    15A     -5.035722
      16A     -4.970972    17A     -4.968479    18A     -4.968314
      19A     -0.965169    20A     -0.890772    21A     -0.844530
      22A     -0.803575    23A     -0.798979    24A     -0.741242
      25A     -0.737920    26A     -0.559592    27A     -0.340974
      28A     -0.285908    29A     -0.253016    30A     -0.227828
      31A     -0.187219    32A     -0.148971    33A     -0.144317
      34A     -0.114694    35A     -0.095966    36A     -0.090329
      37A     -0.062527    38A     -0.056272    39A     -0.043544
      40A     -0.040021    41A     -0.023881    42A      0.007433
      43A      0.021133    44A      0.022068    45A      0.027128
      46A      0.027467    47A      0.066180    48A      0.071018
      49A      0.094853

  @DF-RHF Final Energy: -1245.34629140376410

   => Energetics <=

    Nuclear Repulsion Energy =            821.3949481409207465
    One-Electron Energy =               -3407.9247603963208348
    Two-Electron Energy =                1341.1835208516358762
    Total Energy =                      -1245.3462914037640985
  Basis Set: (AUG-CC-PVTZ AUX)
    Blend: AUG-CC-PVTZ-RI
    Molecular point group: c1

    Geometry (in Angstrom), charge = -3, multiplicity = 1:

       Center              X                  Y                   Z               Mass
    ------------   -----------------  -----------------  -----------------  -----------------
         P            1.239813361667    -0.582000536489     0.004529908240    30.973761998420
         P           -1.787494638333     0.191332463511    -0.000792091760    30.973761998420
         O            1.402683361667     1.043618463511    -0.377204091760    15.994914619570
         O           -0.351364538333    -0.770335336489    -0.156383991760    15.994914619570
         O            2.019951061667    -1.370473036489    -1.032385991760    15.994914619570
         O            1.663548361667    -0.756568536489     1.451791908240    15.994914619570
         O           -1.786547638333     1.118107463511    -1.223109091760    15.994914619570
         O           -1.609530638333     0.882808463511     1.359560908240    15.994914619570
         O           -2.850198638333    -0.914564536489    -0.033515091760    15.994914619570
         C            2.672563361667     1.591793463511    -0.012819091760    12.000000000000
         H            2.781682361667     1.638885463511     1.073903908240     1.007825032230
         H            3.494636361667     0.995428463511    -0.424783091760     1.007825032230
         H            2.721911361667     2.598289463511    -0.432888091760     1.007825032230

  Basis Set: AUG-CC-PVTZ
    Blend: AUG-CC-PVTZ
  Basis Set: (AUG-CC-PVTZ AUX)
    Blend: AUG-CC-PVTZ-JKFIT
	 Reference Energy          =   -1245.3462914037640985 [Eh]
	 Singles Energy            =      -0.0000000000000000 [Eh]
	 Same-Spin Energy          =      -0.6457608302809172 [Eh]
	 Opposite-Spin Energy      =      -1.8054577835370698 [Eh]
	 Correlation Energy        =      -2.4512186138179870 [Eh]
	 Total Energy              =   -1247.7975100175819989 [Eh]

	 ================> DF-SCS-MP2 Energies <==================
	-----------------------------------------------------------
	 SCS Same-Spin Scale       =       0.3333333333333333 [-]
	 SCS Opposite-Spin Scale   =       1.2000000000000000 [-]
	 SCS Same-Spin Energy      =      -0.2152536100936391 [Eh]
	 SCS Opposite-Spin Energy  =      -2.1665493402444835 [Eh]
	 SCS Correlation Energy    =      -2.3818029503381224 [Eh]
	 SCS Total Energy          =   -1247.7280943541022680 [Eh]
	-----------------------------------------------------------

  Dipole Moment: [D]
     X:     7.9740      Y:     2.1683      Z:    -0.6140     Total:     8.2863

*** Psi4 exiting successfully. Buy a developer a beer!
