                               Psi4 1.3.2 release

  ==> Input File <==

--------------------------------------------------------------------------
#psi4
#
memory 32 gb

molecule  {
-3 1
  P        1.1931290    -0.6069630     0.0087730
  P       -1.8341790     0.1663700     0.0034510
  O        1.3559990     1.0186560    -0.3729610
  O       -0.3886030    -0.8294050    -0.1958090
  O        1.9273580    -1.4129110    -1.0480400
  O        1.6168640    -0.7815310     1.4560350
  O       -1.8333555     0.9723091    -1.0594964
  O       -1.6562150     0.8578460     1.3638040
  O       -2.8968830    -0.9395270    -0.0292720
  C        2.6258790     1.5668310    -0.0085760
  H        2.7349980     1.6139230     1.0781470
  H        3.4479520     0.9704660    -0.4205400
  H        2.6752270     2.5733270    -0.4286450
units angstrom
no_reorient  #important for SAPT in psi4, default
symmetry c1  #important for SAPT in psi4, default
}

set PROPERTIES_ORIGIN ["COM"]
properties('MP2/aug-cc-pvtz', properties = ['dipole'])
--------------------------------------------------------------------------

    Molecular point group: c1
  Charge       = -3
  Multiplicity = 1
  Basis Set: AUG-CC-PVTZ
    Blend: AUG-CC-PVTZ
  Basis Set: (AUG-CC-PVTZ AUX)
    Blend: AUG-CC-PVTZ-JKFIT

    Orbital Energies [Eh]
    ---------------------

    Doubly Occupied:

       1A    -79.616092     2A    -79.511850     3A    -20.151192
       4A    -20.066891     5A    -20.050861     6A    -20.045748
       7A    -19.985703     8A    -19.979841     9A    -19.977860
      10A    -10.915933    11A     -7.130152    12A     -7.037864
      13A     -5.029477    14A     -5.027878    15A     -5.027180
      16A     -4.937737    17A     -4.935302    18A     -4.932966
      19A     -0.962806    20A     -0.898157    21A     -0.862348
      22A     -0.811940    23A     -0.798337    24A     -0.751569
      25A     -0.723998    26A     -0.559292    27A     -0.330584
      28A     -0.274893    29A     -0.252718    30A     -0.225245
      31A     -0.182260    32A     -0.147537    33A     -0.139135
      34A     -0.112397    35A     -0.099837    36A     -0.092563
      37A     -0.065876    38A     -0.062547    39A     -0.041557
      40A     -0.035998    41A     -0.022326    42A      0.009909
      43A      0.011667    44A      0.019901    45A      0.029016
      46A      0.034579    47A      0.067101    48A      0.080204
      49A      0.104197

  @DF-RHF Final Energy: -1245.30655812466875

   => Energetics <=

    Nuclear Repulsion Energy =            830.2026598438739029
    One-Electron Energy =               -3426.1026901209429525
    Two-Electron Energy =                1350.5934721524004090
    Total Energy =                      -1245.3065581246687543
  Basis Set: (AUG-CC-PVTZ AUX)
    Blend: AUG-CC-PVTZ-RI
    Molecular point group: c1

    Geometry (in Angstrom), charge = -3, multiplicity = 1:

       Center              X                  Y                   Z               Mass
    ------------   -----------------  -----------------  -----------------  -----------------
         P            1.242910688797    -0.567403903117    -0.003580711509    30.973761998420
         P           -1.784397311203     0.205929096883    -0.008902711509    30.973761998420
         O            1.405780688797     1.058215096883    -0.385314711509    15.994914619570
         O           -0.338821311203    -0.789845903117    -0.208162711509    15.994914619570
         O            1.977139688797    -1.373351903117    -1.060393711509    15.994914619570
         O            1.666645688797    -0.741971903117     1.443681288491    15.994914619570
         O           -1.783573811203     1.011868196883    -1.071850111509    15.994914619570
         O           -1.606433311203     0.897405096883     1.351450288491    15.994914619570
         O           -2.847101311203    -0.899967903117    -0.041625711509    15.994914619570
         C            2.675660688797     1.606390096883    -0.020929711509    12.000000000000
         H            2.784779688797     1.653482096883     1.065793288491     1.007825032230
         H            3.497733688797     1.010025096883    -0.432893711509     1.007825032230
         H            2.725008688797     2.612886096883    -0.440998711509     1.007825032230

  Basis Set: AUG-CC-PVTZ
    Blend: AUG-CC-PVTZ
  Basis Set: (AUG-CC-PVTZ AUX)
    Blend: AUG-CC-PVTZ-JKFIT
	 Reference Energy          =   -1245.3065581246687543 [Eh]
	 Singles Energy            =      -0.0000000000000000 [Eh]
	 Same-Spin Energy          =      -0.6425946493004617 [Eh]
	 Opposite-Spin Energy      =      -1.7974987929459689 [Eh]
	 Correlation Energy        =      -2.4400934422464307 [Eh]
	 Total Energy              =   -1247.7466515669152614 [Eh]

	 ================> DF-SCS-MP2 Energies <==================
	-----------------------------------------------------------
	 SCS Same-Spin Scale       =       0.3333333333333333 [-]
	 SCS Opposite-Spin Scale   =       1.2000000000000000 [-]
	 SCS Same-Spin Energy      =      -0.2141982164334872 [Eh]
	 SCS Opposite-Spin Energy  =      -2.1569985515351626 [Eh]
	 SCS Correlation Energy    =      -2.3711967679686499 [Eh]
	 SCS Total Energy          =   -1247.6777548926374948 [Eh]
	-----------------------------------------------------------

  Dipole Moment: [D]
     X:     7.7322      Y:     3.1854      Z:    -1.5981     Total:     8.5140

*** Psi4 exiting successfully. Buy a developer a beer!
