                               Psi4 1.3.2 release

  ==> Input File <==

--------------------------------------------------------------------------
#psi4
#
memory 32 gb

molecule  {
-3 1
  P        1.1931290    -0.6069630     0.0087730
  P       -1.8341790     0.1663700     0.0034510
  O        1.3559990     1.0186560    -0.3729610
  O       -0.3822848    -0.8145040    -0.2220524
  O        1.9273580    -1.4129110    -1.0480400
  O        1.6168640    -0.7815310     1.4560350
  O       -1.8106026     1.0815978    -1.2273105
  O       -1.6562150     0.8578460     1.3638040
  O       -2.8968830    -0.9395270    -0.0292720
  C        2.6258790     1.5668310    -0.0085760
  H        2.7349980     1.6139230     1.0781470
  H        3.4479520     0.9704660    -0.4205400
  H        2.6752270     2.5733270    -0.4286450
units angstrom
no_reorient  #important for SAPT in psi4, default
symmetry c1  #important for SAPT in psi4, default
}

set PROPERTIES_ORIGIN ["COM"]
properties('MP2/aug-cc-pvtz', properties = ['dipole'])
--------------------------------------------------------------------------

    Molecular point group: c1
  Charge       = -3
  Multiplicity = 1
  Basis Set: AUG-CC-PVTZ
    Blend: AUG-CC-PVTZ
  Basis Set: (AUG-CC-PVTZ AUX)
    Blend: AUG-CC-PVTZ-JKFIT

    Orbital Energies [Eh]
    ---------------------

    Doubly Occupied:

       1A    -79.620680     2A    -79.559403     3A    -20.151235
       4A    -20.078957     5A    -20.053135     6A    -20.051266
       7A    -20.000225     8A    -19.998938     9A    -19.997977
      10A    -10.915932    11A     -7.134778    12A     -7.073216
      13A     -5.034103    14A     -5.032557    15A     -5.031780
      16A     -4.972804    17A     -4.970334    18A     -4.970183
      19A     -0.964102    20A     -0.886245    21A     -0.841256
      22A     -0.802657    23A     -0.798616    24A     -0.742185
      25A     -0.741112    26A     -0.559489    27A     -0.335598
      28A     -0.281413    29A     -0.253049    30A     -0.227042
      31A     -0.187067    32A     -0.147076    33A     -0.143152
      34A     -0.113519    35A     -0.092627    36A     -0.088281
      37A     -0.062088    38A     -0.057208    39A     -0.043234
      40A     -0.037804    41A     -0.021212    42A      0.007343
      43A      0.020235    44A      0.022755    45A      0.025865
      46A      0.028815    47A      0.064280    48A      0.068508
      49A      0.092532

  @DF-RHF Final Energy: -1245.34544217827511

   => Energetics <=

    Nuclear Repulsion Energy =            820.9617916832689843
    One-Electron Energy =               -3407.1280647018920718
    Two-Electron Energy =                1340.8208308403479805
    Total Energy =                      -1245.3454421782751069
  Basis Set: (AUG-CC-PVTZ AUX)
    Blend: AUG-CC-PVTZ-RI
    Molecular point group: c1

    Geometry (in Angstrom), charge = -3, multiplicity = 1:

       Center              X                  Y                   Z               Mass
    ------------   -----------------  -----------------  -----------------  -----------------
         P            1.240449584320    -0.577917568809     0.012847830312    30.973761998420
         P           -1.786858415680     0.195415431191     0.007525830312    30.973761998420
         O            1.403319584320     1.047701431191    -0.368886169688    15.994914619570
         O           -0.334964215680    -0.785458568809    -0.217977569688    15.994914619570
         O            1.974678584320    -1.383865568809    -1.043965169688    15.994914619570
         O            1.664184584320    -0.752485568809     1.460109830312    15.994914619570
         O           -1.763282015680     1.110643231191    -1.223235669688    15.994914619570
         O           -1.608894415680     0.886891431191     1.367878830312    15.994914619570
         O           -2.849562415680    -0.910481568809    -0.025197169688    15.994914619570
         C            2.673199584320     1.595876431191    -0.004501169688    12.000000000000
         H            2.782318584320     1.642968431191     1.082221830312     1.007825032230
         H            3.495272584320     0.999511431191    -0.416465169688     1.007825032230
         H            2.722547584320     2.602372431191    -0.424570169688     1.007825032230

  Basis Set: AUG-CC-PVTZ
    Blend: AUG-CC-PVTZ
  Basis Set: (AUG-CC-PVTZ AUX)
    Blend: AUG-CC-PVTZ-JKFIT
	 Reference Energy          =   -1245.3454421782751069 [Eh]
	 Singles Energy            =      -0.0000000000000000 [Eh]
	 Same-Spin Energy          =      -0.6460731772584922 [Eh]
	 Opposite-Spin Energy      =      -1.8063515264047649 [Eh]
	 Correlation Energy        =      -2.4524247036632572 [Eh]
	 Total Energy              =   -1247.7978668819382619 [Eh]

	 ================> DF-SCS-MP2 Energies <==================
	-----------------------------------------------------------
	 SCS Same-Spin Scale       =       0.3333333333333333 [-]
	 SCS Opposite-Spin Scale   =       1.2000000000000000 [-]
	 SCS Same-Spin Energy      =      -0.2153577257528307 [Eh]
	 SCS Opposite-Spin Energy  =      -2.1676218316857176 [Eh]
	 SCS Correlation Energy    =      -2.3829795574385484 [Eh]
	 SCS Total Energy          =   -1247.7284217357137095 [Eh]
	-----------------------------------------------------------

  Dipole Moment: [D]
     X:     7.8012      Y:     2.3341      Z:    -0.4114     Total:     8.1533

*** Psi4 exiting successfully. Buy a developer a beer!
