                               Psi4 1.3.2 release

  ==> Input File <==

--------------------------------------------------------------------------
#psi4
#
memory 32 gb

molecule  {
-3 1
  P        1.1931290    -0.6069630     0.0087730
  P       -1.8341790     0.1663700     0.0034510
  O        1.3559990     1.0186560    -0.3729610
  O       -0.3712325    -0.8039615    -0.1945558
  O        1.9273580    -1.4129110    -1.0480400
  O        1.6168640    -0.7815310     1.4560350
  O       -1.8332320     1.0931450    -1.2188660
  O       -1.6562150     0.8578460     1.3638040
  O       -2.9159385    -0.9209849    -0.0261173
  C        2.6258790     1.5668310    -0.0085760
  H        2.7349980     1.6139230     1.0781470
  H        3.4479520     0.9704660    -0.4205400
  H        2.6752270     2.5733270    -0.4286450
units angstrom
no_reorient  #important for SAPT in psi4, default
symmetry c1  #important for SAPT in psi4, default
}

set PROPERTIES_ORIGIN ["COM"]
properties('MP2/aug-cc-pvtz', properties = ['dipole'])
--------------------------------------------------------------------------

    Molecular point group: c1
  Charge       = -3
  Multiplicity = 1
  Basis Set: AUG-CC-PVTZ
    Blend: AUG-CC-PVTZ
  Basis Set: (AUG-CC-PVTZ AUX)
    Blend: AUG-CC-PVTZ-JKFIT

    Orbital Energies [Eh]
    ---------------------

    Doubly Occupied:

       1A    -79.620060     2A    -79.560495     3A    -20.151059
       4A    -20.081271     5A    -20.054155     6A    -20.049783
       7A    -20.001153     8A    -19.998731     9A    -19.996591
      10A    -10.915839    11A     -7.134417    12A     -7.074225
      13A     -5.033767    14A     -5.032248    15A     -5.031384
      16A     -4.973794    17A     -4.971350    18A     -4.971176
      19A     -0.964915    20A     -0.890075    21A     -0.841392
      22A     -0.802363    23A     -0.801537    24A     -0.742380
      25A     -0.740033    26A     -0.559435    27A     -0.338045
      28A     -0.284249    29A     -0.253001    30A     -0.227676
      31A     -0.186729    32A     -0.148137    33A     -0.145064
      34A     -0.113964    35A     -0.094242    36A     -0.088837
      37A     -0.062368    38A     -0.057050    39A     -0.044633
      40A     -0.039167    41A     -0.021547    42A      0.007708
      43A      0.019714    44A      0.021605    45A      0.026038
      46A      0.028178    47A      0.064091    48A      0.068639
      49A      0.093157

  @DF-RHF Final Energy: -1245.34720036396970

   => Energetics <=

    Nuclear Repulsion Energy =            821.1005139843628058
    One-Electron Energy =               -3407.3570114183135047
    Two-Electron Energy =                1340.9092970699809939
    Total Energy =                      -1245.3472003639697050
  Basis Set: (AUG-CC-PVTZ AUX)
    Blend: AUG-CC-PVTZ-RI
    Molecular point group: c1

    Geometry (in Angstrom), charge = -3, multiplicity = 1:

       Center              X                  Y                   Z               Mass
    ------------   -----------------  -----------------  -----------------  -----------------
         P            1.243042882441    -0.581357380337     0.009538053646    30.973761998420
         P           -1.784265117559     0.191975619663     0.004216053646    30.973761998420
         O            1.405912882441     1.044261619663    -0.372195946354    15.994914619570
         O           -0.321318617559    -0.778355880337    -0.193790746354    15.994914619570
         O            1.977271882441    -1.387305380337    -1.047274946354    15.994914619570
         O            1.666777882441    -0.755925380337     1.456800053646    15.994914619570
         O           -1.783318117559     1.118750619663    -1.218100946354    15.994914619570
         O           -1.606301117559     0.883451619663     1.364569053646    15.994914619570
         O           -2.866024617559    -0.895379280337    -0.025352246354    15.994914619570
         C            2.675792882441     1.592436619663    -0.007810946354    12.000000000000
         H            2.784911882441     1.639528619663     1.078912053646     1.007825032230
         H            3.497865882441     0.996071619663    -0.419774946354     1.007825032230
         H            2.725140882441     2.598932619663    -0.427879946354     1.007825032230

  Basis Set: AUG-CC-PVTZ
    Blend: AUG-CC-PVTZ
  Basis Set: (AUG-CC-PVTZ AUX)
    Blend: AUG-CC-PVTZ-JKFIT
	 Reference Energy          =   -1245.3472003639697050 [Eh]
	 Singles Energy            =      -0.0000000000000000 [Eh]
	 Same-Spin Energy          =      -0.6457366613970953 [Eh]
	 Opposite-Spin Energy      =      -1.8055224280191418 [Eh]
	 Correlation Energy        =      -2.4512590894162369 [Eh]
	 Total Energy              =   -1247.7984594533859308 [Eh]

	 ================> DF-SCS-MP2 Energies <==================
	-----------------------------------------------------------
	 SCS Same-Spin Scale       =       0.3333333333333333 [-]
	 SCS Opposite-Spin Scale   =       1.2000000000000000 [-]
	 SCS Same-Spin Energy      =      -0.2152455537990318 [Eh]
	 SCS Opposite-Spin Energy  =      -2.1666269136229701 [Eh]
	 SCS Correlation Energy    =      -2.3818724674220020 [Eh]
	 SCS Total Energy          =   -1247.7290728313917043 [Eh]
	-----------------------------------------------------------

  Dipole Moment: [D]
     X:     7.8201      Y:     2.2528      Z:    -0.4897     Total:     8.1529

*** Psi4 exiting successfully. Buy a developer a beer!
