                               Psi4 1.3.2 release

  ==> Input File <==

--------------------------------------------------------------------------
#psi4
#
memory 32 gb

molecule  {
-3 1
  P        1.1931290    -0.6069630     0.0087730
  P       -1.8341790     0.1663700     0.0034510
  O        1.3559990     1.0186560    -0.3729610
  O       -0.3886030    -0.8294050    -0.1958090
  O        1.9273580    -1.4129110    -1.0480400
  O        1.5889516    -0.7700318     1.3607005
  O       -1.8332320     1.0931450    -1.2188660
  O       -1.6562150     0.8578460     1.3638040
  O       -2.8968830    -0.9395270    -0.0292720
  C        2.6258790     1.5668310    -0.0085760
  H        2.7349980     1.6139230     1.0781470
  H        3.4479520     0.9704660    -0.4205400
  H        2.6752270     2.5733270    -0.4286450
units angstrom
no_reorient  #important for SAPT in psi4, default
symmetry c1  #important for SAPT in psi4, default
}

set PROPERTIES_ORIGIN ["COM"]
properties('MP2/aug-cc-pvtz', properties = ['dipole'])
--------------------------------------------------------------------------

    Molecular point group: c1
  Charge       = -3
  Multiplicity = 1
  Basis Set: AUG-CC-PVTZ
    Blend: AUG-CC-PVTZ
  Basis Set: (AUG-CC-PVTZ AUX)
    Blend: AUG-CC-PVTZ-JKFIT

    Orbital Energies [Eh]
    ---------------------

    Doubly Occupied:

       1A    -79.600792     2A    -79.556331     3A    -20.145435
       4A    -20.072436     5A    -20.045732     6A    -20.045412
       7A    -19.996506     8A    -19.996416     9A    -19.995652
      10A    -10.914920    11A     -7.119665    12A     -7.070085
      13A     -5.018437    14A     -5.017833    15A     -5.016445
      16A     -4.969613    17A     -4.967240    18A     -4.967113
      19A     -0.965200    20A     -0.891233    21A     -0.853992
      22A     -0.811389    23A     -0.794156    24A     -0.739179
      25A     -0.738300    26A     -0.557727    27A     -0.328765
      28A     -0.279843    29A     -0.251549    30A     -0.224087
      31A     -0.188879    32A     -0.147703    33A     -0.144808
      34A     -0.117619    35A     -0.089245    36A     -0.087447
      37A     -0.064105    38A     -0.059586    39A     -0.045020
      40A     -0.039622    41A     -0.024363    42A      0.005564
      43A      0.020725    44A      0.025223    45A      0.027886
      46A      0.031362    47A      0.067637    48A      0.071235
      49A      0.095414

  @DF-RHF Final Energy: -1245.34072914618787

   => Energetics <=

    Nuclear Repulsion Energy =            825.3847128924365961
    One-Electron Energy =               -3416.2212152679771862
    Two-Electron Energy =                1345.4957732293526078
    Total Energy =                      -1245.3407291461878685
  Basis Set: (AUG-CC-PVTZ AUX)
    Blend: AUG-CC-PVTZ-RI
    Molecular point group: c1

    Geometry (in Angstrom), charge = -3, multiplicity = 1:

       Center              X                  Y                   Z               Mass
    ------------   -----------------  -----------------  -----------------  -----------------
         P            1.245263244642    -0.578607143005     0.017982057045    30.973761998420
         P           -1.782044755358     0.194725856995     0.012660057045    30.973761998420
         O            1.408133244642     1.047011856995    -0.363751942955    15.994914619570
         O           -0.336468755358    -0.801049143005    -0.186599942955    15.994914619570
         O            1.979492244642    -1.384555143005    -1.038830942955    15.994914619570
         O            1.641085844642    -0.741675943005     1.369909557045    15.994914619570
         O           -1.781097755358     1.121500856995    -1.209656942955    15.994914619570
         O           -1.604080755358     0.886201856995     1.373013057045    15.994914619570
         O           -2.844748755358    -0.911171143005    -0.020062942955    15.994914619570
         C            2.678013244642     1.595186856995     0.000633057045    12.000000000000
         H            2.787132244642     1.642278856995     1.087356057045     1.007825032230
         H            3.500086244642     0.998821856995    -0.411330942955     1.007825032230
         H            2.727361244642     2.601682856995    -0.419435942955     1.007825032230

  Basis Set: AUG-CC-PVTZ
    Blend: AUG-CC-PVTZ
  Basis Set: (AUG-CC-PVTZ AUX)
    Blend: AUG-CC-PVTZ-JKFIT
	 Reference Energy          =   -1245.3407291461878685 [Eh]
	 Singles Energy            =      -0.0000000000000000 [Eh]
	 Same-Spin Energy          =      -0.6441150285846767 [Eh]
	 Opposite-Spin Energy      =      -1.8015169670248630 [Eh]
	 Correlation Energy        =      -2.4456319956095398 [Eh]
	 Total Energy              =   -1247.7863611417974425 [Eh]

	 ================> DF-SCS-MP2 Energies <==================
	-----------------------------------------------------------
	 SCS Same-Spin Scale       =       0.3333333333333333 [-]
	 SCS Opposite-Spin Scale   =       1.2000000000000000 [-]
	 SCS Same-Spin Energy      =      -0.2147050095282256 [Eh]
	 SCS Opposite-Spin Energy  =      -2.1618203604298354 [Eh]
	 SCS Correlation Energy    =      -2.3765253699580611 [Eh]
	 SCS Total Energy          =   -1247.7172545161458856 [Eh]
	-----------------------------------------------------------

  Dipole Moment: [D]
     X:     8.1546      Y:     2.1955      Z:     0.0817     Total:     8.4454

*** Psi4 exiting successfully. Buy a developer a beer!
