                               Psi4 1.3.2 release

  ==> Input File <==

--------------------------------------------------------------------------
#psi4
#
memory 32 gb

molecule  {
-3 1
  P        1.1931290    -0.6069630     0.0087730
  P       -1.8341790     0.1663700     0.0034510
  O        1.3273800     1.0001404    -0.4539149
  O       -0.3886030    -0.8294050    -0.1958090
  O        1.9273580    -1.4129110    -1.0480400
  O        1.6011891    -0.8591369     1.4490813
  O       -1.8332320     1.0931450    -1.2188660
  O       -1.6562150     0.8578460     1.3638040
  O       -2.8968830    -0.9395270    -0.0292720
  C        2.6258790     1.5668310    -0.0085760
  H        2.7349980     1.6139230     1.0781470
  H        3.4479520     0.9704660    -0.4205400
  H        2.6752270     2.5733270    -0.4286450
units angstrom
no_reorient  #important for SAPT in psi4, default
symmetry c1  #important for SAPT in psi4, default
}

set PROPERTIES_ORIGIN ["COM"]
properties('MP2/aug-cc-pvtz', properties = ['dipole'])
--------------------------------------------------------------------------

    Molecular point group: c1
  Charge       = -3
  Multiplicity = 1
  Basis Set: AUG-CC-PVTZ
    Blend: AUG-CC-PVTZ
  Basis Set: (AUG-CC-PVTZ AUX)
    Blend: AUG-CC-PVTZ-JKFIT

    Orbital Energies [Eh]
    ---------------------

    Doubly Occupied:

       1A    -79.619969     2A    -79.557691     3A    -20.161107
       4A    -20.075812     5A    -20.054087     6A    -20.048404
       7A    -19.997829     8A    -19.997326     9A    -19.996913
      10A    -10.924827    11A     -7.134219    12A     -7.071476
      13A     -5.033520    14A     -5.031898    15A     -5.031236
      16A     -4.971016    17A     -4.968612    18A     -4.968490
      19A     -0.956183    20A     -0.881507    21A     -0.840080
      22A     -0.800861    23A     -0.796327    24A     -0.740317
      25A     -0.739519    26A     -0.567497    27A     -0.332546
      28A     -0.278416    29A     -0.252191    30A     -0.219460
      31A     -0.187668    32A     -0.146917    33A     -0.142630
      34A     -0.119792    35A     -0.092157    36A     -0.086232
      37A     -0.068453    38A     -0.055395    39A     -0.042120
      40A     -0.035569    41A     -0.022036    42A      0.008698
      43A      0.022704    44A      0.024164    45A      0.027060
      46A      0.030696    47A      0.066473    48A      0.069858
      49A      0.094273

  @DF-RHF Final Energy: -1245.33638304612441

   => Energetics <=

    Nuclear Repulsion Energy =            819.6216497996890666
    One-Electron Energy =               -3404.5073125985295519
    Two-Electron Energy =                1339.5492797527163020
    Total Energy =                      -1245.3363830461244106
  Basis Set: (AUG-CC-PVTZ AUX)
    Blend: AUG-CC-PVTZ-RI
    Molecular point group: c1

    Geometry (in Angstrom), charge = -3, multiplicity = 1:

       Center              X                  Y                   Z               Mass
    ------------   -----------------  -----------------  -----------------  -----------------
         P            1.246650071525    -0.569496177592     0.017353309704    30.973761998420
         P           -1.780657928475     0.203836822408     0.012031309704    30.973761998420
         O            1.380901071525     1.037607222408    -0.445334590296    15.994914619570
         O           -0.335081928475    -0.791938177592    -0.187228690296    15.994914619570
         O            1.980879071525    -1.375444177592    -1.039459690296    15.994914619570
         O            1.654710171525    -0.821670077592     1.457661609704    15.994914619570
         O           -1.779710928475     1.130611822408    -1.210285690296    15.994914619570
         O           -1.602693928475     0.895312822408     1.372384309704    15.994914619570
         O           -2.843361928475    -0.902060177592    -0.020691690296    15.994914619570
         C            2.679400071525     1.604297822408     0.000004309704    12.000000000000
         H            2.788519071525     1.651389822408     1.086727309704     1.007825032230
         H            3.501473071525     1.007932822408    -0.411959690296     1.007825032230
         H            2.728748071525     2.610793822408    -0.420064690296     1.007825032230

  Basis Set: AUG-CC-PVTZ
    Blend: AUG-CC-PVTZ
  Basis Set: (AUG-CC-PVTZ AUX)
    Blend: AUG-CC-PVTZ-JKFIT
	 Reference Energy          =   -1245.3363830461244106 [Eh]
	 Singles Energy            =      -0.0000000000000000 [Eh]
	 Same-Spin Energy          =      -0.6465554491396612 [Eh]
	 Opposite-Spin Energy      =      -1.8083344240936587 [Eh]
	 Correlation Energy        =      -2.4548898732333200 [Eh]
	 Total Energy              =   -1247.7912729193576524 [Eh]

	 ================> DF-SCS-MP2 Energies <==================
	-----------------------------------------------------------
	 SCS Same-Spin Scale       =       0.3333333333333333 [-]
	 SCS Opposite-Spin Scale   =       1.2000000000000000 [-]
	 SCS Same-Spin Energy      =      -0.2155184830465537 [Eh]
	 SCS Opposite-Spin Energy  =      -2.1700013089123904 [Eh]
	 SCS Correlation Energy    =      -2.3855197919589441 [Eh]
	 SCS Total Energy          =   -1247.7219028380834516 [Eh]
	-----------------------------------------------------------

  Dipole Moment: [D]
     X:     8.1104      Y:     2.6073      Z:    -0.3478     Total:     8.5262

*** Psi4 exiting successfully. Buy a developer a beer!
