                               Psi4 1.3.2 release

  ==> Input File <==

--------------------------------------------------------------------------
#psi4
#
memory 32 gb

molecule  {
-3 1
  P        1.1931290    -0.6069630     0.0087730
  P       -1.8341790     0.1663700     0.0034510
  O        1.3559990     1.0186560    -0.3729610
  O       -0.3935676    -0.8123827    -0.1740028
  O        1.9504277    -1.4042947    -1.0382509
  O        1.6168640    -0.7815310     1.4560350
  O       -1.8332320     1.0931450    -1.2188660
  O       -1.6562150     0.8578460     1.3638040
  O       -2.8968830    -0.9395270    -0.0292720
  C        2.6258790     1.5668310    -0.0085760
  H        2.7349980     1.6139230     1.0781470
  H        3.4479520     0.9704660    -0.4205400
  H        2.6752270     2.5733270    -0.4286450
units angstrom
no_reorient  #important for SAPT in psi4, default
symmetry c1  #important for SAPT in psi4, default
}

set PROPERTIES_ORIGIN ["COM"]
properties('MP2/aug-cc-pvtz', properties = ['dipole'])
--------------------------------------------------------------------------

    Molecular point group: c1
  Charge       = -3
  Multiplicity = 1
  Basis Set: AUG-CC-PVTZ
    Blend: AUG-CC-PVTZ
  Basis Set: (AUG-CC-PVTZ AUX)
    Blend: AUG-CC-PVTZ-JKFIT

    Orbital Energies [Eh]
    ---------------------

    Doubly Occupied:

       1A    -79.623457     2A    -79.558224     3A    -20.152157
       4A    -20.082106     5A    -20.057134     6A    -20.049545
       7A    -19.998780     8A    -19.998490     9A    -19.995262
      10A    -10.916461    11A     -7.137368    12A     -7.072104
      13A     -5.036719    14A     -5.035133    15A     -5.034368
      16A     -4.971706    17A     -4.969237    18A     -4.969089
      19A     -0.965163    20A     -0.888649    21A     -0.842971
      22A     -0.803046    23A     -0.799278    24A     -0.741461
      25A     -0.739049    26A     -0.560109    27A     -0.338423
      28A     -0.284149    29A     -0.253584    30A     -0.228121
      31A     -0.187076    32A     -0.147974    33A     -0.144175
      34A     -0.114574    35A     -0.094336    36A     -0.089458
      37A     -0.062883    38A     -0.056924    39A     -0.043270
      40A     -0.039113    41A     -0.023064    42A      0.007407
      43A      0.021283    44A      0.022288    45A      0.026481
      46A      0.027572    47A      0.065728    48A      0.069735
      49A      0.094083

  @DF-RHF Final Energy: -1245.34612461039410

   => Energetics <=

    Nuclear Repulsion Energy =            820.9148515979027252
    One-Electron Energy =               -3406.9827232450302290
    Two-Electron Energy =                1340.7217470367334045
    Total Energy =                      -1245.3461246103940994
  Basis Set: (AUG-CC-PVTZ AUX)
    Blend: AUG-CC-PVTZ-RI
    Molecular point group: c1

    Geometry (in Angstrom), charge = -3, multiplicity = 1:

       Center              X                  Y                   Z               Mass
    ------------   -----------------  -----------------  -----------------  -----------------
         P            1.241367489913    -0.579804157932     0.007236419657    30.973761998420
         P           -1.785940510087     0.193528842068     0.001914419657    30.973761998420
         O            1.404237489913     1.045814842068    -0.374497580343    15.994914619570
         O           -0.345329110087    -0.785223857932    -0.175539380343    15.994914619570
         O            1.998666189913    -1.377135857932    -1.039787480343    15.994914619570
         O            1.665102489913    -0.754372157932     1.454498419657    15.994914619570
         O           -1.784993510087     1.120303842068    -1.220402580343    15.994914619570
         O           -1.607976510087     0.885004842068     1.362267419657    15.994914619570
         O           -2.848644510087    -0.912368157932    -0.030808580343    15.994914619570
         C            2.674117489913     1.593989842068    -0.010112580343    12.000000000000
         H            2.783236489913     1.641081842068     1.076610419657     1.007825032230
         H            3.496190489913     0.997624842068    -0.422076580343     1.007825032230
         H            2.723465489913     2.600485842068    -0.430181580343     1.007825032230

  Basis Set: AUG-CC-PVTZ
    Blend: AUG-CC-PVTZ
  Basis Set: (AUG-CC-PVTZ AUX)
    Blend: AUG-CC-PVTZ-JKFIT
	 Reference Energy          =   -1245.3461246103940994 [Eh]
	 Singles Energy            =      -0.0000000000000000 [Eh]
	 Same-Spin Energy          =      -0.6458765754484178 [Eh]
	 Opposite-Spin Energy      =      -1.8058574512741461 [Eh]
	 Correlation Energy        =      -2.4517340267225638 [Eh]
	 Total Energy              =   -1247.7978586371166330 [Eh]

	 ================> DF-SCS-MP2 Energies <==================
	-----------------------------------------------------------
	 SCS Same-Spin Scale       =       0.3333333333333333 [-]
	 SCS Opposite-Spin Scale   =       1.2000000000000000 [-]
	 SCS Same-Spin Energy      =      -0.2152921918161393 [Eh]
	 SCS Opposite-Spin Energy  =      -2.1670289415289754 [Eh]
	 SCS Correlation Energy    =      -2.3823211333451146 [Eh]
	 SCS Total Energy          =   -1247.7284457437392575 [Eh]
	-----------------------------------------------------------

  Dipole Moment: [D]
     X:     7.9440      Y:     2.2502      Z:    -0.5429     Total:     8.2744

*** Psi4 exiting successfully. Buy a developer a beer!
