                               Psi4 1.3.2 release

  ==> Input File <==

--------------------------------------------------------------------------
#psi4
#
memory 32 gb

molecule  {
-3 1
  P        1.1931290    -0.6069630     0.0087730
  P       -1.8341790     0.1663700     0.0034510
  O        1.3559990     1.0186560    -0.3729610
  O       -0.3949549    -0.8443484    -0.1130796
  O        1.9273580    -1.4129110    -1.0480400
  O        1.5410319    -0.7968997     1.4742014
  O       -1.8332320     1.0931450    -1.2188660
  O       -1.6562150     0.8578460     1.3638040
  O       -2.8968830    -0.9395270    -0.0292720
  C        2.6258790     1.5668310    -0.0085760
  H        2.7349980     1.6139230     1.0781470
  H        3.4479520     0.9704660    -0.4205400
  H        2.6752270     2.5733270    -0.4286450
units angstrom
no_reorient  #important for SAPT in psi4, default
symmetry c1  #important for SAPT in psi4, default
}

set PROPERTIES_ORIGIN ["COM"]
properties('MP2/aug-cc-pvtz', properties = ['dipole'])
--------------------------------------------------------------------------

    Molecular point group: c1
  Charge       = -3
  Multiplicity = 1
  Basis Set: AUG-CC-PVTZ
    Blend: AUG-CC-PVTZ
  Basis Set: (AUG-CC-PVTZ AUX)
    Blend: AUG-CC-PVTZ-JKFIT

    Orbital Energies [Eh]
    ---------------------

    Doubly Occupied:

       1A    -79.621941     2A    -79.556775     3A    -20.156300
       4A    -20.075222     5A    -20.060476     6A    -20.046051
       7A    -20.000550     8A    -19.996117     9A    -19.992151
      10A    -10.920138    11A     -7.136044    12A     -7.070557
      13A     -5.035315    14A     -5.033935    15A     -5.032911
      16A     -4.970117    17A     -4.967714    18A     -4.967541
      19A     -0.967193    20A     -0.886220    21A     -0.840510
      22A     -0.804344    23A     -0.794593    24A     -0.740940
      25A     -0.736607    26A     -0.563467    27A     -0.336638
      28A     -0.282804    29A     -0.256992    30A     -0.230774
      31A     -0.185693    32A     -0.147397    33A     -0.143056
      34A     -0.115396    35A     -0.091730    36A     -0.087432
      37A     -0.065631    38A     -0.055996    39A     -0.040883
      40A     -0.036404    41A     -0.023750    42A      0.008960
      43A      0.022564    44A      0.025986    45A      0.027598
      46A      0.029368    47A      0.066652    48A      0.072489
      49A      0.095457

  @DF-RHF Final Energy: -1245.34067733496954

   => Energetics <=

    Nuclear Repulsion Energy =            820.9282247053615720
    One-Electron Energy =               -3407.0873483828322605
    Two-Electron Energy =                1340.8184463425011472
    Total Energy =                      -1245.3406773349695413
  Basis Set: (AUG-CC-PVTZ AUX)
    Blend: AUG-CC-PVTZ-RI
    Molecular point group: c1

    Geometry (in Angstrom), charge = -3, multiplicity = 1:

       Center              X                  Y                   Z               Mass
    ------------   -----------------  -----------------  -----------------  -----------------
         P            1.249857775903    -0.575067477233     0.001369570076    30.973761998420
         P           -1.777450224097     0.198265522767    -0.003952429924    30.973761998420
         O            1.412727775903     1.050551522767    -0.380364429924    15.994914619570
         O           -0.338226124097    -0.812452877233    -0.120483029924    15.994914619570
         O            1.984086775903    -1.381015477233    -1.055443429924    15.994914619570
         O            1.597760675903    -0.765004177233     1.466797970076    15.994914619570
         O           -1.776503224097     1.125040522767    -1.226269429924    15.994914619570
         O           -1.599486224097     0.889741522767     1.356400570076    15.994914619570
         O           -2.840154224097    -0.907631477233    -0.036675429924    15.994914619570
         C            2.682607775903     1.598726522767    -0.015979429924    12.000000000000
         H            2.791726775903     1.645818522767     1.070743570076     1.007825032230
         H            3.504680775903     1.002361522767    -0.427943429924     1.007825032230
         H            2.731955775903     2.605222522767    -0.436048429924     1.007825032230

  Basis Set: AUG-CC-PVTZ
    Blend: AUG-CC-PVTZ
  Basis Set: (AUG-CC-PVTZ AUX)
    Blend: AUG-CC-PVTZ-JKFIT
	 Reference Energy          =   -1245.3406773349695413 [Eh]
	 Singles Energy            =      -0.0000000000000000 [Eh]
	 Same-Spin Energy          =      -0.6461632476430722 [Eh]
	 Opposite-Spin Energy      =      -1.8065599605448242 [Eh]
	 Correlation Energy        =      -2.4527232081878965 [Eh]
	 Total Energy              =   -1247.7934005431575315 [Eh]

	 ================> DF-SCS-MP2 Energies <==================
	-----------------------------------------------------------
	 SCS Same-Spin Scale       =       0.3333333333333333 [-]
	 SCS Opposite-Spin Scale   =       1.2000000000000000 [-]
	 SCS Same-Spin Energy      =      -0.2153877492143574 [Eh]
	 SCS Opposite-Spin Energy  =      -2.1678719526537891 [Eh]
	 SCS Correlation Energy    =      -2.3832597018681465 [Eh]
	 SCS Total Energy          =   -1247.7239370368376967 [Eh]
	-----------------------------------------------------------

  Dipole Moment: [D]
     X:     8.1773      Y:     2.3657      Z:    -0.6665     Total:     8.5386

*** Psi4 exiting successfully. Buy a developer a beer!
