                               Psi4 1.3.2 release

  ==> Input File <==

--------------------------------------------------------------------------
#psi4
#
memory 32 gb

molecule  {
-3 1
  P        1.1931290    -0.6069630     0.0087730
  P       -1.8341790     0.1663700     0.0034510
  O        1.3559990     1.0186560    -0.3729610
  O       -0.3886030    -0.8294050    -0.1958090
  O        1.9273580    -1.4129110    -1.0480400
  O        1.6168640    -0.7815310     1.4560350
  O       -1.8332320     1.0931450    -1.2188660
  O       -1.6562150     0.8578460     1.3638040
  O       -2.8968830    -0.9395270    -0.0292720
  C        2.8034426     1.6434807     0.0423749
  H        2.7349980     1.6139230     1.0781470
  H        3.4479520     0.9704660    -0.4205400
  H        2.6752270     2.5733270    -0.4286450
units angstrom
no_reorient  #important for SAPT in psi4, default
symmetry c1  #important for SAPT in psi4, default
}

set PROPERTIES_ORIGIN ["COM"]
properties('MP2/aug-cc-pvtz', properties = ['dipole'])
--------------------------------------------------------------------------

    Molecular point group: c1
  Charge       = -3
  Multiplicity = 1
  Basis Set: AUG-CC-PVTZ
    Blend: AUG-CC-PVTZ
  Basis Set: (AUG-CC-PVTZ AUX)
    Blend: AUG-CC-PVTZ-JKFIT

    Orbital Energies [Eh]
    ---------------------

    Doubly Occupied:

       1A    -79.614954     2A    -79.556446     3A    -20.144693
       4A    -20.076622     5A    -20.049969     6A    -20.046319
       7A    -19.996563     8A    -19.996505     9A    -19.994682
      10A    -10.917551    11A     -7.128905    12A     -7.070233
      13A     -5.028073    14A     -5.026797    15A     -5.026002
      16A     -4.969788    17A     -4.967362    18A     -4.967229
      19A     -0.927829    20A     -0.866898    21A     -0.833859
      22A     -0.798341    23A     -0.795559    24A     -0.739207
      25A     -0.737617    26A     -0.586945    27A     -0.320022
      28A     -0.283126    29A     -0.274242    30A     -0.215328
      31A     -0.167397    32A     -0.148799    33A     -0.143716
      34A     -0.105163    35A     -0.089033    36A     -0.082469
      37A     -0.064526    38A     -0.052620    39A     -0.038537
      40A     -0.034179    41A     -0.015028    42A      0.013339
      43A      0.024637    44A      0.025301    45A      0.028836
      46A      0.031786    47A      0.067766    48A      0.071383
      49A      0.095786

  @DF-RHF Final Energy: -1245.30898756492024

   => Energetics <=

    Nuclear Repulsion Energy =            815.7558702614330741
    One-Electron Energy =               -3397.0491173894110943
    Two-Electron Energy =                1335.9842595630580036
    Total Energy =                      -1245.3089875649202440
  Basis Set: (AUG-CC-PVTZ AUX)
    Blend: AUG-CC-PVTZ-RI
    Molecular point group: c1

    Geometry (in Angstrom), charge = -3, multiplicity = 1:

       Center              X                  Y                   Z               Mass
    ------------   -----------------  -----------------  -----------------  -----------------
         P            1.231622499523    -0.582501953995     0.006675134300    30.973761998420
         P           -1.795685500477     0.190831046005     0.001353134300    30.973761998420
         O            1.394492499523     1.043117046005    -0.375058865700    15.994914619570
         O           -0.350109500477    -0.804943953995    -0.197906865700    15.994914619570
         O            1.965851499523    -1.388449953995    -1.050137865700    15.994914619570
         O            1.655357499523    -0.757069953995     1.453937134300    15.994914619570
         O           -1.794738500477     1.117606046005    -1.220963865700    15.994914619570
         O           -1.617721500477     0.882307046005     1.361706134300    15.994914619570
         O           -2.858389500477    -0.915065953995    -0.031369865700    15.994914619570
         C            2.841936099523     1.667941746005     0.040277034300    12.000000000000
         H            2.773491499523     1.638384046005     1.076049134300     1.007825032230
         H            3.486445499523     0.994927046005    -0.422637865700     1.007825032230
         H            2.713720499523     2.597788046005    -0.430742865700     1.007825032230

  Basis Set: AUG-CC-PVTZ
    Blend: AUG-CC-PVTZ
  Basis Set: (AUG-CC-PVTZ AUX)
    Blend: AUG-CC-PVTZ-JKFIT
	 Reference Energy          =   -1245.3089875649202440 [Eh]
	 Singles Energy            =      -0.0000000000000000 [Eh]
	 Same-Spin Energy          =      -0.6474881121570502 [Eh]
	 Opposite-Spin Energy      =      -1.8116675391620909 [Eh]
	 Correlation Energy        =      -2.4591556513191408 [Eh]
	 Total Energy              =   -1247.7681432162394231 [Eh]

	 ================> DF-SCS-MP2 Energies <==================
	-----------------------------------------------------------
	 SCS Same-Spin Scale       =       0.3333333333333333 [-]
	 SCS Opposite-Spin Scale   =       1.2000000000000000 [-]
	 SCS Same-Spin Energy      =      -0.2158293707190167 [Eh]
	 SCS Opposite-Spin Energy  =      -2.1740010469945088 [Eh]
	 SCS Correlation Energy    =      -2.3898304177135254 [Eh]
	 SCS Total Energy          =   -1247.6988179826337273 [Eh]
	-----------------------------------------------------------

  Dipole Moment: [D]
     X:     8.4037      Y:     2.7007      Z:    -0.3854     Total:     8.8354

*** Psi4 exiting successfully. Buy a developer a beer!
