                               Psi4 1.3.2 release

  ==> Input File <==

--------------------------------------------------------------------------
#psi4
#
memory 32 gb

molecule  {
-3 1
  P        1.1931290    -0.6069630     0.0087730
  P       -1.8341790     0.1663700     0.0034510
  O        1.3559990     1.0186560    -0.3729610
  O       -0.4020455    -0.7781555    -0.1302301
  O        1.9958680    -1.3863361    -1.0177190
  O        1.6168640    -0.7815310     1.4560350
  O       -1.8332320     1.0931450    -1.2188660
  O       -1.6562150     0.8578460     1.3638040
  O       -2.8968830    -0.9395270    -0.0292720
  C        2.6258790     1.5668310    -0.0085760
  H        2.7349980     1.6139230     1.0781470
  H        3.4479520     0.9704660    -0.4205400
  H        2.6752270     2.5733270    -0.4286450
units angstrom
no_reorient  #important for SAPT in psi4, default
symmetry c1  #important for SAPT in psi4, default
}

set PROPERTIES_ORIGIN ["COM"]
properties('MP2/aug-cc-pvtz', properties = ['dipole'])
--------------------------------------------------------------------------

    Molecular point group: c1
  Charge       = -3
  Multiplicity = 1
  Basis Set: AUG-CC-PVTZ
    Blend: AUG-CC-PVTZ
  Basis Set: (AUG-CC-PVTZ AUX)
    Blend: AUG-CC-PVTZ-JKFIT

    Orbital Energies [Eh]
    ---------------------

    Doubly Occupied:

       1A    -79.626383     2A    -79.556524     3A    -20.150708
       4A    -20.084954     5A    -20.061721     6A    -20.046982
       7A    -19.998086     8A    -19.997964     9A    -19.991285
      10A    -10.915183    11A     -7.140044    12A     -7.070566
      13A     -5.039479    14A     -5.037777    15A     -5.037058
      16A     -4.970251    17A     -4.967728    18A     -4.967545
      19A     -0.965204    20A     -0.892909    21A     -0.846120
      22A     -0.804155    23A     -0.798356    24A     -0.741051
      25A     -0.736786    26A     -0.559068    27A     -0.343705
      28A     -0.287375    29A     -0.252439    30A     -0.227508
      31A     -0.187464    32A     -0.149998    33A     -0.144285
      34A     -0.114788    35A     -0.097618    36A     -0.091200
      37A     -0.062155    38A     -0.055685    39A     -0.043867
      40A     -0.040722    41A     -0.024603    42A      0.007427
      43A      0.020457    44A      0.022441    45A      0.027687
      46A      0.027823    47A      0.066550    48A      0.072403
      49A      0.095616

  @DF-RHF Final Energy: -1245.34574572721658

   => Energetics <=

    Nuclear Repulsion Energy =            821.8763896937851996
    One-Electron Energy =               -3408.8704784968567765
    Two-Electron Energy =                1341.6483430758548820
    Total Energy =                      -1245.3457457272165811
  Basis Set: (AUG-CC-PVTZ AUX)
    Blend: AUG-CC-PVTZ-RI
    Molecular point group: c1

    Geometry (in Angstrom), charge = -3, multiplicity = 1:

       Center              X                  Y                   Z               Mass
    ------------   -----------------  -----------------  -----------------  -----------------
         P            1.238238322866    -0.584222109301     0.001792513545    30.973761998420
         P           -1.789069677134     0.189110890699    -0.003529486455    30.973761998420
         O            1.401108322866     1.041396890699    -0.379941486455    15.994914619570
         O           -0.356936177134    -0.755414609301    -0.137210586455    15.994914619570
         O            2.040977322866    -1.363595209301    -1.024699486455    15.994914619570
         O            1.661973322866    -0.758790109301     1.449054513545    15.994914619570
         O           -1.788122677134     1.115885890699    -1.225846486455    15.994914619570
         O           -1.611105677134     0.880586890699     1.356823513545    15.994914619570
         O           -2.851773677134    -0.916786109301    -0.036252486455    15.994914619570
         C            2.670988322866     1.589571890699    -0.015556486455    12.000000000000
         H            2.780107322866     1.636663890699     1.071166513545     1.007825032230
         H            3.493061322866     0.993206890699    -0.427520486455     1.007825032230
         H            2.720336322866     2.596067890699    -0.435625486455     1.007825032230

  Basis Set: AUG-CC-PVTZ
    Blend: AUG-CC-PVTZ
  Basis Set: (AUG-CC-PVTZ AUX)
    Blend: AUG-CC-PVTZ-JKFIT
	 Reference Energy          =   -1245.3457457272165811 [Eh]
	 Singles Energy            =      -0.0000000000000000 [Eh]
	 Same-Spin Energy          =      -0.6456868844863644 [Eh]
	 Opposite-Spin Energy      =      -1.8051404026550659 [Eh]
	 Correlation Energy        =      -2.4508272871414301 [Eh]
	 Total Energy              =   -1247.7965730143580458 [Eh]

	 ================> DF-SCS-MP2 Energies <==================
	-----------------------------------------------------------
	 SCS Same-Spin Scale       =       0.3333333333333333 [-]
	 SCS Opposite-Spin Scale   =       1.2000000000000000 [-]
	 SCS Same-Spin Energy      =      -0.2152289614954548 [Eh]
	 SCS Opposite-Spin Energy  =      -2.1661684831860790 [Eh]
	 SCS Correlation Energy    =      -2.3813974446815340 [Eh]
	 SCS Total Energy          =   -1247.7271431718982058 [Eh]
	-----------------------------------------------------------

  Dipole Moment: [D]
     X:     8.0021      Y:     2.0868      Z:    -0.6851     Total:     8.2981

*** Psi4 exiting successfully. Buy a developer a beer!
