                               Psi4 1.3.2 release

  ==> Input File <==

--------------------------------------------------------------------------
#psi4
#
memory 32 gb

molecule  {
-3 1
  P        1.1931290    -0.6069630     0.0087730
  P       -1.8341790     0.1663700     0.0034510
  O        1.3638987     1.0150318    -0.3847434
  O       -0.3886030    -0.8294050    -0.1958090
  O        1.9307642    -1.4016663    -1.0541659
  O        1.6168640    -0.7815310     1.4560350
  O       -1.8332320     1.0931450    -1.2188660
  O       -1.6562150     0.8578460     1.3638040
  O       -2.8968830    -0.9395270    -0.0292720
  C        2.6258790     1.5668310    -0.0085760
  H        2.7349980     1.6139230     1.0781470
  H        3.4479520     0.9704660    -0.4205400
  H        2.6752270     2.5733270    -0.4286450
units angstrom
no_reorient  #important for SAPT in psi4, default
symmetry c1  #important for SAPT in psi4, default
}

set PROPERTIES_ORIGIN ["COM"]
properties('MP2/aug-cc-pvtz', properties = ['dipole'])
--------------------------------------------------------------------------

    Molecular point group: c1
  Charge       = -3
  Multiplicity = 1
  Basis Set: AUG-CC-PVTZ
    Blend: AUG-CC-PVTZ
  Basis Set: (AUG-CC-PVTZ AUX)
    Blend: AUG-CC-PVTZ-JKFIT

    Orbital Energies [Eh]
    ---------------------

    Doubly Occupied:

       1A    -79.622124     2A    -79.559337     3A    -20.151941
       4A    -20.081047     5A    -20.054053     6A    -20.051749
       7A    -19.999399     8A    -19.998978     9A    -19.997535
      10A    -10.916450    11A     -7.136158    12A     -7.073151
      13A     -5.035470    14A     -5.033952    15A     -5.033133
      16A     -4.972717    17A     -4.970264    18A     -4.970132
      19A     -0.965408    20A     -0.886851    21A     -0.841558
      22A     -0.803308    23A     -0.799132    24A     -0.741895
      25A     -0.740433    26A     -0.559974    27A     -0.336145
      28A     -0.282318    29A     -0.253952    30A     -0.228511
      31A     -0.187137    32A     -0.147420    33A     -0.143673
      34A     -0.113798    35A     -0.093104    36A     -0.088770
      37A     -0.063081    38A     -0.057922    39A     -0.043372
      40A     -0.038038    41A     -0.021654    42A      0.007016
      43A      0.020760    44A      0.022513    45A      0.025651
      46A      0.028033    47A      0.064910    48A      0.068354
      49A      0.093087

  @DF-RHF Final Energy: -1245.34556133632782

   => Energetics <=

    Nuclear Repulsion Energy =            820.4087965930815471
    One-Electron Energy =               -3405.9792827327860323
    Two-Electron Energy =                1340.2249248033765525
    Total Energy =                      -1245.3455613363278189
  Basis Set: (AUG-CC-PVTZ AUX)
    Blend: AUG-CC-PVTZ-RI
    Molecular point group: c1

    Geometry (in Angstrom), charge = -3, multiplicity = 1:

       Center              X                  Y                   Z               Mass
    ------------   -----------------  -----------------  -----------------  -----------------
         P            1.241943097357    -0.578278779581     0.011427301034    30.973761998420
         P           -1.785364902643     0.195054220419     0.006105301034    30.973761998420
         O            1.412712797357     1.043716020419    -0.382089098966    15.994914619570
         O           -0.339788902643    -0.800720779581    -0.193154698966    15.994914619570
         O            1.979578297357    -1.372982079581    -1.051511598966    15.994914619570
         O            1.665678097357    -0.752846779581     1.458689301034    15.994914619570
         O           -1.784417902643     1.121829220419    -1.216211698966    15.994914619570
         O           -1.607400902643     0.886530220419     1.366458301034    15.994914619570
         O           -2.848068902643    -0.910842779581    -0.026617698966    15.994914619570
         C            2.674693097357     1.595515220419    -0.005921698966    12.000000000000
         H            2.783812097357     1.642607220419     1.080801301034     1.007825032230
         H            3.496766097357     0.999150220419    -0.417885698966     1.007825032230
         H            2.724041097357     2.602011220419    -0.425990698966     1.007825032230

  Basis Set: AUG-CC-PVTZ
    Blend: AUG-CC-PVTZ
  Basis Set: (AUG-CC-PVTZ AUX)
    Blend: AUG-CC-PVTZ-JKFIT
	 Reference Energy          =   -1245.3455613363278189 [Eh]
	 Singles Energy            =      -0.0000000000000000 [Eh]
	 Same-Spin Energy          =      -0.6460108875437491 [Eh]
	 Opposite-Spin Energy      =      -1.8062453079659706 [Eh]
	 Correlation Energy        =      -2.4522561955097197 [Eh]
	 Total Energy              =   -1247.7978175318376088 [Eh]

	 ================> DF-SCS-MP2 Energies <==================
	-----------------------------------------------------------
	 SCS Same-Spin Scale       =       0.3333333333333333 [-]
	 SCS Opposite-Spin Scale   =       1.2000000000000000 [-]
	 SCS Same-Spin Energy      =      -0.2153369625145830 [Eh]
	 SCS Opposite-Spin Energy  =      -2.1674943695591646 [Eh]
	 SCS Correlation Energy    =      -2.3828313320737475 [Eh]
	 SCS Total Energy          =   -1247.7283926684015114 [Eh]
	-----------------------------------------------------------

  Dipole Moment: [D]
     X:     7.8815      Y:     2.3059      Z:    -0.4430     Total:     8.2238

*** Psi4 exiting successfully. Buy a developer a beer!
