                               Psi4 1.3.2 release

  ==> Input File <==

--------------------------------------------------------------------------
#psi4
#
memory 32 gb

molecule  {
-3 1
  P        1.1931290    -0.6069630     0.0087730
  P       -1.8341790     0.1663700     0.0034510
  O        1.3559990     1.0186560    -0.3729610
  O       -0.3912031    -0.8344559    -0.1682837
  O        1.9273580    -1.4129110    -1.0480400
  O        1.5917055    -0.7867092     1.4625339
  O       -1.8332320     1.0931450    -1.2188660
  O       -1.6562150     0.8578460     1.3638040
  O       -2.8968830    -0.9395270    -0.0292720
  C        2.6258790     1.5668310    -0.0085760
  H        2.7349980     1.6139230     1.0781470
  H        3.4479520     0.9704660    -0.4205400
  H        2.6752270     2.5733270    -0.4286450
units angstrom
no_reorient  #important for SAPT in psi4, default
symmetry c1  #important for SAPT in psi4, default
}

set PROPERTIES_ORIGIN ["COM"]
properties('MP2/aug-cc-pvtz', properties = ['dipole'])
--------------------------------------------------------------------------

    Molecular point group: c1
  Charge       = -3
  Multiplicity = 1
  Basis Set: AUG-CC-PVTZ
    Blend: AUG-CC-PVTZ
  Basis Set: (AUG-CC-PVTZ AUX)
    Blend: AUG-CC-PVTZ-JKFIT

    Orbital Energies [Eh]
    ---------------------

    Doubly Occupied:

       1A    -79.622038     2A    -79.558259     3A    -20.154041
       4A    -20.078837     5A    -20.056696     6A    -20.049312
       7A    -19.999632     8A    -19.997810     9A    -19.995487
      10A    -10.918129    11A     -7.136089    12A     -7.072063
      13A     -5.035387    14A     -5.033909    15A     -5.033038
      16A     -4.971627    17A     -4.969191    18A     -4.969049
      19A     -0.965871    20A     -0.886533    21A     -0.841148
      22A     -0.803201    23A     -0.797838    24A     -0.741405
      25A     -0.738962    26A     -0.561596    27A     -0.336382
      28A     -0.282499    29A     -0.255119    30A     -0.229209
      31A     -0.186521    32A     -0.147149    33A     -0.143673
      34A     -0.114828    35A     -0.092427    36A     -0.088292
      37A     -0.064113    38A     -0.057017    39A     -0.042292
      40A     -0.037513    41A     -0.022738    42A      0.007920
      43A      0.022197    44A      0.022944    45A      0.026456
      46A      0.028418    47A      0.065862    48A      0.069715
      49A      0.094055

  @DF-RHF Final Energy: -1245.34430428232963

   => Energetics <=

    Nuclear Repulsion Energy =            820.6077908242168633
    One-Electron Energy =               -3406.4054849537801601
    Two-Electron Energy =                1340.4533898472336659
    Total Energy =                      -1245.3443042823296310
  Basis Set: (AUG-CC-PVTZ AUX)
    Blend: AUG-CC-PVTZ-RI
    Molecular point group: c1

    Geometry (in Angstrom), charge = -3, multiplicity = 1:

       Center              X                  Y                   Z               Mass
    ------------   -----------------  -----------------  -----------------  -----------------
         P            1.245250224224    -0.576767666122     0.007030793565    30.973761998420
         P           -1.782057775776     0.196565333878     0.001708793565    30.973761998420
         O            1.408120224224     1.048851333878    -0.374703206435    15.994914619570
         O           -0.339081875776    -0.804260566122    -0.170025906435    15.994914619570
         O            1.979479224224    -1.382715666122    -1.049782206435    15.994914619570
         O            1.643826724224    -0.756513866122     1.460791693565    15.994914619570
         O           -1.781110775776     1.123340333878    -1.220608206435    15.994914619570
         O           -1.604093775776     0.888041333878     1.362061793565    15.994914619570
         O           -2.844761775776    -0.909331666122    -0.031014206435    15.994914619570
         C            2.678000224224     1.597026333878    -0.010318206435    12.000000000000
         H            2.787119224224     1.644118333878     1.076404793565     1.007825032230
         H            3.500073224224     1.000661333878    -0.422282206435     1.007825032230
         H            2.727348224224     2.603522333878    -0.430387206435     1.007825032230

  Basis Set: AUG-CC-PVTZ
    Blend: AUG-CC-PVTZ
  Basis Set: (AUG-CC-PVTZ AUX)
    Blend: AUG-CC-PVTZ-JKFIT
	 Reference Energy          =   -1245.3443042823296310 [Eh]
	 Singles Energy            =      -0.0000000000000000 [Eh]
	 Same-Spin Energy          =      -0.6460353197969040 [Eh]
	 Opposite-Spin Energy      =      -1.8063270457828744 [Eh]
	 Correlation Energy        =      -2.4523623655797784 [Eh]
	 Total Energy              =   -1247.7966666479094329 [Eh]

	 ================> DF-SCS-MP2 Energies <==================
	-----------------------------------------------------------
	 SCS Same-Spin Scale       =       0.3333333333333333 [-]
	 SCS Opposite-Spin Scale   =       1.2000000000000000 [-]
	 SCS Same-Spin Energy      =      -0.2153451065989680 [Eh]
	 SCS Opposite-Spin Energy  =      -2.1675924549394492 [Eh]
	 SCS Correlation Energy    =      -2.3829375615384172 [Eh]
	 SCS Total Energy          =   -1247.7272418438681143 [Eh]
	-----------------------------------------------------------

  Dipole Moment: [D]
     X:     8.0063      Y:     2.3422      Z:    -0.5373     Total:     8.3591

*** Psi4 exiting successfully. Buy a developer a beer!
