                               Psi4 1.3.2 release

  ==> Input File <==

--------------------------------------------------------------------------
#psi4
#
memory 32 gb

molecule  {
-3 1
  P        1.1931290    -0.6069630     0.0087730
  P       -1.8341790     0.1663700     0.0034510
  O        1.3512581     1.0158783    -0.3865320
  O       -0.3886030    -0.8294050    -0.1958090
  O        1.9273580    -1.4129110    -1.0480400
  O        1.6143311    -0.7945043     1.4551511
  O       -1.8332320     1.0931450    -1.2188660
  O       -1.6562150     0.8578460     1.3638040
  O       -2.8968830    -0.9395270    -0.0292720
  C        2.6258790     1.5668310    -0.0085760
  H        2.7349980     1.6139230     1.0781470
  H        3.4479520     0.9704660    -0.4205400
  H        2.6752270     2.5733270    -0.4286450
units angstrom
no_reorient  #important for SAPT in psi4, default
symmetry c1  #important for SAPT in psi4, default
}

set PROPERTIES_ORIGIN ["COM"]
properties('MP2/aug-cc-pvtz', properties = ['dipole'])
--------------------------------------------------------------------------

    Molecular point group: c1
  Charge       = -3
  Multiplicity = 1
  Basis Set: AUG-CC-PVTZ
    Blend: AUG-CC-PVTZ
  Basis Set: (AUG-CC-PVTZ AUX)
    Blend: AUG-CC-PVTZ-JKFIT

    Orbital Energies [Eh]
    ---------------------

    Doubly Occupied:

       1A    -79.621615     2A    -79.558831     3A    -20.154292
       4A    -20.079719     5A    -20.053647     6A    -20.051378
       7A    -19.998994     8A    -19.998503     9A    -19.997169
      10A    -10.918391    11A     -7.135691    12A     -7.072639
      13A     -5.034994    14A     -5.033461    15A     -5.032683
      16A     -4.972198    17A     -4.969758    18A     -4.969628
      19A     -0.963611    20A     -0.885731    21A     -0.841215
      22A     -0.802571    23A     -0.798490    24A     -0.741465
      25A     -0.740050    26A     -0.561772    27A     -0.335501
      28A     -0.281466    29A     -0.253763    30A     -0.226947
      31A     -0.187133    32A     -0.147120    33A     -0.143481
      34A     -0.115375    35A     -0.092474    36A     -0.088329
      37A     -0.064202    38A     -0.057254    39A     -0.042887
      40A     -0.037643    41A     -0.022160    42A      0.007437
      43A      0.021302    44A      0.022969    45A      0.026065
      46A      0.028690    47A      0.065389    48A      0.068811
      49A      0.093478

  @DF-RHF Final Energy: -1245.34431475360680

   => Energetics <=

    Nuclear Repulsion Energy =            820.2941796337065625
    One-Electron Energy =               -3405.7768033711076896
    Two-Electron Energy =                1340.1383089837941043
    Total Energy =                      -1245.3443147536067954
  Basis Set: (AUG-CC-PVTZ AUX)
    Blend: AUG-CC-PVTZ-RI
    Molecular point group: c1

    Geometry (in Angstrom), charge = -3, multiplicity = 1:

       Center              X                  Y                   Z               Mass
    ------------   -----------------  -----------------  -----------------  -----------------
         P            1.243516019705    -0.576300192486     0.011134942705    30.973761998420
         P           -1.783791980295     0.197032807514     0.005812942705    30.973761998420
         O            1.401645119705     1.046541107514    -0.384170057295    15.994914619570
         O           -0.338215980295    -0.798742192486    -0.193447057295    15.994914619570
         O            1.977745019705    -1.382248192486    -1.045678057295    15.994914619570
         O            1.664718119705    -0.763841492486     1.457513042705    15.994914619570
         O           -1.782844980295     1.123807807514    -1.216504057295    15.994914619570
         O           -1.605827980295     0.888508807514     1.366165942705    15.994914619570
         O           -2.846495980295    -0.908864192486    -0.026910057295    15.994914619570
         C            2.676266019705     1.597493807514    -0.006214057295    12.000000000000
         H            2.785385019705     1.644585807514     1.080508942705     1.007825032230
         H            3.498339019705     1.001128807514    -0.418178057295     1.007825032230
         H            2.725614019705     2.603989807514    -0.426283057295     1.007825032230

  Basis Set: AUG-CC-PVTZ
    Blend: AUG-CC-PVTZ
  Basis Set: (AUG-CC-PVTZ AUX)
    Blend: AUG-CC-PVTZ-JKFIT
	 Reference Energy          =   -1245.3443147536067954 [Eh]
	 Singles Energy            =      -0.0000000000000000 [Eh]
	 Same-Spin Energy          =      -0.6460958824465967 [Eh]
	 Opposite-Spin Energy      =      -1.8066177587983090 [Eh]
	 Correlation Energy        =      -2.4527136412449058 [Eh]
	 Total Energy              =   -1247.7970283948516226 [Eh]

	 ================> DF-SCS-MP2 Energies <==================
	-----------------------------------------------------------
	 SCS Same-Spin Scale       =       0.3333333333333333 [-]
	 SCS Opposite-Spin Scale   =       1.2000000000000000 [-]
	 SCS Same-Spin Energy      =      -0.2153652941488655 [Eh]
	 SCS Opposite-Spin Energy  =      -2.1679413105579708 [Eh]
	 SCS Correlation Energy    =      -2.3833066047068363 [Eh]
	 SCS Total Energy          =   -1247.7276213583136268 [Eh]
	-----------------------------------------------------------

  Dipole Moment: [D]
     X:     7.9483      Y:     2.3800      Z:    -0.4506     Total:     8.3092

*** Psi4 exiting successfully. Buy a developer a beer!
