                               Psi4 1.3.2 release

  ==> Input File <==

--------------------------------------------------------------------------
#psi4
#
memory 32 gb

molecule  {
-3 1
  P        1.1931290    -0.6069630     0.0087730
  P       -1.8341790     0.1663700     0.0034510
  O        1.3559990     1.0186560    -0.3729610
  O       -0.3592283    -0.7989213    -0.1135763
  O        1.9273580    -1.4129110    -1.0480400
  O        1.6168640    -0.7815310     1.4560350
  O       -1.8332320     1.0931450    -1.2188660
  O       -1.5858494     0.8196734     1.3716241
  O       -2.8968830    -0.9395270    -0.0292720
  C        2.6258790     1.5668310    -0.0085760
  H        2.7349980     1.6139230     1.0781470
  H        3.4479520     0.9704660    -0.4205400
  H        2.6752270     2.5733270    -0.4286450
units angstrom
no_reorient  #important for SAPT in psi4, default
symmetry c1  #important for SAPT in psi4, default
}

set PROPERTIES_ORIGIN ["COM"]
properties('MP2/aug-cc-pvtz', properties = ['dipole'])
--------------------------------------------------------------------------

    Molecular point group: c1
  Charge       = -3
  Multiplicity = 1
  Basis Set: AUG-CC-PVTZ
    Blend: AUG-CC-PVTZ
  Basis Set: (AUG-CC-PVTZ AUX)
    Blend: AUG-CC-PVTZ-JKFIT

    Orbital Energies [Eh]
    ---------------------

    Doubly Occupied:

       1A    -79.613606     2A    -79.562406     3A    -20.147833
       4A    -20.073901     5A    -20.052606     6A    -20.041017
       7A    -20.005493     8A    -20.004656     9A    -19.994295
      10A    -10.913479    11A     -7.128382    12A     -7.076088
      13A     -5.027768    14A     -5.026265    15A     -5.025297
      16A     -4.975786    17A     -4.973215    18A     -4.972937
      19A     -0.962321    20A     -0.890282    21A     -0.839341
      22A     -0.802284    23A     -0.796046    24A     -0.746825
      25A     -0.741108    26A     -0.556857    27A     -0.336176
      28A     -0.283738    29A     -0.250334    30A     -0.225681
      31A     -0.182977    32A     -0.147957    33A     -0.144181
      34A     -0.111087    35A     -0.094908    36A     -0.087934
      37A     -0.060729    38A     -0.055535    39A     -0.042435
      40A     -0.036753    41A     -0.018260    42A      0.012456
      43A      0.018064    44A      0.022247    45A      0.024685
      46A      0.031652    47A      0.060464    48A      0.070015
      49A      0.090130

  @DF-RHF Final Energy: -1245.34485018460032

   => Energetics <=

    Nuclear Repulsion Energy =            823.1749759909708928
    One-Electron Energy =               -3411.6415232001254481
    Two-Electron Energy =                1343.1216970245543507
    Total Energy =                      -1245.3448501846003182
  Basis Set: (AUG-CC-PVTZ AUX)
    Blend: AUG-CC-PVTZ-RI
    Molecular point group: c1

    Geometry (in Angstrom), charge = -3, multiplicity = 1:

       Center              X                  Y                   Z               Mass
    ------------   -----------------  -----------------  -----------------  -----------------
         P            1.234456407903    -0.576982714662     0.002287517999    30.973761998420
         P           -1.792851592097     0.196350285338    -0.003034482001    30.973761998420
         O            1.397326407903     1.048636285338    -0.379446482001    15.994914619570
         O           -0.317900892097    -0.768941014662    -0.120061782001    15.994914619570
         O            1.968685407903    -1.382930714662    -1.054525482001    15.994914619570
         O            1.658191407903    -0.751550714662     1.449549517999    15.994914619570
         O           -1.791904592097     1.123125285338    -1.225351482001    15.994914619570
         O           -1.544521992097     0.849653685338     1.365138617999    15.994914619570
         O           -2.855555592097    -0.909546714662    -0.035757482001    15.994914619570
         C            2.667206407903     1.596811285338    -0.015061482001    12.000000000000
         H            2.776325407903     1.643903285338     1.071661517999     1.007825032230
         H            3.489279407903     1.000446285338    -0.427025482001     1.007825032230
         H            2.716554407903     2.603307285338    -0.435130482001     1.007825032230

  Basis Set: AUG-CC-PVTZ
    Blend: AUG-CC-PVTZ
  Basis Set: (AUG-CC-PVTZ AUX)
    Blend: AUG-CC-PVTZ-JKFIT
	 Reference Energy          =   -1245.3448501846003182 [Eh]
	 Singles Energy            =      -0.0000000000000000 [Eh]
	 Same-Spin Energy          =      -0.6457713283170162 [Eh]
	 Opposite-Spin Energy      =      -1.8052557529295596 [Eh]
	 Correlation Energy        =      -2.4510270812465760 [Eh]
	 Total Energy              =   -1247.7958772658469115 [Eh]

	 ================> DF-SCS-MP2 Energies <==================
	-----------------------------------------------------------
	 SCS Same-Spin Scale       =       0.3333333333333333 [-]
	 SCS Opposite-Spin Scale   =       1.2000000000000000 [-]
	 SCS Same-Spin Energy      =      -0.2152571094390054 [Eh]
	 SCS Opposite-Spin Energy  =      -2.1663069035154714 [Eh]
	 SCS Correlation Energy    =      -2.3815640129544766 [Eh]
	 SCS Total Energy          =   -1247.7264141975547318 [Eh]
	-----------------------------------------------------------

  Dipole Moment: [D]
     X:     7.3731      Y:     2.3782      Z:    -0.6526     Total:     7.7746

*** Psi4 exiting successfully. Buy a developer a beer!
