                               Psi4 1.3.2 release

  ==> Input File <==

--------------------------------------------------------------------------
#psi4
#
memory 32 gb

molecule  {
-3 1
  P        1.1931290    -0.6069630     0.0087730
  P       -1.8341790     0.1663700     0.0034510
  O        1.3559990     1.0186560    -0.3729610
  O       -0.3886030    -0.8294050    -0.1958090
  O        1.9273580    -1.4129110    -1.0480400
  O        1.6168640    -0.7815310     1.4560350
  O       -1.8332320     1.0931450    -1.2188660
  O       -1.6562150     0.8578460     1.3638040
  O       -2.8968830    -0.9395270    -0.0292720
  C        2.4483154     1.4901813    -0.0595269
  H        2.7349980     1.6139230     1.0781470
  H        3.4479520     0.9704660    -0.4205400
  H        2.6752270     2.5733270    -0.4286450
units angstrom
no_reorient  #important for SAPT in psi4, default
symmetry c1  #important for SAPT in psi4, default
}

set PROPERTIES_ORIGIN ["COM"]
properties('MP2/aug-cc-pvtz', properties = ['dipole'])
--------------------------------------------------------------------------

    Molecular point group: c1
  Charge       = -3
  Multiplicity = 1
  Basis Set: AUG-CC-PVTZ
    Blend: AUG-CC-PVTZ
  Basis Set: (AUG-CC-PVTZ AUX)
    Blend: AUG-CC-PVTZ-JKFIT

    Orbital Energies [Eh]
    ---------------------

    Doubly Occupied:

       1A    -79.635333     2A    -79.564488     3A    -20.171735
       4A    -20.088994     5A    -20.063969     6A    -20.059341
       7A    -20.004816     8A    -20.003413     9A    -20.002432
      10A    -10.931685    11A     -7.149577    12A     -7.078361
      13A     -5.049158    14A     -5.047110    15A     -5.046308
      16A     -4.977943    17A     -4.975448    18A     -4.975319
      19A     -1.059123    20A     -0.904521    21A     -0.850745
      22A     -0.811489    23A     -0.805568    24A     -0.746949
      25A     -0.745320    26A     -0.533141    27A     -0.375423
      28A     -0.297881    29A     -0.279381    30A     -0.271579
      31A     -0.189863    32A     -0.149989    33A     -0.144597
      34A     -0.107410    35A     -0.092074    36A     -0.087419
      37A     -0.061937    38A     -0.050682    39A     -0.045062
      40A     -0.042424    41A     -0.029500    42A     -0.002828
      43A      0.014044    44A      0.017360    45A      0.020366
      46A      0.021827    47A      0.059915    48A      0.062903
      49A      0.088218

  @DF-RHF Final Energy: -1245.31426582045242

   => Energetics <=

    Nuclear Repulsion Energy =            825.8332188903509632
    One-Electron Energy =               -3415.8435716115923242
    Two-Electron Energy =                1344.6960869007889414
    Total Energy =                      -1245.3142658204524196
  Basis Set: (AUG-CC-PVTZ AUX)
    Blend: AUG-CC-PVTZ-RI
    Molecular point group: c1

    Geometry (in Angstrom), charge = -3, multiplicity = 1:

       Center              X                  Y                   Z               Mass
    ------------   -----------------  -----------------  -----------------  -----------------
         P            1.254177967518    -0.572765330863     0.013147301987    30.973761998420
         P           -1.773130032482     0.200567669137     0.007825301987    30.973761998420
         O            1.417047967518     1.052853669137    -0.368586698013    15.994914619570
         O           -0.327554032482    -0.795207330863    -0.191434698013    15.994914619570
         O            1.988406967518    -1.378713330863    -1.043665698013    15.994914619570
         O            1.677912967518    -0.747333330863     1.460409301987    15.994914619570
         O           -1.772183032482     1.127342669137    -1.214491698013    15.994914619570
         O           -1.595166032482     0.892043669137     1.368178301987    15.994914619570
         O           -2.835834032482    -0.905329330863    -0.024897698013    15.994914619570
         C            2.509364367518     1.524378969137    -0.055152598013    12.000000000000
         H            2.796046967518     1.648120669137     1.082521301987     1.007825032230
         H            3.509000967518     1.004663669137    -0.416165698013     1.007825032230
         H            2.736275967518     2.607524669137    -0.424270698013     1.007825032230

  Basis Set: AUG-CC-PVTZ
    Blend: AUG-CC-PVTZ
  Basis Set: (AUG-CC-PVTZ AUX)
    Blend: AUG-CC-PVTZ-JKFIT
	 Reference Energy          =   -1245.3142658204524196 [Eh]
	 Singles Energy            =      -0.0000000000000000 [Eh]
	 Same-Spin Energy          =      -0.6470297618460221 [Eh]
	 Opposite-Spin Energy      =      -1.8057986919813400 [Eh]
	 Correlation Energy        =      -2.4528284538273621 [Eh]
	 Total Energy              =   -1247.7670942742797706 [Eh]

	 ================> DF-SCS-MP2 Energies <==================
	-----------------------------------------------------------
	 SCS Same-Spin Scale       =       0.3333333333333333 [-]
	 SCS Opposite-Spin Scale   =       1.2000000000000000 [-]
	 SCS Same-Spin Energy      =      -0.2156765872820074 [Eh]
	 SCS Opposite-Spin Energy  =      -2.1669584303776079 [Eh]
	 SCS Correlation Energy    =      -2.3826350176596152 [Eh]
	 SCS Total Energy          =   -1247.6969008381120148 [Eh]
	-----------------------------------------------------------

  Dipole Moment: [D]
     X:     6.6986      Y:     1.4377      Z:    -0.6366     Total:     6.8807

*** Psi4 exiting successfully. Buy a developer a beer!
