                               Psi4 1.3.2 release

  ==> Input File <==

--------------------------------------------------------------------------
#psi4
#
memory 32 gb

molecule  {
-3 1
  P        1.2474585    -0.6062214     0.0306192
  P       -1.8341790     0.1663700     0.0034510
  O        1.3559990     1.0186560    -0.3729610
  O       -0.3886030    -0.8294050    -0.1958090
  O        1.9273580    -1.4129110    -1.0480400
  O        1.6168640    -0.7815310     1.4560350
  O       -1.8332320     1.0931450    -1.2188660
  O       -1.6562150     0.8578460     1.3638040
  O       -2.8968830    -0.9395270    -0.0292720
  C        2.6391360     1.5220743     0.0091345
  H        2.7349980     1.6139230     1.0781470
  H        3.4479520     0.9704660    -0.4205400
  H        2.6752270     2.5733270    -0.4286450
units angstrom
no_reorient  #important for SAPT in psi4, default
symmetry c1  #important for SAPT in psi4, default
}

set PROPERTIES_ORIGIN ["COM"]
properties('MP2/aug-cc-pvtz', properties = ['dipole'])
--------------------------------------------------------------------------

    Molecular point group: c1
  Charge       = -3
  Multiplicity = 1
  Basis Set: AUG-CC-PVTZ
    Blend: AUG-CC-PVTZ
  Basis Set: (AUG-CC-PVTZ AUX)
    Blend: AUG-CC-PVTZ-JKFIT

    Orbital Energies [Eh]
    ---------------------

    Doubly Occupied:

       1A    -79.622244     2A    -79.552020     3A    -20.158288
       4A    -20.067011     5A    -20.061044     6A    -20.060022
       7A    -19.993694     8A    -19.993359     9A    -19.992208
      10A    -10.920205    11A     -7.137305    12A     -7.065778
      13A     -5.036451    14A     -5.034933    15A     -5.034419
      16A     -4.965244    17A     -4.962986    18A     -4.962857
      19A     -0.970695    20A     -0.881508    21A     -0.843283
      22A     -0.819225    23A     -0.786616    24A     -0.736158
      25A     -0.735012    26A     -0.562479    27A     -0.334842
      28A     -0.272500    29A     -0.266647    30A     -0.218451
      31A     -0.191833    32A     -0.147466    33A     -0.139713
      34A     -0.120839    35A     -0.085437    36A     -0.082992
      37A     -0.070661    38A     -0.058616    39A     -0.043138
      40A     -0.033527    41A     -0.027997    42A     -0.001570
      43A      0.015250    44A      0.028444    45A      0.030672
      46A      0.033621    47A      0.071687    48A      0.075080
      49A      0.098397

  @DF-RHF Final Energy: -1245.33446189294864

   => Energetics <=

    Nuclear Repulsion Energy =            819.8394173432310481
    One-Electron Energy =               -3404.9515096532213647
    Two-Electron Energy =                1339.7776304170415642
    Total Energy =                      -1245.3344618929486387
  Basis Set: (AUG-CC-PVTZ AUX)
    Blend: AUG-CC-PVTZ-RI
    Molecular point group: c1

    Geometry (in Angstrom), charge = -3, multiplicity = 1:

       Center              X                  Y                   Z               Mass
    ------------   -----------------  -----------------  -----------------  -----------------
         P            1.287481041700    -0.574170952288     0.027051127038    30.973761998420
         P           -1.794156458300     0.198420447712    -0.000117072962    30.973761998420
         O            1.396021541700     1.050706447712    -0.376529072962    15.994914619570
         O           -0.348580458300    -0.797354552288    -0.199377072962    15.994914619570
         O            1.967380541700    -1.380860552288    -1.051608072962    15.994914619570
         O            1.656886541700    -0.749480552288     1.452466927038    15.994914619570
         O           -1.793209458300     1.125195447712    -1.222434072962    15.994914619570
         O           -1.616192458300     0.889896447712     1.360235927038    15.994914619570
         O           -2.856860458300    -0.907476552288    -0.032840072962    15.994914619570
         C            2.679158541700     1.554124747712     0.005566427038    12.000000000000
         H            2.775020541700     1.645973447712     1.074578927038     1.007825032230
         H            3.487974541700     1.002516447712    -0.424108072962     1.007825032230
         H            2.715249541700     2.605377447712    -0.432213072962     1.007825032230

  Basis Set: AUG-CC-PVTZ
    Blend: AUG-CC-PVTZ
  Basis Set: (AUG-CC-PVTZ AUX)
    Blend: AUG-CC-PVTZ-JKFIT
	 Reference Energy          =   -1245.3344618929486387 [Eh]
	 Singles Energy            =      -0.0000000000000000 [Eh]
	 Same-Spin Energy          =      -0.6463152697685347 [Eh]
	 Opposite-Spin Energy      =      -1.8070750271661280 [Eh]
	 Correlation Energy        =      -2.4533902969346628 [Eh]
	 Total Energy              =   -1247.7878521898833242 [Eh]

	 ================> DF-SCS-MP2 Energies <==================
	-----------------------------------------------------------
	 SCS Same-Spin Scale       =       0.3333333333333333 [-]
	 SCS Opposite-Spin Scale   =       1.2000000000000000 [-]
	 SCS Same-Spin Energy      =      -0.2154384232561782 [Eh]
	 SCS Opposite-Spin Energy  =      -2.1684900325993537 [Eh]
	 SCS Correlation Energy    =      -2.3839284558555320 [Eh]
	 SCS Total Energy          =   -1247.7183903488041778 [Eh]
	-----------------------------------------------------------

  Dipole Moment: [D]
     X:     8.8342      Y:     2.0931      Z:    -0.1609     Total:     9.0802

*** Psi4 exiting successfully. Buy a developer a beer!
