                               Psi4 1.3.2 release

  ==> Input File <==

--------------------------------------------------------------------------
#psi4
#
memory 32 gb

molecule  {
-3 1
  P        1.1931290    -0.6069630     0.0087730
  P       -1.8341790     0.1663700     0.0034510
  O        1.3684478     1.0240304    -0.4210101
  O       -0.3886030    -0.8294050    -0.1958090
  O        1.9273580    -1.4129110    -1.0480400
  O        1.6168640    -0.7815310     1.4560350
  O       -1.8332320     1.0931450    -1.2188660
  O       -1.6562150     0.8578460     1.3638040
  O       -2.8968830    -0.9395270    -0.0292720
  C        2.6258790     1.5668310    -0.0085760
  H        2.7697518     1.6289255     1.0733373
  H        3.4479520     0.9704660    -0.4205400
  H        2.6752270     2.5733270    -0.4286450
units angstrom
no_reorient  #important for SAPT in psi4, default
symmetry c1  #important for SAPT in psi4, default
}

set PROPERTIES_ORIGIN ["COM"]
properties('MP2/aug-cc-pvtz', properties = ['dipole'])
--------------------------------------------------------------------------

    Molecular point group: c1
  Charge       = -3
  Multiplicity = 1
  Basis Set: AUG-CC-PVTZ
    Blend: AUG-CC-PVTZ
  Basis Set: (AUG-CC-PVTZ AUX)
    Blend: AUG-CC-PVTZ-JKFIT

    Orbital Energies [Eh]
    ---------------------

    Doubly Occupied:

       1A    -79.623945     2A    -79.559593     3A    -20.153938
       4A    -20.081792     5A    -20.054170     6A    -20.054142
       7A    -19.999504     8A    -19.999222     9A    -19.997909
      10A    -10.916175    11A     -7.137798    12A     -7.073415
      13A     -5.037074    14A     -5.035555    15A     -5.034777
      16A     -4.972983    17A     -4.970526    18A     -4.970395
      19A     -0.961985    20A     -0.887539    21A     -0.842401
      22A     -0.804270    23A     -0.799443    24A     -0.742073
      25A     -0.740750    26A     -0.559077    27A     -0.336028
      28A     -0.282053    29A     -0.251266    30A     -0.224425
      31A     -0.188531    32A     -0.147428    33A     -0.143421
      34A     -0.115898    35A     -0.093136    36A     -0.088549
      37A     -0.063583    38A     -0.058190    39A     -0.043718
      40A     -0.038664    41A     -0.022216    42A      0.005688
      43A      0.019954    44A      0.022309    45A      0.025358
      46A      0.027636    47A      0.064653    48A      0.068051
      49A      0.092850

  @DF-RHF Final Energy: -1245.34358401135501

   => Energetics <=

    Nuclear Repulsion Energy =            819.4842567787310372
    One-Electron Energy =               -3404.0935744233711375
    Two-Electron Energy =                1339.2657336332852083
    Total Energy =                      -1245.3435840113550057
  Basis Set: (AUG-CC-PVTZ AUX)
    Blend: AUG-CC-PVTZ-RI
    Molecular point group: c1

    Geometry (in Angstrom), charge = -3, multiplicity = 1:

       Center              X                  Y                   Z               Mass
    ------------   -----------------  -----------------  -----------------  -----------------
         P            1.241660956810    -0.578168655790     0.014004620345    30.973761998420
         P           -1.785647043190     0.195164344210     0.008682620345    30.973761998420
         O            1.416979756810     1.052824744210    -0.415778479655    15.994914619570
         O           -0.340071043190    -0.800610655790    -0.190577379655    15.994914619570
         O            1.975889956810    -1.384116655790    -1.042808379655    15.994914619570
         O            1.665395956810    -0.752736655790     1.461266620345    15.994914619570
         O           -1.784700043190     1.121939344210    -1.213634379655    15.994914619570
         O           -1.607683043190     0.886640344210     1.369035620345    15.994914619570
         O           -2.848351043190    -0.910732655790    -0.024040379655    15.994914619570
         C            2.674410956810     1.595625344210    -0.003344379655    12.000000000000
         H            2.818283756810     1.657719844210     1.078568920345     1.007825032230
         H            3.496483956810     0.999260344210    -0.415308379655     1.007825032230
         H            2.723758956810     2.602121344210    -0.423413379655     1.007825032230

  Basis Set: AUG-CC-PVTZ
    Blend: AUG-CC-PVTZ
  Basis Set: (AUG-CC-PVTZ AUX)
    Blend: AUG-CC-PVTZ-JKFIT
	 Reference Energy          =   -1245.3435840113550057 [Eh]
	 Singles Energy            =      -0.0000000000000000 [Eh]
	 Same-Spin Energy          =      -0.6462654669929868 [Eh]
	 Opposite-Spin Energy      =      -1.8070221870317027 [Eh]
	 Correlation Energy        =      -2.4532876540246895 [Eh]
	 Total Energy              =   -1247.7968716653797401 [Eh]

	 ================> DF-SCS-MP2 Energies <==================
	-----------------------------------------------------------
	 SCS Same-Spin Scale       =       0.3333333333333333 [-]
	 SCS Opposite-Spin Scale   =       1.2000000000000000 [-]
	 SCS Same-Spin Energy      =      -0.2154218223309956 [Eh]
	 SCS Opposite-Spin Energy  =      -2.1684266244380432 [Eh]
	 SCS Correlation Energy    =      -2.3838484467690391 [Eh]
	 SCS Total Energy          =   -1247.7274324581239853 [Eh]
	-----------------------------------------------------------

  Dipole Moment: [D]
     X:     7.8592      Y:     2.2539      Z:    -0.4027     Total:     8.1859

*** Psi4 exiting successfully. Buy a developer a beer!
