                               Psi4 1.3.2 release

  ==> Input File <==

--------------------------------------------------------------------------
#psi4
#
memory 32 gb

molecule  {
-3 1
  P        1.1931290    -0.6069630     0.0087730
  P       -1.8341790     0.1663700     0.0034510
  O        1.3754142     1.2124402    -0.4184661
  O       -0.3886030    -0.8294050    -0.1958090
  O        1.9273580    -1.4129110    -1.0480400
  O        1.6168640    -0.7815310     1.4560350
  O       -1.8332320     1.0931450    -1.2188660
  O       -1.6562150     0.8578460     1.3638040
  O       -2.8968830    -0.9395270    -0.0292720
  C        2.6258790     1.5668310    -0.0085760
  H        2.7349980     1.6139230     1.0781470
  H        3.4479520     0.9704660    -0.4205400
  H        2.6752270     2.5733270    -0.4286450
units angstrom
no_reorient  #important for SAPT in psi4, default
symmetry c1  #important for SAPT in psi4, default
}

set PROPERTIES_ORIGIN ["COM"]
properties('MP2/aug-cc-pvtz', properties = ['dipole'])
--------------------------------------------------------------------------

    Molecular point group: c1
  Charge       = -3
  Multiplicity = 1
  Basis Set: AUG-CC-PVTZ
    Blend: AUG-CC-PVTZ
  Basis Set: (AUG-CC-PVTZ AUX)
    Blend: AUG-CC-PVTZ-JKFIT

    Orbital Energies [Eh]
    ---------------------

    Doubly Occupied:

       1A    -79.641865     2A    -79.562841     3A    -20.143323
       4A    -20.093316     5A    -20.071819     6A    -20.068397
       7A    -20.002619     8A    -20.001302     9A    -20.000107
      10A    -10.896534    11A     -7.154583    12A     -7.076739
      13A     -5.053719    14A     -5.051983    15A     -5.051355
      16A     -4.976359    17A     -4.973800    18A     -4.973650
      19A     -0.950670    20A     -0.901363    21A     -0.852935
      22A     -0.816924    23A     -0.805274    24A     -0.744759
      25A     -0.742960    26A     -0.528530    27A     -0.335381
      28A     -0.282874    29A     -0.246842    30A     -0.205319
      31A     -0.196449    32A     -0.151092    33A     -0.148144
      34A     -0.121731    35A     -0.092357    36A     -0.088014
      37A     -0.063298    38A     -0.049090    39A     -0.048765
      40A     -0.041723    41A     -0.022434    42A     -0.007023
      43A      0.009039    44A      0.018274    45A      0.021792
      46A      0.022987    47A      0.061671    48A      0.065208
      49A      0.090537

  @DF-RHF Final Energy: -1245.32182936860909

   => Energetics <=

    Nuclear Repulsion Energy =            814.3329897398059529
    One-Electron Energy =               -3393.4121296432940653
    Two-Electron Energy =                1333.7573105348787976
    Total Energy =                      -1245.3218293686090874
  Basis Set: (AUG-CC-PVTZ AUX)
    Blend: AUG-CC-PVTZ-RI
    Molecular point group: c1

    Geometry (in Angstrom), charge = -3, multiplicity = 1:

       Center              X                  Y                   Z               Mass
    ------------   -----------------  -----------------  -----------------  -----------------
         P            1.241256579319    -0.594039047187     0.013763594055    30.973761998420
         P           -1.786051420681     0.179293952813     0.008441594055    30.973761998420
         O            1.423541779319     1.225364152813    -0.413475505945    15.994914619570
         O           -0.340475420681    -0.816481047187    -0.190818405945    15.994914619570
         O            1.975485579319    -1.399987047187    -1.043049405945    15.994914619570
         O            1.664991579319    -0.768607047187     1.461025594055    15.994914619570
         O           -1.785104420681     1.106068952813    -1.213875405945    15.994914619570
         O           -1.608087420681     0.870769952813     1.368794594055    15.994914619570
         O           -2.848755420681    -0.926603047187    -0.024281405945    15.994914619570
         C            2.674006579319     1.579754952813    -0.003585405945    12.000000000000
         H            2.783125579319     1.626846952813     1.083137594055     1.007825032230
         H            3.496079579319     0.983389952813    -0.415549405945     1.007825032230
         H            2.723354579319     2.586250952813    -0.423654405945     1.007825032230

  Basis Set: AUG-CC-PVTZ
    Blend: AUG-CC-PVTZ
  Basis Set: (AUG-CC-PVTZ AUX)
    Blend: AUG-CC-PVTZ-JKFIT
	 Reference Energy          =   -1245.3218293686090874 [Eh]
	 Singles Energy            =      -0.0000000000000000 [Eh]
	 Same-Spin Energy          =      -0.6484782116647430 [Eh]
	 Opposite-Spin Energy      =      -1.8121240315050280 [Eh]
	 Correlation Energy        =      -2.4606022431697712 [Eh]
	 Total Energy              =   -1247.7824316117787475 [Eh]

	 ================> DF-SCS-MP2 Energies <==================
	-----------------------------------------------------------
	 SCS Same-Spin Scale       =       0.3333333333333333 [-]
	 SCS Opposite-Spin Scale   =       1.2000000000000000 [-]
	 SCS Same-Spin Energy      =      -0.2161594038882476 [Eh]
	 SCS Opposite-Spin Energy  =      -2.1745488378060336 [Eh]
	 SCS Correlation Energy    =      -2.3907082416942811 [Eh]
	 SCS Total Energy          =   -1247.7125376103033432 [Eh]
	-----------------------------------------------------------

  Dipole Moment: [D]
     X:     7.3634      Y:     1.2547      Z:    -0.3386     Total:     7.4772

*** Psi4 exiting successfully. Buy a developer a beer!
