                               Psi4 1.4a3.dev225

  ==> Input File <==

--------------------------------------------------------------------------
#psi4
#
memory 32 gb

molecule  {
-3 1
  P       -1.1253500     0.3591720     0.0081310
  P        2.0878660    -0.1053470     0.0007630
  O       -2.1391380    -1.0979190    -0.1147190
  O        0.2405970    -0.4148950    -0.1339660
  O       -1.5628960     1.1822930    -1.2021870
  O       -1.4752280     0.9069340     1.3887990
  O        2.4385690    -0.8874190     1.2758270
  O        2.1989840     1.4211450     0.0869110
  O        2.5520577    -0.7269972    -1.2681379
  C       -3.4907010    -0.7724380    -0.0147870
  H       -3.7335280    -0.2943150     0.9495100
  H       -3.8114220    -0.0788120    -0.8111520
  H       -4.0969940    -1.6975630    -0.1019980
units angstrom
no_reorient  #important for SAPT in psi4, default
symmetry c1  #important for SAPT in psi4, default
}

set PROPERTIES_ORIGIN ["COM"]
properties('MP2/aug-cc-pvtz', properties = ['dipole'])
--------------------------------------------------------------------------

    Molecular point group: c1
  Charge       = -3
  Multiplicity = 1
  Basis Set: AUG-CC-PVTZ
    Blend: AUG-CC-PVTZ
  Basis Set: (AUG-CC-PVTZ AUX)
    Blend: AUG-CC-PVTZ-JKFIT

    Orbital Energies [Eh]
    ---------------------

    Doubly Occupied:

       1A    -79.627193     2A    -79.575582     3A    -20.144315
       4A    -20.085479     5A    -20.054751     6A    -20.054053
       7A    -20.019954     8A    -20.017711     9A    -20.016867
      10A    -10.910306    11A     -7.140126    12A     -7.090824
      13A     -5.039585    14A     -5.037709    15A     -5.036915
      16A     -4.990362    17A     -4.987850    18A     -4.987277
      19A     -0.954629    20A     -0.886829    21A     -0.851301
      22A     -0.816780    23A     -0.800095    24A     -0.770145
      25A     -0.758821    26A     -0.541801    27A     -0.332341
      28A     -0.266569    29A     -0.245269    30A     -0.210780
      31A     -0.202709    32A     -0.156482    33A     -0.141577
      34A     -0.116708    35A     -0.098983    36A     -0.098646
      37A     -0.079189    38A     -0.052623    39A     -0.047789
      40A     -0.028895    41A     -0.012785    42A     -0.003909
      43A      0.000903    44A      0.003519    45A      0.009105
      46A      0.022676    47A      0.043975    48A      0.049534
      49A      0.073016

  @DF-RHF Final Energy: -1245.34308624894174

   => Energetics <=

    Nuclear Repulsion Energy =            799.2422772521240404
    One-Electron Energy =               -3362.9911552800772370
    Two-Electron Energy =                1318.4057917790114516
    Total Energy =                      -1245.3430862489417450
  Basis Set: (AUG-CC-PVTZ AUX)
    Blend: AUG-CC-PVTZ-RI
    Molecular point group: c1

    Geometry (in Angstrom), charge = -3, multiplicity = 1:

       Center              X                  Y                   Z               Mass
    ------------   -----------------  -----------------  -----------------  -----------------
         P           -1.190065034547     0.345230270279     0.004664474723    30.973761998420
         P            2.023150965453    -0.119288729721    -0.002703525277    30.973761998420
         O           -2.203853034547    -1.111860729721    -0.118185525277    15.994914619570
         O            0.175881965453    -0.428836729721    -0.137432525277    15.994914619570
         O           -1.627611034547     1.168351270279    -1.205653525277    15.994914619570
         O           -1.539943034547     0.892992270279     1.385332474723    15.994914619570
         O            2.373853965453    -0.901360729721     1.272360474723    15.994914619570
         O            2.134268965453     1.407203270279     0.083444474723    15.994914619570
         O            2.487342665453    -0.740938929721    -1.271604425277    15.994914619570
         C           -3.555416034547    -0.786379729721    -0.018253525277    12.000000000000
         H           -3.798243034547    -0.308256729721     0.946043474723     1.007825032230
         H           -3.876137034547    -0.092753729721    -0.814618525277     1.007825032230
         H           -4.161709034547    -1.711504729721    -0.105464525277     1.007825032230

  Basis Set: AUG-CC-PVTZ
    Blend: AUG-CC-PVTZ
  Basis Set: (AUG-CC-PVTZ AUX)
    Blend: AUG-CC-PVTZ-JKFIT
	 Reference Energy          =   -1245.3430862489417450 [Eh]
	 Singles Energy            =      -0.0000000000000000 [Eh]
	 Same-Spin Energy          =      -0.6465593510310923 [Eh]
	 Opposite-Spin Energy      =      -1.8077556123814542 [Eh]
	 Correlation Energy        =      -2.4543149634125463 [Eh]
	 Total Energy              =   -1247.7974012123543162 [Eh]

	 ================> DF-SCS-MP2 Energies <==================
	-----------------------------------------------------------
	 SCS Same-Spin Scale       =       0.3333333333333333 [-]
	 SCS Opposite-Spin Scale   =       1.2000000000000000 [-]
	 SCS Same-Spin Energy      =      -0.2155197836770308 [Eh]
	 SCS Opposite-Spin Energy  =      -2.1693067348577451 [Eh]
	 SCS Correlation Energy    =      -2.3848265185347759 [Eh]
	 SCS Total Energy          =   -1247.7279127674764823 [Eh]
	-----------------------------------------------------------

  Dipole Moment: [D]
     X:    -7.5365      Y:    -1.9685      Z:    -0.4751     Total:     7.8038

*** Psi4 exiting successfully. Buy a developer a beer!
