                               Psi4 1.3.2 release

  ==> Input File <==

--------------------------------------------------------------------------
#psi4
#
memory 32 gb

molecule  {
-3 1
  P        1.2052793    -0.6866654    -0.0158788
  P       -1.8848320     0.0940542    -0.0240996
  O        1.3559990     1.0186560    -0.3729610
  O       -0.3886030    -0.8294050    -0.1958090
  O        1.9273580    -1.4129110    -1.0480400
  O        1.6168640    -0.7815310     1.4560350
  O       -1.8332320     1.0931450    -1.2188660
  O       -1.6562150     0.8578460     1.3638040
  O       -2.8968830    -0.9395270    -0.0292720
  C        2.6258790     1.5668310    -0.0085760
  H        2.7349980     1.6139230     1.0781470
  H        3.4479520     0.9704660    -0.4205400
  H        2.6752270     2.5733270    -0.4286450
units angstrom
no_reorient  #important for SAPT in psi4, default
symmetry c1  #important for SAPT in psi4, default
}

set PROPERTIES_ORIGIN ["COM"]
properties('MP2/aug-cc-pvtz', properties = ['dipole'])
--------------------------------------------------------------------------

    Molecular point group: c1
  Charge       = -3
  Multiplicity = 1
  Basis Set: AUG-CC-PVTZ
    Blend: AUG-CC-PVTZ
  Basis Set: (AUG-CC-PVTZ AUX)
    Blend: AUG-CC-PVTZ-JKFIT

    Orbital Energies [Eh]
    ---------------------

    Doubly Occupied:

       1A    -79.620500     2A    -79.557791     3A    -20.131669
       4A    -20.078300     5A    -20.068507     6A    -20.049157
       7A    -20.015825     8A    -19.994656     9A    -19.983643
      10A    -10.902903    11A     -7.135492    12A     -7.072729
      13A     -5.034606    14A     -5.033357    15A     -5.032512
      16A     -4.972185    17A     -4.970375    18A     -4.969062
      19A     -0.943818    20A     -0.886591    21A     -0.863110
      22A     -0.821493    23A     -0.803294    24A     -0.749649
      25A     -0.710172    26A     -0.541852    27A     -0.328946
      28A     -0.272008    29A     -0.237535    30A     -0.209452
      31A     -0.190880    32A     -0.152749    33A     -0.147506
      34A     -0.108799    35A     -0.094947    36A     -0.089807
      37A     -0.063717    38A     -0.052469    39A     -0.048335
      40A     -0.040538    41A     -0.023645    42A      0.001392
      43A      0.008479    44A      0.017033    45A      0.027987
      46A      0.038166    47A      0.060739    48A      0.085129
      49A      0.101502

  @DF-RHF Final Energy: -1245.32536343628158

   => Energetics <=

    Nuclear Repulsion Energy =            818.0224035553123940
    One-Electron Energy =               -3401.3672328382026535
    Two-Electron Energy =                1338.0194658466086821
    Total Energy =                      -1245.3253634362815774
  Basis Set: (AUG-CC-PVTZ AUX)
    Blend: AUG-CC-PVTZ-RI
    Molecular point group: c1

    Geometry (in Angstrom), charge = -3, multiplicity = 1:

       Center              X                  Y                   Z               Mass
    ------------   -----------------  -----------------  -----------------  -----------------
         P            1.261362603450    -0.632414426307    -0.006182605421    30.973761998420
         P           -1.828748696550     0.148305173693    -0.014403405421    30.973761998420
         O            1.412082303450     1.072906973693    -0.363264805421    15.994914619570
         O           -0.332519696550    -0.775154026307    -0.186112805421    15.994914619570
         O            1.983441303450    -1.358660026307    -1.038343805421    15.994914619570
         O            1.672947303450    -0.727280026307     1.465731194579    15.994914619570
         O           -1.777148696550     1.147395973693    -1.209169805421    15.994914619570
         O           -1.600131696550     0.912096973693     1.373500194579    15.994914619570
         O           -2.840799696550    -0.885276026307    -0.019575805421    15.994914619570
         C            2.681962303450     1.621081973693     0.001120194579    12.000000000000
         H            2.791081303450     1.668173973693     1.087843194579     1.007825032230
         H            3.504035303450     1.024716973693    -0.410843805421     1.007825032230
         H            2.731310303450     2.627577973693    -0.418948805421     1.007825032230

  Basis Set: AUG-CC-PVTZ
    Blend: AUG-CC-PVTZ
  Basis Set: (AUG-CC-PVTZ AUX)
    Blend: AUG-CC-PVTZ-JKFIT
	 Reference Energy          =   -1245.3253634362815774 [Eh]
	 Singles Energy            =      -0.0000000000000000 [Eh]
	 Same-Spin Energy          =      -0.6458816604649995 [Eh]
	 Opposite-Spin Energy      =      -1.8062613365268771 [Eh]
	 Correlation Energy        =      -2.4521429969918769 [Eh]
	 Total Energy              =   -1247.7775064332734019 [Eh]

	 ================> DF-SCS-MP2 Energies <==================
	-----------------------------------------------------------
	 SCS Same-Spin Scale       =       0.3333333333333333 [-]
	 SCS Opposite-Spin Scale   =       1.2000000000000000 [-]
	 SCS Same-Spin Energy      =      -0.2152938868216665 [Eh]
	 SCS Opposite-Spin Energy  =      -2.1675136038322527 [Eh]
	 SCS Correlation Energy    =      -2.3828074906539189 [Eh]
	 SCS Total Energy          =   -1247.7081709269355088 [Eh]
	-----------------------------------------------------------

  Dipole Moment: [D]
     X:     7.2770      Y:     0.3266      Z:    -1.2317     Total:     7.3877

*** Psi4 exiting successfully. Buy a developer a beer!
