                               Psi4 1.3.2 release

  ==> Input File <==

--------------------------------------------------------------------------
#psi4
#
memory 32 gb

molecule  {
-3 1
  P        1.1931290    -0.6069630     0.0087730
  P       -1.8341790     0.1663700     0.0034510
  O        1.3559990     1.0186560    -0.3729610
  O       -0.3886030    -0.8294050    -0.1958090
  O        1.9273580    -1.4129110    -1.0480400
  O        1.6168640    -0.7815310     1.4560350
  O       -1.8332937     1.0327271    -1.1391812
  O       -1.6562150     0.8578460     1.3638040
  O       -2.8968830    -0.9395270    -0.0292720
  C        2.6258790     1.5668310    -0.0085760
  H        2.7349980     1.6139230     1.0781470
  H        3.4479520     0.9704660    -0.4205400
  H        2.6752270     2.5733270    -0.4286450
units angstrom
no_reorient  #important for SAPT in psi4, default
symmetry c1  #important for SAPT in psi4, default
}

set PROPERTIES_ORIGIN ["COM"]
properties('MP2/aug-cc-pvtz', properties = ['dipole'])
--------------------------------------------------------------------------

    Molecular point group: c1
  Charge       = -3
  Multiplicity = 1
  Basis Set: AUG-CC-PVTZ
    Blend: AUG-CC-PVTZ
  Basis Set: (AUG-CC-PVTZ AUX)
    Blend: AUG-CC-PVTZ-JKFIT

    Orbital Energies [Eh]
    ---------------------

    Doubly Occupied:

       1A    -79.619010     2A    -79.537746     3A    -20.151944
       4A    -20.073689     5A    -20.052748     6A    -20.048243
       7A    -19.993170     8A    -19.989290     9A    -19.987569
      10A    -10.916454    11A     -7.133058    12A     -7.056073
      13A     -5.032374    14A     -5.030814    15A     -5.030064
      16A     -4.955212    17A     -4.953843    18A     -4.952536
      19A     -0.963863    20A     -0.885988    21A     -0.848471
      22A     -0.806782    23A     -0.800550    24A     -0.752424
      25A     -0.732170    26A     -0.559897    27A     -0.333145
      28A     -0.278347    29A     -0.253372    30A     -0.226681
      31A     -0.184528    32A     -0.146158    33A     -0.141285
      34A     -0.113250    35A     -0.093391    36A     -0.088982
      37A     -0.062961    38A     -0.060044    39A     -0.042946
      40A     -0.036595    41A     -0.021820    42A      0.009561
      43A      0.016540    44A      0.021692    45A      0.025512
      46A      0.030719    47A      0.065435    48A      0.073320
      49A      0.098144

  @DF-RHF Final Energy: -1245.34129938617434

   => Energetics <=

    Nuclear Repulsion Energy =            825.0816993594149835
    One-Electron Energy =               -3415.6328742149735263
    Two-Electron Energy =                1345.2098754693843148
    Total Energy =                      -1245.3412993861743416
  Basis Set: (AUG-CC-PVTZ AUX)
    Blend: AUG-CC-PVTZ-RI
    Molecular point group: c1

    Geometry (in Angstrom), charge = -3, multiplicity = 1:

       Center              X                  Y                   Z               Mass
    ------------   -----------------  -----------------  -----------------  -----------------
         P            1.242905456926    -0.572518777006     0.003165253317    30.973761998420
         P           -1.784402543074     0.200814222994    -0.002156746683    30.973761998420
         O            1.405775456926     1.053100222994    -0.378568746683    15.994914619570
         O           -0.338826543074    -0.794960777006    -0.201416746683    15.994914619570
         O            1.977134456926    -1.378466777006    -1.053647746683    15.994914619570
         O            1.666640456926    -0.747086777006     1.450427253317    15.994914619570
         O           -1.783517243074     1.067171322994    -1.144788946683    15.994914619570
         O           -1.606438543074     0.892290222994     1.358196253317    15.994914619570
         O           -2.847106543074    -0.905082777006    -0.034879746683    15.994914619570
         C            2.675655456926     1.601275222994    -0.014183746683    12.000000000000
         H            2.784774456926     1.648367222994     1.072539253317     1.007825032230
         H            3.497728456926     1.004910222994    -0.426147746683     1.007825032230
         H            2.725003456926     2.607771222994    -0.434252746683     1.007825032230

  Basis Set: AUG-CC-PVTZ
    Blend: AUG-CC-PVTZ
  Basis Set: (AUG-CC-PVTZ AUX)
    Blend: AUG-CC-PVTZ-JKFIT
	 Reference Energy          =   -1245.3412993861743416 [Eh]
	 Singles Energy            =      -0.0000000000000000 [Eh]
	 Same-Spin Energy          =      -0.6442745131775331 [Eh]
	 Opposite-Spin Energy      =      -1.8017660709735017 [Eh]
	 Correlation Energy        =      -2.4460405841510351 [Eh]
	 Total Energy              =   -1247.7873399703253199 [Eh]

	 ================> DF-SCS-MP2 Energies <==================
	-----------------------------------------------------------
	 SCS Same-Spin Scale       =       0.3333333333333333 [-]
	 SCS Opposite-Spin Scale   =       1.2000000000000000 [-]
	 SCS Same-Spin Energy      =      -0.2147581710591777 [Eh]
	 SCS Opposite-Spin Energy  =      -2.1621192851682021 [Eh]
	 SCS Correlation Energy    =      -2.3768774562273798 [Eh]
	 SCS Total Energy          =   -1247.7181768424018173 [Eh]
	-----------------------------------------------------------

  Dipole Moment: [D]
     X:     7.8131      Y:     2.7694      Z:    -1.0460     Total:     8.3551

*** Psi4 exiting successfully. Buy a developer a beer!
