                               Psi4 1.3.2 release

  ==> Input File <==

--------------------------------------------------------------------------
#psi4
#
memory 32 gb

molecule  {
-3 1
  P        1.1931290    -0.6069630     0.0087730
  P       -1.8341790     0.1663700     0.0034510
  O        1.4134399     1.0143232    -0.3624124
  O       -0.3819232    -0.8832623    -0.1811733
  O        1.9273580    -1.4129110    -1.0480400
  O        1.6168640    -0.7815310     1.4560350
  O       -1.8332320     1.0931450    -1.2188660
  O       -1.6562150     0.8578460     1.3638040
  O       -2.8968830    -0.9395270    -0.0292720
  C        2.6258790     1.5668310    -0.0085760
  H        2.7349980     1.6139230     1.0781470
  H        3.4479520     0.9704660    -0.4205400
  H        2.6752270     2.5733270    -0.4286450
units angstrom
no_reorient  #important for SAPT in psi4, default
symmetry c1  #important for SAPT in psi4, default
}

set PROPERTIES_ORIGIN ["COM"]
properties('MP2/aug-cc-pvtz', properties = ['dipole'])
--------------------------------------------------------------------------

    Molecular point group: c1
  Charge       = -3
  Multiplicity = 1
  Basis Set: AUG-CC-PVTZ
    Blend: AUG-CC-PVTZ
  Basis Set: (AUG-CC-PVTZ AUX)
    Blend: AUG-CC-PVTZ-JKFIT

    Orbital Energies [Eh]
    ---------------------

    Doubly Occupied:

       1A    -79.620987     2A    -79.564030     3A    -20.150612
       4A    -20.083570     5A    -20.051406     6A    -20.047508
       7A    -20.005537     8A    -20.001986     9A    -20.001483
      10A    -10.913159    11A     -7.135124    12A     -7.077749
      13A     -5.034343    14A     -5.032962    15A     -5.032045
      16A     -4.977277    17A     -4.974791    18A     -4.974677
      19A     -0.979187    20A     -0.888334    21A     -0.840548
      22A     -0.801110    23A     -0.799991    24A     -0.746091
      25A     -0.743909    26A     -0.557498    27A     -0.338158
      28A     -0.282814    29A     -0.260932    30A     -0.240683
      31A     -0.186025    32A     -0.148540    33A     -0.141194
      34A     -0.109357    35A     -0.093893    36A     -0.089006
      37A     -0.062504    38A     -0.061214    39A     -0.043628
      40A     -0.035730    41A     -0.019525    42A      0.009513
      43A      0.019473    44A      0.020829    45A      0.022542
      46A      0.029179    47A      0.061066    48A      0.063834
      49A      0.089130

  @DF-RHF Final Energy: -1245.34491697259455

   => Energetics <=

    Nuclear Repulsion Energy =            819.3232836592354715
    One-Electron Energy =               -3403.6692948228369460
    Two-Electron Energy =                1339.0010941910068141
    Total Energy =                      -1245.3449169725945467
  Basis Set: (AUG-CC-PVTZ AUX)
    Blend: AUG-CC-PVTZ-RI
    Molecular point group: c1

    Geometry (in Angstrom), charge = -3, multiplicity = 1:

       Center              X                  Y                   Z               Mass
    ------------   -----------------  -----------------  -----------------  -----------------
         P            1.237471896035    -0.572707378350     0.007779162821    30.973761998420
         P           -1.789836103965     0.200625621650     0.002457162821    30.973761998420
         O            1.457782796035     1.048578821650    -0.363406237179    15.994914619570
         O           -0.337580303965    -0.849006678350    -0.182167137179    15.994914619570
         O            1.971700896035    -1.378655378350    -1.049033837179    15.994914619570
         O            1.661206896035    -0.747275378350     1.455041162821    15.994914619570
         O           -1.788889103965     1.127400621650    -1.219859837179    15.994914619570
         O           -1.611872103965     0.892101621650     1.362810162821    15.994914619570
         O           -2.852540103965    -0.905271378350    -0.030265837179    15.994914619570
         C            2.670221896035     1.601086621650    -0.009569837179    12.000000000000
         H            2.779340896035     1.648178621650     1.077153162821     1.007825032230
         H            3.492294896035     1.004721621650    -0.421533837179     1.007825032230
         H            2.719569896035     2.607582621650    -0.429638837179     1.007825032230

  Basis Set: AUG-CC-PVTZ
    Blend: AUG-CC-PVTZ
  Basis Set: (AUG-CC-PVTZ AUX)
    Blend: AUG-CC-PVTZ-JKFIT
	 Reference Energy          =   -1245.3449169725945467 [Eh]
	 Singles Energy            =      -0.0000000000000000 [Eh]
	 Same-Spin Energy          =      -0.6459434407336451 [Eh]
	 Opposite-Spin Energy      =      -1.8056643141953002 [Eh]
	 Correlation Energy        =      -2.4516077549289452 [Eh]
	 Total Energy              =   -1247.7965247275235470 [Eh]

	 ================> DF-SCS-MP2 Energies <==================
	-----------------------------------------------------------
	 SCS Same-Spin Scale       =       0.3333333333333333 [-]
	 SCS Opposite-Spin Scale   =       1.2000000000000000 [-]
	 SCS Same-Spin Energy      =      -0.2153144802445484 [Eh]
	 SCS Opposite-Spin Energy  =      -2.1667971770343599 [Eh]
	 SCS Correlation Energy    =      -2.3821116572789083 [Eh]
	 SCS Total Energy          =   -1247.7270286298735300 [Eh]
	-----------------------------------------------------------

  Dipole Moment: [D]
     X:     7.4808      Y:     2.4143      Z:    -0.5080     Total:     7.8771

*** Psi4 exiting successfully. Buy a developer a beer!
