                               Psi4 1.3.2 release

  ==> Input File <==

--------------------------------------------------------------------------
#psi4
#
memory 32 gb

molecule  {
-3 1
  P        1.1931290    -0.6069630     0.0087730
  P       -1.8341790     0.1663700     0.0034510
  O        1.3559990     1.0186560    -0.3729610
  O       -0.3886030    -0.8294050    -0.1958090
  O        1.9273580    -1.4129110    -1.0480400
  O        1.6168640    -0.7815310     1.4560350
  O       -1.8332320     1.0931450    -1.2188660
  O       -1.6466954     0.8656674     1.3585169
  O       -2.8942180    -0.9416237    -0.0422228
  C        2.6258790     1.5668310    -0.0085760
  H        2.7349980     1.6139230     1.0781470
  H        3.4479520     0.9704660    -0.4205400
  H        2.6752270     2.5733270    -0.4286450
units angstrom
no_reorient  #important for SAPT in psi4, default
symmetry c1  #important for SAPT in psi4, default
}

set PROPERTIES_ORIGIN ["COM"]
properties('MP2/aug-cc-pvtz', properties = ['dipole'])
--------------------------------------------------------------------------

    Molecular point group: c1
  Charge       = -3
  Multiplicity = 1
  Basis Set: AUG-CC-PVTZ
    Blend: AUG-CC-PVTZ
  Basis Set: (AUG-CC-PVTZ AUX)
    Blend: AUG-CC-PVTZ-JKFIT

    Orbital Energies [Eh]
    ---------------------

    Doubly Occupied:

       1A    -79.621660     2A    -79.559095     3A    -20.152510
       4A    -20.080001     5A    -20.054440     6A    -20.050587
       7A    -19.999555     8A    -19.998089     9A    -19.998058
      10A    -10.916813    11A     -7.135702    12A     -7.072910
      13A     -5.035008    14A     -5.033485    15A     -5.032688
      16A     -4.972482    17A     -4.970021    18A     -4.969895
      19A     -0.964838    20A     -0.886273    21A     -0.841354
      22A     -0.802655    23A     -0.798677    24A     -0.742003
      25A     -0.740254    26A     -0.560333    27A     -0.335765
      28A     -0.281790    29A     -0.253853    30A     -0.228059
      31A     -0.186873    32A     -0.147110    33A     -0.143415
      34A     -0.114116    35A     -0.092593    36A     -0.088551
      37A     -0.062888    38A     -0.057853    39A     -0.042561
      40A     -0.037915    41A     -0.021882    42A      0.007566
      43A      0.021104    44A      0.022620    45A      0.026011
      46A      0.028348    47A      0.064554    48A      0.068949
      49A      0.093100

  @DF-RHF Final Energy: -1245.34510374873594

   => Energetics <=

    Nuclear Repulsion Energy =            820.5776059872409860
    One-Electron Energy =               -3406.3406993414678254
    Two-Electron Energy =                1340.4179896054909022
    Total Energy =                      -1245.3451037487359372
  Basis Set: (AUG-CC-PVTZ AUX)
    Blend: AUG-CC-PVTZ-RI
    Molecular point group: c1

    Geometry (in Angstrom), charge = -3, multiplicity = 1:

       Center              X                  Y                   Z               Mass
    ------------   -----------------  -----------------  -----------------  -----------------
         P            1.241868708273    -0.578118284730     0.011455204348    30.973761998420
         P           -1.785439291727     0.195214715270     0.006133204348    30.973761998420
         O            1.404738708273     1.047500715270    -0.370278795652    15.994914619570
         O           -0.339863291727    -0.800560284730    -0.193126795652    15.994914619570
         O            1.976097708273    -1.384066284730    -1.045357795652    15.994914619570
         O            1.665603708273    -0.752686284730     1.458717204348    15.994914619570
         O           -1.784492291727     1.121989715270    -1.216183795652    15.994914619570
         O           -1.597955691727     0.894512115270     1.361199104348    15.994914619570
         O           -2.845478291727    -0.912778984730    -0.039540595652    15.994914619570
         C            2.674618708273     1.595675715270    -0.005893795652    12.000000000000
         H            2.783737708273     1.642767715270     1.080829204348     1.007825032230
         H            3.496691708273     0.999310715270    -0.417857795652     1.007825032230
         H            2.723966708273     2.602171715270    -0.425962795652     1.007825032230

  Basis Set: AUG-CC-PVTZ
    Blend: AUG-CC-PVTZ
  Basis Set: (AUG-CC-PVTZ AUX)
    Blend: AUG-CC-PVTZ-JKFIT
	 Reference Energy          =   -1245.3451037487359372 [Eh]
	 Singles Energy            =      -0.0000000000000000 [Eh]
	 Same-Spin Energy          =      -0.6460571467343769 [Eh]
	 Opposite-Spin Energy      =      -1.8063756190908826 [Eh]
	 Correlation Energy        =      -2.4524327658252596 [Eh]
	 Total Energy              =   -1247.7975365145612159 [Eh]

	 ================> DF-SCS-MP2 Energies <==================
	-----------------------------------------------------------
	 SCS Same-Spin Scale       =       0.3333333333333333 [-]
	 SCS Opposite-Spin Scale   =       1.2000000000000000 [-]
	 SCS Same-Spin Energy      =      -0.2153523822447923 [Eh]
	 SCS Opposite-Spin Energy  =      -2.1676507429090592 [Eh]
	 SCS Correlation Energy    =      -2.3830031251538517 [Eh]
	 SCS Total Energy          =   -1247.7281068738898284 [Eh]
	-----------------------------------------------------------

  Dipole Moment: [D]
     X:     7.8747      Y:     2.3167      Z:    -0.4230     Total:     8.2193

*** Psi4 exiting successfully. Buy a developer a beer!
