                               Psi4 1.3.2 release

  ==> Input File <==

--------------------------------------------------------------------------
#psi4
#
memory 32 gb

molecule  {
-3 1
  P        1.1389979    -0.6057240    -0.0135383
  P       -1.8341790     0.1663700     0.0034510
  O        1.3559990     1.0186560    -0.3729610
  O       -0.3886030    -0.8294050    -0.1958090
  O        1.9273580    -1.4129110    -1.0480400
  O        1.6168640    -0.7815310     1.4560350
  O       -1.8332320     1.0931450    -1.2188660
  O       -1.6562150     0.8578460     1.3638040
  O       -2.8968830    -0.9395270    -0.0292720
  C        2.6110748     1.6109199    -0.0267304
  H        2.7349980     1.6139230     1.0781470
  H        3.4479520     0.9704660    -0.4205400
  H        2.6752270     2.5733270    -0.4286450
units angstrom
no_reorient  #important for SAPT in psi4, default
symmetry c1  #important for SAPT in psi4, default
}

set PROPERTIES_ORIGIN ["COM"]
properties('MP2/aug-cc-pvtz', properties = ['dipole'])
--------------------------------------------------------------------------

    Molecular point group: c1
  Charge       = -3
  Multiplicity = 1
  Basis Set: AUG-CC-PVTZ
    Blend: AUG-CC-PVTZ
  Basis Set: (AUG-CC-PVTZ AUX)
    Blend: AUG-CC-PVTZ-JKFIT

    Orbital Energies [Eh]
    ---------------------

    Doubly Occupied:

       1A    -79.622108     2A    -79.566269     3A    -20.148299
       4A    -20.094012     5A    -20.049850     6A    -20.040894
       7A    -20.005082     8A    -20.004266     9A    -20.002521
      10A    -10.915307    11A     -7.135656    12A     -7.080161
      13A     -5.035074    14A     -5.033629    15A     -5.032420
      16A     -4.979820    17A     -4.977180    18A     -4.977046
      19A     -0.962593    20A     -0.902783    21A     -0.835033
      22A     -0.807239    23A     -0.783862    24A     -0.747469
      25A     -0.745540    26A     -0.560696    27A     -0.342060
      28A     -0.289673    29A     -0.245361    30A     -0.238947
      31A     -0.181718    32A     -0.153403    33A     -0.146367
      34A     -0.110494    35A     -0.101701    36A     -0.089526
      37A     -0.063593    38A     -0.058916    39A     -0.044347
      40A     -0.032830    41A     -0.013153    42A      0.016247
      43A      0.016593    44A      0.020210    45A      0.020749
      46A      0.035442    47A      0.058615    48A      0.062223
      49A      0.088008

  @DF-RHF Final Energy: -1245.34195850025458

   => Energetics <=

    Nuclear Repulsion Energy =            821.1382146322328026
    One-Electron Energy =               -3407.2827250733680557
    Two-Electron Energy =                1340.8025519408804485
    Total Energy =                      -1245.3419585002545773
  Basis Set: (AUG-CC-PVTZ AUX)
    Blend: AUG-CC-PVTZ-RI
    Molecular point group: c1

    Geometry (in Angstrom), charge = -3, multiplicity = 1:

       Center              X                  Y                   Z               Mass
    ------------   -----------------  -----------------  -----------------  -----------------
         P            1.198583568476    -0.579398014411    -0.007589349250    30.973761998420
         P           -1.774593331524     0.192695985589     0.009399950750    30.973761998420
         O            1.415584668476     1.044981985589    -0.367012049250    15.994914619570
         O           -0.329017331524    -0.803079014411    -0.189860049250    15.994914619570
         O            1.986943668476    -1.386585014411    -1.042091049250    15.994914619570
         O            1.676449668476    -0.755205014411     1.461983950750    15.994914619570
         O           -1.773646331524     1.119470985589    -1.212917049250    15.994914619570
         O           -1.596629331524     0.884171985589     1.369752950750    15.994914619570
         O           -2.837297331524    -0.913201014411    -0.023323049250    15.994914619570
         C            2.670660468476     1.637245885589    -0.020781449250    12.000000000000
         H            2.794583668476     1.640248985589     1.084095950750     1.007825032230
         H            3.507537668476     0.996791985589    -0.414591049250     1.007825032230
         H            2.734812668476     2.599652985589    -0.422696049250     1.007825032230

  Basis Set: AUG-CC-PVTZ
    Blend: AUG-CC-PVTZ
  Basis Set: (AUG-CC-PVTZ AUX)
    Blend: AUG-CC-PVTZ-JKFIT
	 Reference Energy          =   -1245.3419585002545773 [Eh]
	 Singles Energy            =      -0.0000000000000000 [Eh]
	 Same-Spin Energy          =      -0.6460864804133305 [Eh]
	 Opposite-Spin Energy      =      -1.8063700198586541 [Eh]
	 Correlation Energy        =      -2.4524565002719845 [Eh]
	 Total Energy              =   -1247.7944150005266692 [Eh]

	 ================> DF-SCS-MP2 Energies <==================
	-----------------------------------------------------------
	 SCS Same-Spin Scale       =       0.3333333333333333 [-]
	 SCS Opposite-Spin Scale   =       1.2000000000000000 [-]
	 SCS Same-Spin Energy      =      -0.2153621601377768 [Eh]
	 SCS Opposite-Spin Energy  =      -2.1676440238303849 [Eh]
	 SCS Correlation Energy    =      -2.3830061839681616 [Eh]
	 SCS Total Energy          =   -1247.7249646842226412 [Eh]
	-----------------------------------------------------------

  Dipole Moment: [D]
     X:     6.9667      Y:     2.5749      Z:    -0.7883     Total:     7.4691

*** Psi4 exiting successfully. Buy a developer a beer!
