                               Psi4 1.3.2 release

  ==> Input File <==

--------------------------------------------------------------------------
#psi4
#
memory 32 gb

molecule  {
-3 1
  P        1.1931290    -0.6069630     0.0087730
  P       -1.8341790     0.1663700     0.0034510
  O        1.3559990     1.0186560    -0.3729610
  O       -0.1921566    -0.8017784    -0.1704005
  O        1.9273580    -1.4129110    -1.0480400
  O        1.6168640    -0.7815310     1.4560350
  O       -1.8332320     1.0931450    -1.2188660
  O       -1.6562150     0.8578460     1.3638040
  O       -2.8968830    -0.9395270    -0.0292720
  C        2.6258790     1.5668310    -0.0085760
  H        2.7349980     1.6139230     1.0781470
  H        3.4479520     0.9704660    -0.4205400
  H        2.6752270     2.5733270    -0.4286450
units angstrom
no_reorient  #important for SAPT in psi4, default
symmetry c1  #important for SAPT in psi4, default
}

set PROPERTIES_ORIGIN ["COM"]
properties('MP2/aug-cc-pvtz', properties = ['dipole'])
--------------------------------------------------------------------------

    Molecular point group: c1
  Charge       = -3
  Multiplicity = 1
  Basis Set: AUG-CC-PVTZ
    Blend: AUG-CC-PVTZ
  Basis Set: (AUG-CC-PVTZ AUX)
    Blend: AUG-CC-PVTZ-JKFIT

    Orbital Energies [Eh]
    ---------------------

    Doubly Occupied:

       1A    -79.585568     2A    -79.574725     3A    -20.134369
       4A    -20.065929     5A    -20.027554     6A    -20.025655
       7A    -20.025245     8A    -20.020182     9A    -20.015309
      10A    -10.903792    11A     -7.098882    12A     -7.096562
      13A     -4.998530    14A     -4.996450    15A     -4.995568
      16A     -4.995370    17A     -4.994281    18A     -4.992551
      19A     -0.966094    20A     -0.905914    21A     -0.842156
      22A     -0.806071    23A     -0.779827    24A     -0.762862
      25A     -0.757499    26A     -0.546867    27A     -0.325332
      28A     -0.280576    29A     -0.240619    30A     -0.220829
      31A     -0.183851    32A     -0.153938    33A     -0.147959
      34A     -0.108538    35A     -0.095675    36A     -0.090854
      37A     -0.066850    38A     -0.060390    39A     -0.039992
      40A     -0.029752    41A     -0.006628    42A      0.004316
      43A      0.006231    44A      0.015471    45A      0.029624
      46A      0.041980    47A      0.044196    48A      0.056172
      49A      0.073699

  @DF-RHF Final Energy: -1245.32106393951790

   => Energetics <=

    Nuclear Repulsion Energy =            824.5161762619665069
    One-Electron Energy =               -3414.2866739889300334
    Two-Electron Energy =                1344.4494337874457415
    Total Energy =                      -1245.3210639395178987
  Basis Set: (AUG-CC-PVTZ AUX)
    Blend: AUG-CC-PVTZ-RI
    Molecular point group: c1

    Geometry (in Angstrom), charge = -3, multiplicity = 1:

       Center              X                  Y                   Z               Mass
    ------------   -----------------  -----------------  -----------------  -----------------
         P            1.226269451933    -0.579972458262     0.007760182472    30.973761998420
         P           -1.801038548067     0.193360541738     0.002438182472    30.973761998420
         O            1.389139451933     1.045646541738    -0.373973817528    15.994914619570
         O           -0.159016148067    -0.774787858262    -0.171413317528    15.994914619570
         O            1.960498451933    -1.385920458262    -1.049052817528    15.994914619570
         O            1.650004451933    -0.754540458262     1.455022182472    15.994914619570
         O           -1.800091548067     1.120135541738    -1.219878817528    15.994914619570
         O           -1.623074548067     0.884836541738     1.362791182472    15.994914619570
         O           -2.863742548067    -0.912536458262    -0.030284817528    15.994914619570
         C            2.659019451933     1.593821541738    -0.009588817528    12.000000000000
         H            2.768138451933     1.640913541738     1.077134182472     1.007825032230
         H            3.481092451933     0.997456541738    -0.421552817528     1.007825032230
         H            2.708367451933     2.600317541738    -0.429657817528     1.007825032230

  Basis Set: AUG-CC-PVTZ
    Blend: AUG-CC-PVTZ
  Basis Set: (AUG-CC-PVTZ AUX)
    Blend: AUG-CC-PVTZ-JKFIT
	 Reference Energy          =   -1245.3210639395178987 [Eh]
	 Singles Energy            =      -0.0000000000000000 [Eh]
	 Same-Spin Energy          =      -0.6447623268443822 [Eh]
	 Opposite-Spin Energy      =      -1.8028616895156808 [Eh]
	 Correlation Energy        =      -2.4476240163600629 [Eh]
	 Total Energy              =   -1247.7686879558780220 [Eh]

	 ================> DF-SCS-MP2 Energies <==================
	-----------------------------------------------------------
	 SCS Same-Spin Scale       =       0.3333333333333333 [-]
	 SCS Opposite-Spin Scale   =       1.2000000000000000 [-]
	 SCS Same-Spin Energy      =      -0.2149207756147941 [Eh]
	 SCS Opposite-Spin Energy  =      -2.1634340274188171 [Eh]
	 SCS Correlation Energy    =      -2.3783548030336110 [Eh]
	 SCS Total Energy          =   -1247.6994187425514156 [Eh]
	-----------------------------------------------------------

  Dipole Moment: [D]
     X:     5.4260      Y:     2.6893      Z:    -0.5328     Total:     6.0793

*** Psi4 exiting successfully. Buy a developer a beer!
