                               Psi4 1.3.2 release

  ==> Input File <==

--------------------------------------------------------------------------
#psi4
#
memory 32 gb

molecule  {
-3 1
  P        1.1931290    -0.6069630     0.0087730
  P       -1.8341790     0.1663700     0.0034510
  O        1.3480869     1.0221564    -0.3611495
  O       -0.3886030    -0.8294050    -0.1958090
  O        1.9238959    -1.4240943    -1.0418336
  O        1.6168640    -0.7815310     1.4560350
  O       -1.8332320     1.0931450    -1.2188660
  O       -1.6562150     0.8578460     1.3638040
  O       -2.8968830    -0.9395270    -0.0292720
  C        2.6258790     1.5668310    -0.0085760
  H        2.7349980     1.6139230     1.0781470
  H        3.4479520     0.9704660    -0.4205400
  H        2.6752270     2.5733270    -0.4286450
units angstrom
no_reorient  #important for SAPT in psi4, default
symmetry c1  #important for SAPT in psi4, default
}

set PROPERTIES_ORIGIN ["COM"]
properties('MP2/aug-cc-pvtz', properties = ['dipole'])
--------------------------------------------------------------------------

    Molecular point group: c1
  Charge       = -3
  Multiplicity = 1
  Basis Set: AUG-CC-PVTZ
    Blend: AUG-CC-PVTZ
  Basis Set: (AUG-CC-PVTZ AUX)
    Blend: AUG-CC-PVTZ-JKFIT

    Orbital Energies [Eh]
    ---------------------

    Doubly Occupied:

       1A    -79.621840     2A    -79.558801     3A    -20.153781
       4A    -20.079979     5A    -20.055337     6A    -20.049852
       7A    -19.999080     8A    -19.998518     9A    -19.996930
      10A    -10.917718    11A     -7.135889    12A     -7.072612
      13A     -5.035192    14A     -5.033664    15A     -5.032881
      16A     -4.972173    17A     -4.969731    18A     -4.969599
      19A     -0.964921    20A     -0.886264    21A     -0.841406
      22A     -0.802454    23A     -0.798634    24A     -0.741516
      25A     -0.739899    26A     -0.561263    27A     -0.336021
      28A     -0.281853    29A     -0.254323    30A     -0.228184
      31A     -0.186938    32A     -0.147009    33A     -0.143625
      34A     -0.115075    35A     -0.092375    36A     -0.088433
      37A     -0.063380    38A     -0.057306    39A     -0.042695
      40A     -0.037994    41A     -0.022665    42A      0.007719
      43A      0.021367    44A      0.022922    45A      0.026090
      46A      0.028601    47A      0.065405    48A      0.068848
      49A      0.093530

  @DF-RHF Final Energy: -1245.34470936956768

   => Energetics <=

    Nuclear Repulsion Energy =            820.4680878364038108
    One-Electron Energy =               -3406.1189371585410299
    Two-Electron Energy =                1340.3061399525695379
    Total Energy =                      -1245.3447093695676813
  Basis Set: (AUG-CC-PVTZ AUX)
    Blend: AUG-CC-PVTZ-RI
    Molecular point group: c1

    Geometry (in Angstrom), charge = -3, multiplicity = 1:

       Center              X                  Y                   Z               Mass
    ------------   -----------------  -----------------  -----------------  -----------------
         P            1.243863151833    -0.576983222610     0.008385856724    30.973761998420
         P           -1.783444848167     0.196349777390     0.003063856724    30.973761998420
         O            1.398821051833     1.052136177390    -0.361536643276    15.994914619570
         O           -0.337868848167    -0.799425222610    -0.196196143276    15.994914619570
         O            1.974630051833    -1.394114522610    -1.042220743276    15.994914619570
         O            1.667598151833    -0.751551222610     1.455647856724    15.994914619570
         O           -1.782497848167     1.123124777390    -1.219253143276    15.994914619570
         O           -1.605480848167     0.887825777390     1.363416856724    15.994914619570
         O           -2.846148848167    -0.909547222610    -0.029659143276    15.994914619570
         C            2.676613151833     1.596810777390    -0.008963143276    12.000000000000
         H            2.785732151833     1.643902777390     1.077759856724     1.007825032230
         H            3.498686151833     1.000445777390    -0.420927143276     1.007825032230
         H            2.725961151833     2.603306777390    -0.429032143276     1.007825032230

  Basis Set: AUG-CC-PVTZ
    Blend: AUG-CC-PVTZ
  Basis Set: (AUG-CC-PVTZ AUX)
    Blend: AUG-CC-PVTZ-JKFIT
	 Reference Energy          =   -1245.3447093695676813 [Eh]
	 Singles Energy            =      -0.0000000000000000 [Eh]
	 Same-Spin Energy          =      -0.6460687566740499 [Eh]
	 Opposite-Spin Energy      =      -1.8064549334014752 [Eh]
	 Correlation Energy        =      -2.4525236900755250 [Eh]
	 Total Energy              =   -1247.7972330596433039 [Eh]

	 ================> DF-SCS-MP2 Energies <==================
	-----------------------------------------------------------
	 SCS Same-Spin Scale       =       0.3333333333333333 [-]
	 SCS Opposite-Spin Scale   =       1.2000000000000000 [-]
	 SCS Same-Spin Energy      =      -0.2153562522246833 [Eh]
	 SCS Opposite-Spin Energy  =      -2.1677459200817704 [Eh]
	 SCS Correlation Energy    =      -2.3831021723064536 [Eh]
	 SCS Total Energy          =   -1247.7278115418741891 [Eh]
	-----------------------------------------------------------

  Dipole Moment: [D]
     X:     7.9441      Y:     2.3587      Z:    -0.5007     Total:     8.3020

*** Psi4 exiting successfully. Buy a developer a beer!
