                               Psi4 1.3.2 release

  ==> Input File <==

--------------------------------------------------------------------------
#psi4
#
memory 32 gb

molecule  {
-3 1
  P        1.1931290    -0.6069630     0.0087730
  P       -1.8341790     0.1663700     0.0034510
  O        1.3559990     1.0186560    -0.3729610
  O       -0.3708251    -0.8800448    -0.2608272
  O        1.8568355    -1.4372769    -1.0754643
  O        1.6168640    -0.7815310     1.4560350
  O       -1.8332320     1.0931450    -1.2188660
  O       -1.6562150     0.8578460     1.3638040
  O       -2.8968830    -0.9395270    -0.0292720
  C        2.6258790     1.5668310    -0.0085760
  H        2.7349980     1.6139230     1.0781470
  H        3.4479520     0.9704660    -0.4205400
  H        2.6752270     2.5733270    -0.4286450
units angstrom
no_reorient  #important for SAPT in psi4, default
symmetry c1  #important for SAPT in psi4, default
}

set PROPERTIES_ORIGIN ["COM"]
properties('MP2/aug-cc-pvtz', properties = ['dipole'])
--------------------------------------------------------------------------

    Molecular point group: c1
  Charge       = -3
  Multiplicity = 1
  Basis Set: AUG-CC-PVTZ
    Blend: AUG-CC-PVTZ
  Basis Set: (AUG-CC-PVTZ AUX)
    Blend: AUG-CC-PVTZ-JKFIT

    Orbital Energies [Eh]
    ---------------------

    Doubly Occupied:

       1A    -79.617655     2A    -79.561516     3A    -20.154962
       4A    -20.075030     5A    -20.054515     6A    -20.046931
       7A    -20.003002     8A    -20.000778     9A    -19.999702
      10A    -10.918887    11A     -7.132095    12A     -7.075190
      13A     -5.031267    14A     -5.029961    15A     -5.028994
      16A     -4.974652    17A     -4.972242    18A     -4.972148
      19A     -0.965444    20A     -0.880761    21A     -0.837759
      22A     -0.804524    23A     -0.793355    24A     -0.743487
      25A     -0.742484    26A     -0.562124    27A     -0.330660
      28A     -0.274334    29A     -0.255790    30A     -0.228935
      31A     -0.187433    32A     -0.146805    33A     -0.139596
      34A     -0.113766    35A     -0.088404    36A     -0.086300
      37A     -0.064131    38A     -0.059744    39A     -0.042490
      40A     -0.033957    41A     -0.019036    42A      0.006854
      43A      0.020452    44A      0.022256    45A      0.024756
      46A      0.034927    47A      0.062498    48A      0.066440
      49A      0.090994

  @DF-RHF Final Energy: -1245.33782954625190

   => Energetics <=

    Nuclear Repulsion Energy =            819.0403824736915794
    One-Electron Energy =               -3403.3130859977659384
    Two-Electron Energy =                1338.9348739778222352
    Total Energy =                      -1245.3378295462518963
  Basis Set: (AUG-CC-PVTZ AUX)
    Blend: AUG-CC-PVTZ-RI
    Molecular point group: c1

    Geometry (in Angstrom), charge = -3, multiplicity = 1:

       Center              X                  Y                   Z               Mass
    ------------   -----------------  -----------------  -----------------  -----------------
         P            1.247365491843    -0.571283801381     0.017737225782    30.973761998420
         P           -1.779942508157     0.202049198619     0.012415225782    30.973761998420
         O            1.410235491843     1.054335198619    -0.363996774218    15.994914619570
         O           -0.316588608157    -0.844365601381    -0.251862974218    15.994914619570
         O            1.911071991843    -1.401597701381    -1.066500074218    15.994914619570
         O            1.671100491843    -0.745851801381     1.464999225782    15.994914619570
         O           -1.778995508157     1.128824198619    -1.209901774218    15.994914619570
         O           -1.601978508157     0.893525198619     1.372768225782    15.994914619570
         O           -2.842646508157    -0.903847801381    -0.020307774218    15.994914619570
         C            2.680115491843     1.602510198619     0.000388225782    12.000000000000
         H            2.789234491843     1.649602198619     1.087111225782     1.007825032230
         H            3.502188491843     1.006145198619    -0.411575774218     1.007825032230
         H            2.729463491843     2.609006198619    -0.419680774218     1.007825032230

  Basis Set: AUG-CC-PVTZ
    Blend: AUG-CC-PVTZ
  Basis Set: (AUG-CC-PVTZ AUX)
    Blend: AUG-CC-PVTZ-JKFIT
	 Reference Energy          =   -1245.3378295462518963 [Eh]
	 Singles Energy            =      -0.0000000000000000 [Eh]
	 Same-Spin Energy          =      -0.6467796349811048 [Eh]
	 Opposite-Spin Energy      =      -1.8082994668181922 [Eh]
	 Correlation Energy        =      -2.4550791017992970 [Eh]
	 Total Energy              =   -1247.7929086480512524 [Eh]

	 ================> DF-SCS-MP2 Energies <==================
	-----------------------------------------------------------
	 SCS Same-Spin Scale       =       0.3333333333333333 [-]
	 SCS Opposite-Spin Scale   =       1.2000000000000000 [-]
	 SCS Same-Spin Energy      =      -0.2155932116603683 [Eh]
	 SCS Opposite-Spin Energy  =      -2.1699593601818306 [Eh]
	 SCS Correlation Energy    =      -2.3855525718421990 [Eh]
	 SCS Total Energy          =   -1247.7233821180941504 [Eh]
	-----------------------------------------------------------

  Dipole Moment: [D]
     X:     7.8149      Y:     2.5771      Z:    -0.2607     Total:     8.2330

*** Psi4 exiting successfully. Buy a developer a beer!
