                               Psi4 1.3.2 release

  ==> Input File <==

--------------------------------------------------------------------------
#psi4
#
memory 32 gb

molecule  {
-3 1
  P        1.1931290    -0.6069630     0.0087730
  P       -1.8341790     0.1663700     0.0034510
  O        1.3559990     1.0186560    -0.3729610
  O       -0.3886030    -0.8294050    -0.1958090
  O        1.9273580    -1.4129110    -1.0480400
  O        1.6168640    -0.7815310     1.4560350
  O       -1.8332320     1.0931450    -1.2188660
  O       -1.5993257     0.9039637     1.3305418
  O       -2.8796863    -0.9508385    -0.1069050
  C        2.6258790     1.5668310    -0.0085760
  H        2.7349980     1.6139230     1.0781470
  H        3.4479520     0.9704660    -0.4205400
  H        2.6752270     2.5733270    -0.4286450
units angstrom
no_reorient  #important for SAPT in psi4, default
symmetry c1  #important for SAPT in psi4, default
}

set PROPERTIES_ORIGIN ["COM"]
properties('MP2/aug-cc-pvtz', properties = ['dipole'])
--------------------------------------------------------------------------

    Molecular point group: c1
  Charge       = -3
  Multiplicity = 1
  Basis Set: AUG-CC-PVTZ
    Blend: AUG-CC-PVTZ
  Basis Set: (AUG-CC-PVTZ AUX)
    Blend: AUG-CC-PVTZ-JKFIT

    Orbital Energies [Eh]
    ---------------------

    Doubly Occupied:

       1A    -79.620033     2A    -79.559234     3A    -20.150704
       4A    -20.077429     5A    -20.053121     6A    -20.049507
       7A    -20.003326     8A    -20.001940     9A    -19.992225
      10A    -10.915456    11A     -7.134083    12A     -7.073079
      13A     -5.033386    14A     -5.031861    15A     -5.031083
      16A     -4.972689    17A     -4.970263    18A     -4.969959
      19A     -0.963081    20A     -0.884849    21A     -0.840777
      22A     -0.801499    23A     -0.797626    24A     -0.747514
      25A     -0.735976    26A     -0.558892    27A     -0.334124
      28A     -0.280281    29A     -0.252387    30A     -0.226429
      31A     -0.186094    32A     -0.146603    33A     -0.142165
      34A     -0.112556    35A     -0.092151    36A     -0.087985
      37A     -0.061204    38A     -0.058869    39A     -0.040115
      40A     -0.037297    41A     -0.020485    42A      0.008685
      43A      0.020851    44A      0.021413    45A      0.027697
      46A      0.028941    47A      0.060959    48A      0.071875
      49A      0.093349

  @DF-RHF Final Energy: -1245.34259259680448

   => Energetics <=

    Nuclear Repulsion Energy =            821.3327984290224322
    One-Electron Energy =               -3407.9216401815970130
    Two-Electron Energy =                1341.2462491557703288
    Total Energy =                      -1245.3425925968044794
  Basis Set: (AUG-CC-PVTZ AUX)
    Blend: AUG-CC-PVTZ-RI
    Molecular point group: c1

    Geometry (in Angstrom), charge = -3, multiplicity = 1:

       Center              X                  Y                   Z               Mass
    ------------   -----------------  -----------------  -----------------  -----------------
         P            1.236628252539    -0.580580269652     0.019299396549    30.973761998420
         P           -1.790679747461     0.192752730348     0.013977396549    30.973761998420
         O            1.399498252539     1.045038730348    -0.362434603451    15.994914619570
         O           -0.345103747461    -0.803022269652    -0.185282603451    15.994914619570
         O            1.970857252539    -1.386528269652    -1.037513603451    15.994914619570
         O            1.660363252539    -0.755148269652     1.466561396549    15.994914619570
         O           -1.789732747461     1.119527730348    -1.208339603451    15.994914619570
         O           -1.555826447461     0.930346430348     1.341068196549    15.994914619570
         O           -2.836187047461    -0.924455769652    -0.096378603451    15.994914619570
         C            2.669378252539     1.593213730348     0.001950396549    12.000000000000
         H            2.778497252539     1.640305730348     1.088673396549     1.007825032230
         H            3.491451252539     0.996848730348    -0.410013603451     1.007825032230
         H            2.718726252539     2.599709730348    -0.418118603451     1.007825032230

  Basis Set: AUG-CC-PVTZ
    Blend: AUG-CC-PVTZ
  Basis Set: (AUG-CC-PVTZ AUX)
    Blend: AUG-CC-PVTZ-JKFIT
	 Reference Energy          =   -1245.3425925968044794 [Eh]
	 Singles Energy            =      -0.0000000000000000 [Eh]
	 Same-Spin Energy          =      -0.6462734975633657 [Eh]
	 Opposite-Spin Energy      =      -1.8067548570869829 [Eh]
	 Correlation Energy        =      -2.4530283546503489 [Eh]
	 Total Energy              =   -1247.7956209514547936 [Eh]

	 ================> DF-SCS-MP2 Energies <==================
	-----------------------------------------------------------
	 SCS Same-Spin Scale       =       0.3333333333333333 [-]
	 SCS Opposite-Spin Scale   =       1.2000000000000000 [-]
	 SCS Same-Spin Energy      =      -0.2154244991877886 [Eh]
	 SCS Opposite-Spin Energy  =      -2.1681058285043795 [Eh]
	 SCS Correlation Energy    =      -2.3835303276921680 [Eh]
	 SCS Total Energy          =   -1247.7261229244966216 [Eh]
	-----------------------------------------------------------

  Dipole Moment: [D]
     X:     7.6860      Y:     2.2378      Z:    -0.1776     Total:     8.0072

*** Psi4 exiting successfully. Buy a developer a beer!
