                               Psi4 1.3.2 release

  ==> Input File <==

--------------------------------------------------------------------------
#psi4
#
memory 32 gb

molecule  {
-3 1
  P        1.1931290    -0.6069630     0.0087730
  P       -1.8341790     0.1663700     0.0034510
  O        1.3847486     1.0167369    -0.3677441
  O       -0.3855035    -0.8563716    -0.1885212
  O        1.9273580    -1.4129110    -1.0480400
  O        1.6168640    -0.7815310     1.4560350
  O       -1.8332320     1.0931450    -1.2188660
  O       -1.6562150     0.8578460     1.3638040
  O       -2.8968830    -0.9395270    -0.0292720
  C        2.6258790     1.5668310    -0.0085760
  H        2.7349980     1.6139230     1.0781470
  H        3.4479520     0.9704660    -0.4205400
  H        2.6752270     2.5733270    -0.4286450
units angstrom
no_reorient  #important for SAPT in psi4, default
symmetry c1  #important for SAPT in psi4, default
}

set PROPERTIES_ORIGIN ["COM"]
properties('MP2/aug-cc-pvtz', properties = ['dipole'])
--------------------------------------------------------------------------

    Molecular point group: c1
  Charge       = -3
  Multiplicity = 1
  Basis Set: AUG-CC-PVTZ
    Blend: AUG-CC-PVTZ
  Basis Set: (AUG-CC-PVTZ AUX)
    Blend: AUG-CC-PVTZ-JKFIT

    Orbital Energies [Eh]
    ---------------------

    Doubly Occupied:

       1A    -79.621423     2A    -79.561519     3A    -20.151748
       4A    -20.082088     5A    -20.053034     6A    -20.049141
       7A    -20.002356     8A    -20.000068     9A    -19.999570
      10A    -10.915182    11A     -7.135517    12A     -7.075280
      13A     -5.034775    14A     -5.033334    15A     -5.032471
      16A     -4.974823    17A     -4.972360    18A     -4.972237
      19A     -0.971770    20A     -0.887606    21A     -0.840905
      22A     -0.801638    23A     -0.799855    24A     -0.743798
      25A     -0.742071    26A     -0.559059    27A     -0.336780
      28A     -0.282683    29A     -0.257392    30A     -0.234534
      31A     -0.186385    32A     -0.147902    33A     -0.142512
      34A     -0.111944    35A     -0.093374    36A     -0.088798
      37A     -0.062209    38A     -0.059937    39A     -0.043526
      40A     -0.036929    41A     -0.020847    42A      0.008443
      43A      0.021179    44A      0.021356    45A      0.023913
      46A      0.028577    47A      0.063139    48A      0.066214
      49A      0.091253

  @DF-RHF Final Energy: -1245.34586506449023

   => Energetics <=

    Nuclear Repulsion Energy =            819.8717208205340512
    One-Electron Energy =               -3404.8445657521060639
    Two-Electron Energy =                1339.6269798670819000
    Total Energy =                      -1245.3458650644902264
  Basis Set: (AUG-CC-PVTZ AUX)
    Blend: AUG-CC-PVTZ-RI
    Molecular point group: c1

    Geometry (in Angstrom), charge = -3, multiplicity = 1:

       Center              X                  Y                   Z               Mass
    ------------   -----------------  -----------------  -----------------  -----------------
         P            1.240203948804    -0.575188233566     0.008852593834    30.973761998420
         P           -1.787104051196     0.198144766434     0.003530593834    30.973761998420
         O            1.431823548804     1.048511666434    -0.367664506166    15.994914619570
         O           -0.338428551196    -0.824596833566    -0.188441606166    15.994914619570
         O            1.974432948804    -1.381136233566    -1.047960406166    15.994914619570
         O            1.663938948804    -0.749756233566     1.456114593834    15.994914619570
         O           -1.786157051196     1.124919766434    -1.218786406166    15.994914619570
         O           -1.609140051196     0.889620766434     1.363883593834    15.994914619570
         O           -2.849808051196    -0.907752233566    -0.029192406166    15.994914619570
         C            2.672953948804     1.598605766434    -0.008496406166    12.000000000000
         H            2.782072948804     1.645697766434     1.078226593834     1.007825032230
         H            3.495026948804     1.002240766434    -0.420460406166     1.007825032230
         H            2.722301948804     2.605101766434    -0.428565406166     1.007825032230

  Basis Set: AUG-CC-PVTZ
    Blend: AUG-CC-PVTZ
  Basis Set: (AUG-CC-PVTZ AUX)
    Blend: AUG-CC-PVTZ-JKFIT
	 Reference Energy          =   -1245.3458650644902264 [Eh]
	 Singles Energy            =      -0.0000000000000000 [Eh]
	 Same-Spin Energy          =      -0.6459545008996204 [Eh]
	 Opposite-Spin Energy      =      -1.8059310328965865 [Eh]
	 Correlation Energy        =      -2.4518855337962071 [Eh]
	 Total Energy              =   -1247.7977505982864841 [Eh]

	 ================> DF-SCS-MP2 Energies <==================
	-----------------------------------------------------------
	 SCS Same-Spin Scale       =       0.3333333333333333 [-]
	 SCS Opposite-Spin Scale   =       1.2000000000000000 [-]
	 SCS Same-Spin Energy      =      -0.2153181669665401 [Eh]
	 SCS Opposite-Spin Energy  =      -2.1671172394759037 [Eh]
	 SCS Correlation Energy    =      -2.3824354064424438 [Eh]
	 SCS Total Energy          =   -1247.7283004709327088 [Eh]
	-----------------------------------------------------------

  Dipole Moment: [D]
     X:     7.7031      Y:     2.3767      Z:    -0.4894     Total:     8.0763

*** Psi4 exiting successfully. Buy a developer a beer!
