                               Psi4 1.3.2 release

  ==> Input File <==

--------------------------------------------------------------------------
#psi4
#
memory 32 gb

molecule  {
-3 1
  P        1.1931290    -0.6069630     0.0087730
  P       -1.8341790     0.1663700     0.0034510
  O        1.3717853     1.0112841    -0.3964958
  O       -0.3886030    -0.8294050    -0.1958090
  O        1.9341142    -1.3903610    -1.0602109
  O        1.6168640    -0.7815310     1.4560350
  O       -1.8332320     1.0931450    -1.2188660
  O       -1.6562150     0.8578460     1.3638040
  O       -2.8968830    -0.9395270    -0.0292720
  C        2.6258790     1.5668310    -0.0085760
  H        2.7349980     1.6139230     1.0781470
  H        3.4479520     0.9704660    -0.4205400
  H        2.6752270     2.5733270    -0.4286450
units angstrom
no_reorient  #important for SAPT in psi4, default
symmetry c1  #important for SAPT in psi4, default
}

set PROPERTIES_ORIGIN ["COM"]
properties('MP2/aug-cc-pvtz', properties = ['dipole'])
--------------------------------------------------------------------------

    Molecular point group: c1
  Charge       = -3
  Multiplicity = 1
  Basis Set: AUG-CC-PVTZ
    Blend: AUG-CC-PVTZ
  Basis Set: (AUG-CC-PVTZ AUX)
    Blend: AUG-CC-PVTZ-JKFIT

    Orbital Energies [Eh]
    ---------------------

    Doubly Occupied:

       1A    -79.622262     2A    -79.559602     3A    -20.151002
       4A    -20.081572     5A    -20.053387     6A    -20.052691
       7A    -19.999557     8A    -19.999206     9A    -19.997836
      10A    -10.915822    11A     -7.136290    12A     -7.073418
      13A     -5.035608    14A     -5.034093    15A     -5.033256
      16A     -4.972987    17A     -4.970528    18A     -4.970397
      19A     -0.965584    20A     -0.887124    21A     -0.841635
      22A     -0.803716    23A     -0.799358    24A     -0.742084
      25A     -0.740697    26A     -0.559328    27A     -0.336177
      28A     -0.282523    29A     -0.253747    30A     -0.228567
      31A     -0.187255    32A     -0.147619    33A     -0.143672
      34A     -0.113196    35A     -0.093447    36A     -0.088926
      37A     -0.062963    38A     -0.058217    39A     -0.043688
      40A     -0.038041    41A     -0.021153    42A      0.006754
      43A      0.020491    44A      0.022312    45A      0.025439
      46A      0.027766    47A      0.064664    48A      0.068111
      49A      0.092867

  @DF-RHF Final Energy: -1245.34572968696966

   => Energetics <=

    Nuclear Repulsion Energy =            820.3813364635368544
    One-Electron Energy =               -3405.9144757720932830
    Two-Electron Energy =                1340.1874096215865393
    Total Energy =                      -1245.3457296869696620
  Basis Set: (AUG-CC-PVTZ AUX)
    Blend: AUG-CC-PVTZ-RI
    Molecular point group: c1

    Geometry (in Angstrom), charge = -3, multiplicity = 1:

       Center              X                  Y                   Z               Mass
    ------------   -----------------  -----------------  -----------------  -----------------
         P            1.240991828001    -0.578918591738     0.012933995339    30.973761998420
         P           -1.786316171999     0.194414408262     0.007611995339    30.973761998420
         O            1.419648128001     1.039328508262    -0.392334804661    15.994914619570
         O           -0.340740171999    -0.801360591738    -0.191648004661    15.994914619570
         O            1.981977028001    -1.362316591738    -1.056049904661    15.994914619570
         O            1.664726828001    -0.753486591738     1.460195995339    15.994914619570
         O           -1.785369171999     1.121189408262    -1.214705004661    15.994914619570
         O           -1.608352171999     0.885890408262     1.367964995339    15.994914619570
         O           -2.849020171999    -0.911482591738    -0.025111004661    15.994914619570
         C            2.673741828001     1.594875408262    -0.004415004661    12.000000000000
         H            2.782860828001     1.641967408262     1.082307995339     1.007825032230
         H            3.495814828001     0.998510408262    -0.416379004661     1.007825032230
         H            2.723089828001     2.601371408262    -0.424484004661     1.007825032230

  Basis Set: AUG-CC-PVTZ
    Blend: AUG-CC-PVTZ
  Basis Set: (AUG-CC-PVTZ AUX)
    Blend: AUG-CC-PVTZ-JKFIT
	 Reference Energy          =   -1245.3457296869696620 [Eh]
	 Singles Energy            =      -0.0000000000000000 [Eh]
	 Same-Spin Energy          =      -0.6459963495193635 [Eh]
	 Opposite-Spin Energy      =      -1.8061708879252136 [Eh]
	 Correlation Energy        =      -2.4521672374445771 [Eh]
	 Total Energy              =   -1247.7978969244143173 [Eh]

	 ================> DF-SCS-MP2 Energies <==================
	-----------------------------------------------------------
	 SCS Same-Spin Scale       =       0.3333333333333333 [-]
	 SCS Opposite-Spin Scale   =       1.2000000000000000 [-]
	 SCS Same-Spin Energy      =      -0.2153321165064545 [Eh]
	 SCS Opposite-Spin Energy  =      -2.1674050655102564 [Eh]
	 SCS Correlation Energy    =      -2.3827371820167107 [Eh]
	 SCS Total Energy          =   -1247.7284668689862883 [Eh]
	-----------------------------------------------------------

  Dipole Moment: [D]
     X:     7.8500      Y:     2.2795      Z:    -0.4142     Total:     8.1848

*** Psi4 exiting successfully. Buy a developer a beer!
