                               Psi4 1.4a3.dev225

  ==> Input File <==

--------------------------------------------------------------------------
#psi4
#
memory 32 gb

molecule  {
-3 1
  P       -1.1253500     0.3591720     0.0081310
  P        2.0878660    -0.1053470     0.0007630
  O       -2.1391380    -1.0979190    -0.1147190
  O        0.2405970    -0.4148950    -0.1339660
  O       -1.5628960     1.1822930    -1.2021870
  O       -1.4866918     0.9248815     1.4340369
  O        2.4385690    -0.8874190     1.2758270
  O        2.1989840     1.4211450     0.0869110
  O        2.5676630    -0.7478960    -1.3107960
  C       -3.4907010    -0.7724380    -0.0147870
  H       -3.7335280    -0.2943150     0.9495100
  H       -3.8114220    -0.0788120    -0.8111520
  H       -4.0969940    -1.6975630    -0.1019980
units angstrom
no_reorient  #important for SAPT in psi4, default
symmetry c1  #important for SAPT in psi4, default
}

set PROPERTIES_ORIGIN ["COM"]
properties('MP2/aug-cc-pvtz', properties = ['dipole'])
--------------------------------------------------------------------------

    Molecular point group: c1
  Charge       = -3
  Multiplicity = 1
  Basis Set: AUG-CC-PVTZ
    Blend: AUG-CC-PVTZ
  Basis Set: (AUG-CC-PVTZ AUX)
    Blend: AUG-CC-PVTZ-JKFIT

    Orbital Energies [Eh]
    ---------------------

    Doubly Occupied:

       1A    -79.637481     2A    -79.586850     3A    -20.148758
       4A    -20.092349     5A    -20.060383     6A    -20.057491
       7A    -20.023951     8A    -20.023444     9A    -20.022655
      10A    -10.912146    11A     -7.148946    12A     -7.100197
      13A     -5.048491    14A     -5.046594    15A     -5.045540
      16A     -4.999914    17A     -4.996873    18A     -4.996851
      19A     -0.957087    20A     -0.888172    21A     -0.845422
      22A     -0.816870    23A     -0.791653    24A     -0.764294
      25A     -0.763143    26A     -0.544063    27A     -0.337680
      28A     -0.269566    29A     -0.247556    30A     -0.214168
      31A     -0.205017    32A     -0.156931    33A     -0.142619
      34A     -0.118291    35A     -0.098620    36A     -0.097694
      37A     -0.078748    38A     -0.054681    39A     -0.047534
      40A     -0.027977    41A     -0.013600    42A     -0.002256
      43A      0.001262    44A      0.002455    45A      0.009613
      46A      0.022631    47A      0.041974    48A      0.046794
      49A      0.069864

  @DF-RHF Final Energy: -1245.33526240638457

   => Energetics <=

    Nuclear Repulsion Energy =            794.7030561246377829
    One-Electron Energy =               -3353.6007083235090249
    Two-Electron Energy =                1313.5623897924865560
    Total Energy =                      -1245.3352624063845724
  Basis Set: (AUG-CC-PVTZ AUX)
    Blend: AUG-CC-PVTZ-RI
    Molecular point group: c1

    Geometry (in Angstrom), charge = -3, multiplicity = 1:

       Center              X                  Y                   Z               Mass
    ------------   -----------------  -----------------  -----------------  -----------------
         P           -1.190415646123     0.345480121769     0.004446073723    30.973761998420
         P            2.022800353877    -0.119038878231    -0.002921926277    30.973761998420
         O           -2.204203646123    -1.111610878231    -0.118403926277    15.994914619570
         O            0.175531353877    -0.428586878231    -0.137650926277    15.994914619570
         O           -1.627961646123     1.168601121769    -1.205871926277    15.994914619570
         O           -1.551757446123     0.911189621769     1.430351973723    15.994914619570
         O            2.373503353877    -0.901110878231     1.272142073723    15.994914619570
         O            2.133918353877     1.407453121769     0.083226073723    15.994914619570
         O            2.502597353877    -0.761587878231    -1.314480926277    15.994914619570
         C           -3.555766646123    -0.786129878231    -0.018471926277    12.000000000000
         H           -3.798593646123    -0.308006878231     0.945825073723     1.007825032230
         H           -3.876487646123    -0.092503878231    -0.814836926277     1.007825032230
         H           -4.162059646123    -1.711254878231    -0.105682926277     1.007825032230

  Basis Set: AUG-CC-PVTZ
    Blend: AUG-CC-PVTZ
  Basis Set: (AUG-CC-PVTZ AUX)
    Blend: AUG-CC-PVTZ-JKFIT
	 Reference Energy          =   -1245.3352624063845724 [Eh]
	 Singles Energy            =      -0.0000000000000000 [Eh]
	 Same-Spin Energy          =      -0.6484547097411191 [Eh]
	 Opposite-Spin Energy      =      -1.8126765135331240 [Eh]
	 Correlation Energy        =      -2.4611312232742431 [Eh]
	 Total Energy              =   -1247.7963936296587235 [Eh]

	 ================> DF-SCS-MP2 Energies <==================
	-----------------------------------------------------------
	 SCS Same-Spin Scale       =       0.3333333333333333 [-]
	 SCS Opposite-Spin Scale   =       1.2000000000000000 [-]
	 SCS Same-Spin Energy      =      -0.2161515699137063 [Eh]
	 SCS Opposite-Spin Energy  =      -2.1752118162397487 [Eh]
	 SCS Correlation Energy    =      -2.3913633861534551 [Eh]
	 SCS Total Energy          =   -1247.7266257925380160 [Eh]
	-----------------------------------------------------------

  Dipole Moment: [D]
     X:    -7.6195      Y:    -1.9327      Z:    -0.4397     Total:     7.8731

*** Psi4 exiting successfully. Buy a developer a beer!
