                               Psi4 1.3.2 release

  ==> Input File <==

--------------------------------------------------------------------------
#psi4
#
memory 32 gb

molecule  {
-3 1
  P        1.1931290    -0.6069630     0.0087730
  P       -1.8341790     0.1663700     0.0034510
  O        1.3559990     1.0186560    -0.3729610
  O       -0.3886030    -0.8294050    -0.1958090
  O        1.9273580    -1.4129110    -1.0480400
  O        1.6168640    -0.7815310     1.4560350
  O       -1.8332320     1.0931450    -1.2188660
  O       -1.6562150     0.8578460     1.3638040
  O       -2.8276102    -0.8674387    -0.0271389
  C        2.6258790     1.5668310    -0.0085760
  H        2.7349980     1.6139230     1.0781470
  H        3.4479520     0.9704660    -0.4205400
  H        2.6752270     2.5733270    -0.4286450
units angstrom
no_reorient  #important for SAPT in psi4, default
symmetry c1  #important for SAPT in psi4, default
}

set PROPERTIES_ORIGIN ["COM"]
properties('MP2/aug-cc-pvtz', properties = ['dipole'])
--------------------------------------------------------------------------

    Molecular point group: c1
  Charge       = -3
  Multiplicity = 1
  Basis Set: AUG-CC-PVTZ
    Blend: AUG-CC-PVTZ
  Basis Set: (AUG-CC-PVTZ AUX)
    Blend: AUG-CC-PVTZ-JKFIT

    Orbital Energies [Eh]
    ---------------------

    Doubly Occupied:

       1A    -79.617904     2A    -79.537423     3A    -20.149574
       4A    -20.073882     5A    -20.051758     6A    -20.047758
       7A    -19.992119     8A    -19.989538     9A    -19.987536
      10A    -10.914422    11A     -7.132003    12A     -7.055765
      13A     -5.031308    14A     -5.029761    15A     -5.029012
      16A     -4.954919    17A     -4.953585    18A     -4.952142
      19A     -0.961793    20A     -0.885990    21A     -0.848045
      22A     -0.805725    23A     -0.799836    24A     -0.752137
      25A     -0.732148    26A     -0.557823    27A     -0.331895
      28A     -0.277245    29A     -0.251311    30A     -0.224737
      31A     -0.183500    32A     -0.146413    33A     -0.140629
      34A     -0.111607    35A     -0.092540    36A     -0.089224
      37A     -0.061226    38A     -0.057677    39A     -0.042150
      40A     -0.037023    41A     -0.019443    42A      0.009806
      43A      0.014767    44A      0.020074    45A      0.028586
      46A      0.031701    47A      0.063158    48A      0.075539
      49A      0.098319

  @DF-RHF Final Energy: -1245.34015552072719

   => Energetics <=

    Nuclear Repulsion Energy =            825.3012038820312455
    One-Electron Energy =               -3416.1455624011505279
    Two-Electron Energy =                1345.5042029983922021
    Total Energy =                      -1245.3401555207271940
  Basis Set: (AUG-CC-PVTZ AUX)
    Blend: AUG-CC-PVTZ-RI
    Molecular point group: c1

    Geometry (in Angstrom), charge = -3, multiplicity = 1:

       Center              X                  Y                   Z               Mass
    ------------   -----------------  -----------------  -----------------  -----------------
         P            1.237035728970    -0.583736501897     0.009730633922    30.973761998420
         P           -1.790272271030     0.189596498103     0.004408633922    30.973761998420
         O            1.399905728970     1.041882498103    -0.372003366078    15.994914619570
         O           -0.344696271030    -0.806178501897    -0.194851366078    15.994914619570
         O            1.971264728970    -1.389684501897    -1.047082366078    15.994914619570
         O            1.660770728970    -0.758304501897     1.456992633922    15.994914619570
         O           -1.789325271030     1.116371498103    -1.217908366078    15.994914619570
         O           -1.612308271030     0.881072498103     1.364761633922    15.994914619570
         O           -2.783703471030    -0.844212201897    -0.026181266078    15.994914619570
         C            2.669785728970     1.590057498103    -0.007618366078    12.000000000000
         H            2.778904728970     1.637149498103     1.079104633922     1.007825032230
         H            3.491858728970     0.993692498103    -0.419582366078     1.007825032230
         H            2.719133728970     2.596553498103    -0.427687366078     1.007825032230

  Basis Set: AUG-CC-PVTZ
    Blend: AUG-CC-PVTZ
  Basis Set: (AUG-CC-PVTZ AUX)
    Blend: AUG-CC-PVTZ-JKFIT
	 Reference Energy          =   -1245.3401555207271940 [Eh]
	 Singles Energy            =      -0.0000000000000000 [Eh]
	 Same-Spin Energy          =      -0.6443573153873662 [Eh]
	 Opposite-Spin Energy      =      -1.8018991549051564 [Eh]
	 Correlation Energy        =      -2.4462564702925227 [Eh]
	 Total Energy              =   -1247.7864119910198042 [Eh]

	 ================> DF-SCS-MP2 Energies <==================
	-----------------------------------------------------------
	 SCS Same-Spin Scale       =       0.3333333333333333 [-]
	 SCS Opposite-Spin Scale   =       1.2000000000000000 [-]
	 SCS Same-Spin Energy      =      -0.2147857717957887 [Eh]
	 SCS Opposite-Spin Energy  =      -2.1622789858861875 [Eh]
	 SCS Correlation Energy    =      -2.3770647576819761 [Eh]
	 SCS Total Energy          =   -1247.7172202784090587 [Eh]
	-----------------------------------------------------------

  Dipole Moment: [D]
     X:     7.2727      Y:     1.7942      Z:    -0.4880     Total:     7.5066

*** Psi4 exiting successfully. Buy a developer a beer!
