                               Psi4 1.4a3.dev225

  ==> Input File <==

--------------------------------------------------------------------------
#psi4
#
memory 32 gb

molecule  {
-3 1
  P       -1.1253500     0.3591720     0.0081310
  P        2.0878660    -0.1053470     0.0007630
  O       -2.1391380    -1.0979190    -0.1147190
  O        0.2405970    -0.4148950    -0.1339660
  O       -1.5628960     1.1822930    -1.2021870
  O       -1.4706425     0.8997550     1.3707038
  O        2.4385690    -0.8874190     1.2758270
  O        2.1989840     1.4211450     0.0869110
  O        2.5676630    -0.7478960    -1.3107960
  C       -3.4907010    -0.7724380    -0.0147870
  H       -3.7335280    -0.2943150     0.9495100
  H       -3.8114220    -0.0788120    -0.8111520
  H       -4.0969940    -1.6975630    -0.1019980
units angstrom
no_reorient  #important for SAPT in psi4, default
symmetry c1  #important for SAPT in psi4, default
}

set PROPERTIES_ORIGIN ["COM"]
properties('MP2/aug-cc-pvtz', properties = ['dipole'])
--------------------------------------------------------------------------

    Molecular point group: c1
  Charge       = -3
  Multiplicity = 1
  Basis Set: AUG-CC-PVTZ
    Blend: AUG-CC-PVTZ
  Basis Set: (AUG-CC-PVTZ AUX)
    Blend: AUG-CC-PVTZ-JKFIT

    Orbital Energies [Eh]
    ---------------------

    Doubly Occupied:

       1A    -79.625163     2A    -79.585231     3A    -20.143972
       4A    -20.086890     5A    -20.054659     6A    -20.054041
       7A    -20.022248     8A    -20.022212     9A    -20.021365
      10A    -10.910685    11A     -7.138802    12A     -7.098528
      13A     -5.038186    14A     -5.036400    15A     -5.035640
      16A     -4.998226    17A     -4.995227    18A     -4.995212
      19A     -0.955452    20A     -0.886991    21A     -0.849069
      22A     -0.816863    23A     -0.803294    24A     -0.762964
      25A     -0.761702    26A     -0.542084    27A     -0.332917
      28A     -0.267851    29A     -0.245569    30A     -0.211318
      31A     -0.204316    32A     -0.156871    33A     -0.143358
      34A     -0.117382    35A     -0.098553    36A     -0.097264
      37A     -0.079536    38A     -0.053033    39A     -0.049182
      40A     -0.030940    41A     -0.014501    42A     -0.000790
      43A      0.001521    44A      0.003861    45A      0.008377
      46A      0.021863    47A      0.043515    48A      0.048625
      49A      0.071203

  @DF-RHF Final Energy: -1245.34269420707960

   => Energetics <=

    Nuclear Repulsion Energy =            797.9047465729094029
    One-Electron Energy =               -3360.2038454156286207
    Two-Electron Energy =                1316.9564046356395011
    Total Energy =                      -1245.3426942070796031
  Basis Set: (AUG-CC-PVTZ AUX)
    Blend: AUG-CC-PVTZ-RI
    Molecular point group: c1

    Geometry (in Angstrom), charge = -3, multiplicity = 1:

       Center              X                  Y                   Z               Mass
    ------------   -----------------  -----------------  -----------------  -----------------
         P           -1.191774349581     0.347607283853     0.009807734478    30.973761998420
         P            2.021441650419    -0.116911716147     0.002439734478    30.973761998420
         O           -2.205562349581    -1.109483716147    -0.113042265522    15.994914619570
         O            0.174172650419    -0.426459716147    -0.132289265522    15.994914619570
         O           -1.629320349581     1.170728283853    -1.200510265522    15.994914619570
         O           -1.537066849581     0.888190283853     1.372380534478    15.994914619570
         O            2.372144650419    -0.898983716147     1.277503734478    15.994914619570
         O            2.132559650419     1.409580283853     0.088587734478    15.994914619570
         O            2.501238650419    -0.759460716147    -1.309119265522    15.994914619570
         C           -3.557125349581    -0.784002716147    -0.013110265522    12.000000000000
         H           -3.799952349581    -0.305879716147     0.951186734478     1.007825032230
         H           -3.877846349581    -0.090376716147    -0.809475265522     1.007825032230
         H           -4.163418349581    -1.709127716147    -0.100321265522     1.007825032230

  Basis Set: AUG-CC-PVTZ
    Blend: AUG-CC-PVTZ
  Basis Set: (AUG-CC-PVTZ AUX)
    Blend: AUG-CC-PVTZ-JKFIT
	 Reference Energy          =   -1245.3426942070796031 [Eh]
	 Singles Energy            =      -0.0000000000000000 [Eh]
	 Same-Spin Energy          =      -0.6470975607329185 [Eh]
	 Opposite-Spin Energy      =      -1.8091661177037199 [Eh]
	 Correlation Energy        =      -2.4562636784366383 [Eh]
	 Total Energy              =   -1247.7989578855163018 [Eh]

	 ================> DF-SCS-MP2 Energies <==================
	-----------------------------------------------------------
	 SCS Same-Spin Scale       =       0.3333333333333333 [-]
	 SCS Opposite-Spin Scale   =       1.2000000000000000 [-]
	 SCS Same-Spin Energy      =      -0.2156991869109728 [Eh]
	 SCS Opposite-Spin Energy  =      -2.1709993412444639 [Eh]
	 SCS Correlation Energy    =      -2.3866985281554367 [Eh]
	 SCS Total Energy          =   -1247.7293927352350238 [Eh]
	-----------------------------------------------------------

  Dipole Moment: [D]
     X:    -7.7392      Y:    -1.7682      Z:    -0.0619     Total:     7.9389

*** Psi4 exiting successfully. Buy a developer a beer!
