                               Psi4 1.3.2 release

  ==> Input File <==

--------------------------------------------------------------------------
#psi4
#
memory 32 gb

molecule  {
-3 1
  P        1.1931290    -0.6069630     0.0087730
  P       -1.8341790     0.1663700     0.0034510
  O        1.3083617     1.0377924    -0.3016876
  O       -0.3886030    -0.8294050    -0.1958090
  O        1.9057561    -1.4790608    -1.0096111
  O        1.6168640    -0.7815310     1.4560350
  O       -1.8332320     1.0931450    -1.2188660
  O       -1.6562150     0.8578460     1.3638040
  O       -2.8968830    -0.9395270    -0.0292720
  C        2.6258790     1.5668310    -0.0085760
  H        2.7349980     1.6139230     1.0781470
  H        3.4479520     0.9704660    -0.4205400
  H        2.6752270     2.5733270    -0.4286450
units angstrom
no_reorient  #important for SAPT in psi4, default
symmetry c1  #important for SAPT in psi4, default
}

set PROPERTIES_ORIGIN ["COM"]
properties('MP2/aug-cc-pvtz', properties = ['dipole'])
--------------------------------------------------------------------------

    Molecular point group: c1
  Charge       = -3
  Multiplicity = 1
  Basis Set: AUG-CC-PVTZ
    Blend: AUG-CC-PVTZ
  Basis Set: (AUG-CC-PVTZ AUX)
    Blend: AUG-CC-PVTZ-JKFIT

    Orbital Energies [Eh]
    ---------------------

    Doubly Occupied:

       1A    -79.621092     2A    -79.557441     3A    -20.158171
       4A    -20.077230     5A    -20.058286     6A    -20.045049
       7A    -19.998281     8A    -19.997350     9A    -19.995402
      10A    -10.920940    11A     -7.135203    12A     -7.071245
      13A     -5.034499    14A     -5.032913    15A     -5.032225
      16A     -4.970792    17A     -4.968378    18A     -4.968245
      19A     -0.962960    20A     -0.884568    21A     -0.841028
      22A     -0.800145    23A     -0.797120    24A     -0.740566
      25A     -0.738546    26A     -0.564470    27A     -0.335367
      28A     -0.280413    29A     -0.254990    30A     -0.226204
      31A     -0.186643    32A     -0.145955    33A     -0.143221
      34A     -0.118515    35A     -0.090414    36A     -0.087469
      37A     -0.064421    38A     -0.055629    39A     -0.040805
      40A     -0.037654    41A     -0.024968    42A      0.010299
      43A      0.023159    44A      0.023981    45A      0.027263
      46A      0.030215    47A      0.066645    48A      0.070128
      49A      0.094651

  @DF-RHF Final Energy: -1245.33965414461977

   => Energetics <=

    Nuclear Repulsion Energy =            820.6416041915590540
    One-Electron Energy =               -3406.5255719062893149
    Two-Electron Energy =                1340.5443135701104893
    Total Energy =                      -1245.3396541446197716
  Basis Set: (AUG-CC-PVTZ AUX)
    Blend: AUG-CC-PVTZ-RI
    Molecular point group: c1

    Geometry (in Angstrom), charge = -3, multiplicity = 1:

       Center              X                  Y                   Z               Mass
    ------------   -----------------  -----------------  -----------------  -----------------
         P            1.248761893558    -0.573653576685     0.000624028402    30.973761998420
         P           -1.778546106442     0.199679423315    -0.004697971598    30.973761998420
         O            1.363994593558     1.071101823315    -0.309836571598    15.994914619570
         O           -0.332970106442    -0.796095576685    -0.203957971598    15.994914619570
         O            1.961388993558    -1.445751376685    -1.017760071598    15.994914619570
         O            1.672496893558    -0.748221576685     1.447886028402    15.994914619570
         O           -1.777599106442     1.126454423315    -1.227014971598    15.994914619570
         O           -1.600582106442     0.891155423315     1.355655028402    15.994914619570
         O           -2.841250106442    -0.906217576685    -0.037420971598    15.994914619570
         C            2.681511893558     1.600140423315    -0.016724971598    12.000000000000
         H            2.790630893558     1.647232423315     1.069998028402     1.007825032230
         H            3.503584893558     1.003775423315    -0.428688971598     1.007825032230
         H            2.730859893558     2.606636423315    -0.436793971598     1.007825032230

  Basis Set: AUG-CC-PVTZ
    Blend: AUG-CC-PVTZ
  Basis Set: (AUG-CC-PVTZ AUX)
    Blend: AUG-CC-PVTZ-JKFIT
	 Reference Energy          =   -1245.3396541446197716 [Eh]
	 Singles Energy            =      -0.0000000000000000 [Eh]
	 Same-Spin Energy          =      -0.6463758323931181 [Eh]
	 Opposite-Spin Energy      =      -1.8073280504815727 [Eh]
	 Correlation Energy        =      -2.4537038828746907 [Eh]
	 Total Energy              =   -1247.7933580274943779 [Eh]

	 ================> DF-SCS-MP2 Energies <==================
	-----------------------------------------------------------
	 SCS Same-Spin Scale       =       0.3333333333333333 [-]
	 SCS Opposite-Spin Scale   =       1.2000000000000000 [-]
	 SCS Same-Spin Energy      =      -0.2154586107977060 [Eh]
	 SCS Opposite-Spin Energy  =      -2.1687936605778870 [Eh]
	 SCS Correlation Energy    =      -2.3842522713755931 [Eh]
	 SCS Total Energy          =   -1247.7239064159953159 [Eh]
	-----------------------------------------------------------

  Dipole Moment: [D]
     X:     8.0978      Y:     2.4897      Z:    -0.6441     Total:     8.4963

*** Psi4 exiting successfully. Buy a developer a beer!
