                               Psi4 1.3.2 release

  ==> Input File <==

--------------------------------------------------------------------------
#psi4
#
memory 32 gb

molecule  {
-3 1
  P        1.1931290    -0.6069630     0.0087730
  P       -1.8341790     0.1663700     0.0034510
  O        1.3841716     1.0327159    -0.2909608
  O       -0.3886030    -0.8294050    -0.1958090
  O        1.9273580    -1.4129110    -1.0480400
  O        1.6313774    -0.7034466     1.4590219
  O       -1.8332320     1.0931450    -1.2188660
  O       -1.6562150     0.8578460     1.3638040
  O       -2.8968830    -0.9395270    -0.0292720
  C        2.6258790     1.5668310    -0.0085760
  H        2.7349980     1.6139230     1.0781470
  H        3.4479520     0.9704660    -0.4205400
  H        2.6752270     2.5733270    -0.4286450
units angstrom
no_reorient  #important for SAPT in psi4, default
symmetry c1  #important for SAPT in psi4, default
}

set PROPERTIES_ORIGIN ["COM"]
properties('MP2/aug-cc-pvtz', properties = ['dipole'])
--------------------------------------------------------------------------

    Molecular point group: c1
  Charge       = -3
  Multiplicity = 1
  Basis Set: AUG-CC-PVTZ
    Blend: AUG-CC-PVTZ
  Basis Set: (AUG-CC-PVTZ AUX)
    Blend: AUG-CC-PVTZ-JKFIT

    Orbital Energies [Eh]
    ---------------------

    Doubly Occupied:

       1A    -79.624439     2A    -79.560565     3A    -20.143906
       4A    -20.085352     5A    -20.061064     6A    -20.047111
       7A    -20.000784     8A    -20.000273     9A    -19.997699
      10A    -10.909187    11A     -7.138273    12A     -7.074409
      13A     -5.037631    14A     -5.036123    15A     -5.035189
      16A     -4.973994    17A     -4.971505    18A     -4.971362
      19A     -0.975084    20A     -0.891446    21A     -0.843368
      22A     -0.804685    23A     -0.800972    24A     -0.743218
      25A     -0.740941    26A     -0.553692    27A     -0.339555
      28A     -0.285923    29A     -0.256940    30A     -0.236088
      31A     -0.186648    32A     -0.148129    33A     -0.144659
      34A     -0.108810    35A     -0.095533    36A     -0.089268
      37A     -0.059771    38A     -0.057042    39A     -0.043966
      40A     -0.039653    41A     -0.022193    42A      0.008282
      43A      0.019823    44A      0.021183    45A      0.024664
      46A      0.026265    47A      0.063673    48A      0.067323
      49A      0.092228

  @DF-RHF Final Energy: -1245.34548626764104

   => Energetics <=

    Nuclear Repulsion Energy =            821.3593401884888863
    One-Electron Energy =               -3407.7836279959874446
    Two-Electron Energy =                1341.0788015398572952
    Total Energy =                      -1245.3454862676410357
  Basis Set: (AUG-CC-PVTZ AUX)
    Blend: AUG-CC-PVTZ-RI
    Molecular point group: c1

    Geometry (in Angstrom), charge = -3, multiplicity = 1:

       Center              X                  Y                   Z               Mass
    ------------   -----------------  -----------------  -----------------  -----------------
         P            1.239286517296    -0.585434405018     0.002716370603    30.973761998420
         P           -1.788021482704     0.187898594982    -0.002605629397    30.973761998420
         O            1.430329117296     1.054244494982    -0.297017429397    15.994914619570
         O           -0.342445482704    -0.807876405018    -0.201865629397    15.994914619570
         O            1.973515517296    -1.391382405018    -1.054096629397    15.994914619570
         O            1.677534917296    -0.681918005018     1.452965270603    15.994914619570
         O           -1.787074482704     1.114673594982    -1.224922629397    15.994914619570
         O           -1.610057482704     0.879374594982     1.357747370603    15.994914619570
         O           -2.850725482704    -0.917998405018    -0.035328629397    15.994914619570
         C            2.672036517296     1.588359594982    -0.014632629397    12.000000000000
         H            2.781155517296     1.635451594982     1.072090370603     1.007825032230
         H            3.494109517296     0.991994594982    -0.426596629397     1.007825032230
         H            2.721384517296     2.594855594982    -0.434701629397     1.007825032230

  Basis Set: AUG-CC-PVTZ
    Blend: AUG-CC-PVTZ
  Basis Set: (AUG-CC-PVTZ AUX)
    Blend: AUG-CC-PVTZ-JKFIT
	 Reference Energy          =   -1245.3454862676410357 [Eh]
	 Singles Energy            =      -0.0000000000000000 [Eh]
	 Same-Spin Energy          =      -0.6459053025856478 [Eh]
	 Opposite-Spin Energy      =      -1.8051581036047522 [Eh]
	 Correlation Energy        =      -2.4510634061904000 [Eh]
	 Total Energy              =   -1247.7965496738313504 [Eh]

	 ================> DF-SCS-MP2 Energies <==================
	-----------------------------------------------------------
	 SCS Same-Spin Scale       =       0.3333333333333333 [-]
	 SCS Opposite-Spin Scale   =       1.2000000000000000 [-]
	 SCS Same-Spin Energy      =      -0.2153017675285493 [Eh]
	 SCS Opposite-Spin Energy  =      -2.1661897243257027 [Eh]
	 SCS Correlation Energy    =      -2.3814914918542520 [Eh]
	 SCS Total Energy          =   -1247.7269777594951847 [Eh]
	-----------------------------------------------------------

  Dipole Moment: [D]
     X:     7.6793      Y:     2.0323      Z:    -0.6020     Total:     7.9665

*** Psi4 exiting successfully. Buy a developer a beer!
