                               Psi4 1.3.2 release

  ==> Input File <==

--------------------------------------------------------------------------
#psi4
#
memory 32 gb

molecule  {
-3 1
  P        1.1931290    -0.6069630     0.0087730
  P       -1.8341790     0.1663700     0.0034510
  O        1.3559990     1.0186560    -0.3729610
  O       -0.3886030    -0.8294050    -0.1958090
  O        1.9273580    -1.4129110    -1.0480400
  O        1.6168640    -0.7815310     1.4560350
  O       -1.8435768     1.0284408    -1.2652953
  O       -1.6609953     0.7855759     1.3987868
  O       -2.8968830    -0.9395270    -0.0292720
  C        2.6258790     1.5668310    -0.0085760
  H        2.7349980     1.6139230     1.0781470
  H        3.4479520     0.9704660    -0.4205400
  H        2.6752270     2.5733270    -0.4286450
units angstrom
no_reorient  #important for SAPT in psi4, default
symmetry c1  #important for SAPT in psi4, default
}

set PROPERTIES_ORIGIN ["COM"]
properties('MP2/aug-cc-pvtz', properties = ['dipole'])
--------------------------------------------------------------------------

    Molecular point group: c1
  Charge       = -3
  Multiplicity = 1
  Basis Set: AUG-CC-PVTZ
    Blend: AUG-CC-PVTZ
  Basis Set: (AUG-CC-PVTZ AUX)
    Blend: AUG-CC-PVTZ-JKFIT

    Orbital Energies [Eh]
    ---------------------

    Doubly Occupied:

       1A    -79.620816     2A    -79.559230     3A    -20.153584
       4A    -20.077289     5A    -20.053756     6A    -20.049924
       7A    -20.003800     8A    -20.001807     9A    -19.991787
      10A    -10.917740    11A     -7.134878    12A     -7.073093
      13A     -5.034198    14A     -5.032643    15A     -5.031864
      16A     -4.972696    17A     -4.970346    18A     -4.969897
      19A     -0.965536    20A     -0.885331    21A     -0.841096
      22A     -0.801977    23A     -0.797736    24A     -0.747459
      25A     -0.735857    26A     -0.561268    27A     -0.335369
      28A     -0.281292    29A     -0.254815    30A     -0.228918
      31A     -0.186727    32A     -0.147257    33A     -0.142919
      34A     -0.114517    35A     -0.091906    36A     -0.088919
      37A     -0.063905    38A     -0.056093    39A     -0.042701
      40A     -0.036540    41A     -0.021818    42A      0.007689
      43A      0.019964    44A      0.023204    45A      0.026326
      46A      0.029004    47A      0.064464    48A      0.069205
      49A      0.093549

  @DF-RHF Final Energy: -1245.34228856750678

   => Energetics <=

    Nuclear Repulsion Energy =            820.5678153630988163
    One-Electron Energy =               -3406.3284131233194785
    Two-Electron Energy =                1340.4183091927138776
    Total Energy =                      -1245.3422885675067846
  Basis Set: (AUG-CC-PVTZ AUX)
    Blend: AUG-CC-PVTZ-RI
    Molecular point group: c1

    Geometry (in Angstrom), charge = -3, multiplicity = 1:

       Center              X                  Y                   Z               Mass
    ------------   -----------------  -----------------  -----------------  -----------------
         P            1.244180695950    -0.566037656621     0.010880257237    30.973761998420
         P           -1.783127304050     0.207295343379     0.005558257237    30.973761998420
         O            1.407050695950     1.059581343379    -0.370853742763    15.994914619570
         O           -0.337551304050    -0.788479656621    -0.193701742763    15.994914619570
         O            1.978409695950    -1.371985656621    -1.045932742763    15.994914619570
         O            1.667915695950    -0.740605656621     1.458142257237    15.994914619570
         O           -1.792525104050     1.069366143379    -1.263188042763    15.994914619570
         O           -1.609943604050     0.826501243379     1.400894057237    15.994914619570
         O           -2.845831304050    -0.898601656621    -0.027164742763    15.994914619570
         C            2.676930695950     1.607756343379    -0.006468742763    12.000000000000
         H            2.786049695950     1.654848343379     1.080254257237     1.007825032230
         H            3.499003695950     1.011391343379    -0.418432742763     1.007825032230
         H            2.726278695950     2.614252343379    -0.426537742763     1.007825032230

  Basis Set: AUG-CC-PVTZ
    Blend: AUG-CC-PVTZ
  Basis Set: (AUG-CC-PVTZ AUX)
    Blend: AUG-CC-PVTZ-JKFIT
	 Reference Energy          =   -1245.3422885675067846 [Eh]
	 Singles Energy            =      -0.0000000000000000 [Eh]
	 Same-Spin Energy          =      -0.6462732812602827 [Eh]
	 Opposite-Spin Energy      =      -1.8067984622431499 [Eh]
	 Correlation Energy        =      -2.4530717435034326 [Eh]
	 Total Energy              =   -1247.7953603110101994 [Eh]

	 ================> DF-SCS-MP2 Energies <==================
	-----------------------------------------------------------
	 SCS Same-Spin Scale       =       0.3333333333333333 [-]
	 SCS Opposite-Spin Scale   =       1.2000000000000000 [-]
	 SCS Same-Spin Energy      =      -0.2154244270867609 [Eh]
	 SCS Opposite-Spin Energy  =      -2.1681581546917799 [Eh]
	 SCS Correlation Energy    =      -2.3835825817785405 [Eh]
	 SCS Total Energy          =   -1247.7258711492852399 [Eh]
	-----------------------------------------------------------

  Dipole Moment: [D]
     X:     7.9487      Y:     2.6641      Z:    -0.4439     Total:     8.3950

*** Psi4 exiting successfully. Buy a developer a beer!
