                               Psi4 1.3.2 release

  ==> Input File <==

--------------------------------------------------------------------------
#psi4
#
memory 32 gb

molecule  {
-3 1
  P        1.1931290    -0.6069630     0.0087730
  P       -1.8341790     0.1663700     0.0034510
  O        1.3559990     1.0186560    -0.3729610
  O       -0.3783670    -0.8195431    -0.1684477
  O        1.9273580    -1.4129110    -1.0480400
  O        1.6168640    -0.7815310     1.4560350
  O       -1.8332320     1.0931450    -1.2188660
  O       -1.6326961     0.8453273     1.3668263
  O       -2.8968830    -0.9395270    -0.0292720
  C        2.6258790     1.5668310    -0.0085760
  H        2.7349980     1.6139230     1.0781470
  H        3.4479520     0.9704660    -0.4205400
  H        2.6752270     2.5733270    -0.4286450
units angstrom
no_reorient  #important for SAPT in psi4, default
symmetry c1  #important for SAPT in psi4, default
}

set PROPERTIES_ORIGIN ["COM"]
properties('MP2/aug-cc-pvtz', properties = ['dipole'])
--------------------------------------------------------------------------

    Molecular point group: c1
  Charge       = -3
  Multiplicity = 1
  Basis Set: AUG-CC-PVTZ
    Blend: AUG-CC-PVTZ
  Basis Set: (AUG-CC-PVTZ AUX)
    Blend: AUG-CC-PVTZ-JKFIT

    Orbital Energies [Eh]
    ---------------------

    Doubly Occupied:

       1A    -79.619174     2A    -79.560227     3A    -20.151174
       4A    -20.078379     5A    -20.053946     6A    -20.047530
       7A    -20.001357     8A    -20.000751     9A    -19.996317
      10A    -10.915869    11A     -7.133452    12A     -7.073986
      13A     -5.032787    14A     -5.031271    15A     -5.030417
      16A     -4.973595    17A     -4.971105    18A     -4.970930
      19A     -0.964180    20A     -0.887882    21A     -0.840712
      22A     -0.800986    23A     -0.799774    24A     -0.743439
      25A     -0.740591    26A     -0.559353    27A     -0.336087
      28A     -0.282855    29A     -0.252859    30A     -0.227512
      31A     -0.185593    32A     -0.147444    33A     -0.143857
      34A     -0.113274    35A     -0.093536    36A     -0.088507
      37A     -0.062277    38A     -0.056875    39A     -0.042924
      40A     -0.037698    41A     -0.020878    42A      0.009319
      43A      0.020815    44A      0.021934    45A      0.025407
      46A      0.028931    47A      0.063697    48A      0.068593
      49A      0.092176

  @DF-RHF Final Energy: -1245.34596735288051

   => Energetics <=

    Nuclear Repulsion Energy =            821.3549294166432446
    One-Electron Energy =               -3407.9208220653035823
    Two-Electron Energy =                1341.2199252957798308
    Total Energy =                      -1245.3459673528805070
  Basis Set: (AUG-CC-PVTZ AUX)
    Blend: AUG-CC-PVTZ-RI
    Molecular point group: c1

    Geometry (in Angstrom), charge = -3, multiplicity = 1:

       Center              X                  Y                   Z               Mass
    ------------   -----------------  -----------------  -----------------  -----------------
         P            1.240042607372    -0.577408722753     0.007338999893    30.973761998420
         P           -1.787265392628     0.195924277247     0.002016999893    30.973761998420
         O            1.402912607372     1.048210277247    -0.374395000107    15.994914619570
         O           -0.331453392628    -0.789988822753    -0.169881700107    15.994914619570
         O            1.974271607372    -1.383356722753    -1.049474000107    15.994914619570
         O            1.663777607372    -0.751976722753     1.454600999893    15.994914619570
         O           -1.786318392628     1.122699277247    -1.220300000107    15.994914619570
         O           -1.585782492628     0.874881577247     1.365392299893    15.994914619570
         O           -2.849969392628    -0.909972722753    -0.030706000107    15.994914619570
         C            2.672792607372     1.596385277247    -0.010010000107    12.000000000000
         H            2.781911607372     1.643477277247     1.076712999893     1.007825032230
         H            3.494865607372     1.000020277247    -0.421974000107     1.007825032230
         H            2.722140607372     2.602881277247    -0.430079000107     1.007825032230

  Basis Set: AUG-CC-PVTZ
    Blend: AUG-CC-PVTZ
  Basis Set: (AUG-CC-PVTZ AUX)
    Blend: AUG-CC-PVTZ-JKFIT
	 Reference Energy          =   -1245.3459673528805070 [Eh]
	 Singles Energy            =      -0.0000000000000000 [Eh]
	 Same-Spin Energy          =      -0.6458957265273655 [Eh]
	 Opposite-Spin Energy      =      -1.8058691872398347 [Eh]
	 Correlation Energy        =      -2.4517649137672004 [Eh]
	 Total Energy              =   -1247.7977322666476994 [Eh]

	 ================> DF-SCS-MP2 Energies <==================
	-----------------------------------------------------------
	 SCS Same-Spin Scale       =       0.3333333333333333 [-]
	 SCS Opposite-Spin Scale   =       1.2000000000000000 [-]
	 SCS Same-Spin Energy      =      -0.2152985755091218 [Eh]
	 SCS Opposite-Spin Energy  =      -2.1670430246878016 [Eh]
	 SCS Correlation Energy    =      -2.3823416001969235 [Eh]
	 SCS Total Energy          =   -1247.7283089530774305 [Eh]
	-----------------------------------------------------------

  Dipole Moment: [D]
     X:     7.7303      Y:     2.3485      Z:    -0.5320     Total:     8.0967

*** Psi4 exiting successfully. Buy a developer a beer!
