                               Psi4 1.3.2 release

  ==> Input File <==

--------------------------------------------------------------------------
#psi4
#
memory 32 gb

molecule  {
-3 1
  P        1.1931290    -0.6069630     0.0087730
  P       -1.8341790     0.1663700     0.0034510
  O        1.3559990     1.0186560    -0.3729610
  O       -0.3859399    -0.8378911    -0.2066891
  O        1.9157389    -1.4171273    -1.0528140
  O        1.6168640    -0.7815310     1.4560350
  O       -1.8332320     1.0931450    -1.2188660
  O       -1.6562150     0.8578460     1.3638040
  O       -2.8968830    -0.9395270    -0.0292720
  C        2.6258790     1.5668310    -0.0085760
  H        2.7349980     1.6139230     1.0781470
  H        3.4479520     0.9704660    -0.4205400
  H        2.6752270     2.5733270    -0.4286450
units angstrom
no_reorient  #important for SAPT in psi4, default
symmetry c1  #important for SAPT in psi4, default
}

set PROPERTIES_ORIGIN ["COM"]
properties('MP2/aug-cc-pvtz', properties = ['dipole'])
--------------------------------------------------------------------------

    Molecular point group: c1
  Charge       = -3
  Multiplicity = 1
  Basis Set: AUG-CC-PVTZ
    Blend: AUG-CC-PVTZ
  Basis Set: (AUG-CC-PVTZ AUX)
    Blend: AUG-CC-PVTZ-JKFIT

    Orbital Energies [Eh]
    ---------------------

    Doubly Occupied:

       1A    -79.621248     2A    -79.559489     3A    -20.153219
       4A    -20.079677     5A    -20.053456     6A    -20.051427
       7A    -19.999481     8A    -19.998890     9A    -19.998211
      10A    -10.917389    11A     -7.135355    12A     -7.073272
      13A     -5.034640    14A     -5.033151    15A     -5.032329
      16A     -4.972816    17A     -4.970378    18A     -4.970254
      19A     -0.965210    20A     -0.885543    21A     -0.840774
      22A     -0.803002    23A     -0.798371    24A     -0.741839
      25A     -0.740718    26A     -0.560872    27A     -0.335020
      28A     -0.280958    29A     -0.254422    30A     -0.228501
      31A     -0.187045    32A     -0.146985    33A     -0.143204
      34A     -0.114340    35A     -0.091972    36A     -0.088190
      37A     -0.063382    38A     -0.057973    39A     -0.042938
      40A     -0.037418    41A     -0.021679    42A      0.007288
      43A      0.020940    44A      0.022808    45A      0.025587
      46A      0.028980    47A      0.064814    48A      0.068105
      49A      0.092921

  @DF-RHF Final Energy: -1245.34448428858786

   => Energetics <=

    Nuclear Repulsion Energy =            820.2007663187515618
    One-Electron Energy =               -3405.5833052766033688
    Two-Electron Energy =                1340.0380546692640564
    Total Energy =                      -1245.3444842885878643
  Basis Set: (AUG-CC-PVTZ AUX)
    Blend: AUG-CC-PVTZ-RI
    Molecular point group: c1

    Geometry (in Angstrom), charge = -3, multiplicity = 1:

       Center              X                  Y                   Z               Mass
    ------------   -----------------  -----------------  -----------------  -----------------
         P            1.243658431583    -0.576558281211     0.011236464715    30.973761998420
         P           -1.783649568417     0.196774718789     0.005914464715    30.973761998420
         O            1.406528431583     1.049060718789    -0.370497535285    15.994914619570
         O           -0.335410468417    -0.807486381211    -0.204225635285    15.994914619570
         O            1.966268331583    -1.386722581211    -1.050350535285    15.994914619570
         O            1.667393431583    -0.751126281211     1.458498464715    15.994914619570
         O           -1.782702568417     1.123549718789    -1.216402535285    15.994914619570
         O           -1.605685568417     0.888250718789     1.366267464715    15.994914619570
         O           -2.846353568417    -0.909122281211    -0.026808535285    15.994914619570
         C            2.676408431583     1.597235718789    -0.006112535285    12.000000000000
         H            2.785527431583     1.644327718789     1.080610464715     1.007825032230
         H            3.498481431583     1.000870718789    -0.418076535285     1.007825032230
         H            2.725756431583     2.603731718789    -0.426181535285     1.007825032230

  Basis Set: AUG-CC-PVTZ
    Blend: AUG-CC-PVTZ
  Basis Set: (AUG-CC-PVTZ AUX)
    Blend: AUG-CC-PVTZ-JKFIT
	 Reference Energy          =   -1245.3444842885878643 [Eh]
	 Singles Energy            =      -0.0000000000000000 [Eh]
	 Same-Spin Energy          =      -0.6461306951463970 [Eh]
	 Opposite-Spin Energy      =      -1.8066127705501005 [Eh]
	 Correlation Energy        =      -2.4527434656964973 [Eh]
	 Total Energy              =   -1247.7972277542844495 [Eh]

	 ================> DF-SCS-MP2 Energies <==================
	-----------------------------------------------------------
	 SCS Same-Spin Scale       =       0.3333333333333333 [-]
	 SCS Opposite-Spin Scale   =       1.2000000000000000 [-]
	 SCS Same-Spin Energy      =      -0.2153768983821323 [Eh]
	 SCS Opposite-Spin Energy  =      -2.1679353246601205 [Eh]
	 SCS Correlation Energy    =      -2.3833122230422528 [Eh]
	 SCS Total Energy          =   -1247.7277965116300038 [Eh]
	-----------------------------------------------------------

  Dipole Moment: [D]
     X:     7.8968      Y:     2.3734      Z:    -0.4364     Total:     8.2573

*** Psi4 exiting successfully. Buy a developer a beer!
