                               Psi4 1.3.2 release

  ==> Input File <==

--------------------------------------------------------------------------
#psi4
#
memory 32 gb

molecule  {
-3 1
  P        1.1931290    -0.6069630     0.0087730
  P       -1.8341790     0.1663700     0.0034510
  O        1.3559990     1.0186560    -0.3729610
  O       -0.3886030    -0.8294050    -0.1958090
  O        1.9273580    -1.4129110    -1.0480400
  O        1.6168640    -0.7815310     1.4560350
  O       -1.8401300     1.0502803    -1.2501992
  O       -1.6593484     0.8098644     1.3875463
  O       -2.8968830    -0.9395270    -0.0292720
  C        2.6258790     1.5668310    -0.0085760
  H        2.7349980     1.6139230     1.0781470
  H        3.4479520     0.9704660    -0.4205400
  H        2.6752270     2.5733270    -0.4286450
units angstrom
no_reorient  #important for SAPT in psi4, default
symmetry c1  #important for SAPT in psi4, default
}

set PROPERTIES_ORIGIN ["COM"]
properties('MP2/aug-cc-pvtz', properties = ['dipole'])
--------------------------------------------------------------------------

    Molecular point group: c1
  Charge       = -3
  Multiplicity = 1
  Basis Set: AUG-CC-PVTZ
    Blend: AUG-CC-PVTZ
  Basis Set: (AUG-CC-PVTZ AUX)
    Blend: AUG-CC-PVTZ-JKFIT

    Orbital Energies [Eh]
    ---------------------

    Doubly Occupied:

       1A    -79.621206     2A    -79.559176     3A    -20.153342
       4A    -20.078366     5A    -20.054072     6A    -20.050215
       7A    -20.002350     8A    -20.000352     9A    -19.994131
      10A    -10.917519    11A     -7.135261    12A     -7.073017
      13A     -5.034576    14A     -5.033032    15A     -5.032246
      16A     -4.972607    17A     -4.970227    18A     -4.969881
      19A     -0.965414    20A     -0.885735    21A     -0.841209
      22A     -0.802280    23A     -0.798118    24A     -0.745345
      25A     -0.737672    26A     -0.561049    27A     -0.335601
      28A     -0.281560    29A     -0.254589    30A     -0.228736
      31A     -0.186824    32A     -0.147242    33A     -0.143173
      34A     -0.114485    35A     -0.092037    36A     -0.088963
      37A     -0.063671    38A     -0.056603    39A     -0.042837
      40A     -0.037082    41A     -0.021933    42A      0.007588
      43A      0.020650    44A      0.022958    45A      0.026039
      46A      0.028624    47A      0.065719    48A      0.067799
      49A      0.093150

  @DF-RHF Final Energy: -1245.34376757635391

   => Energetics <=

    Nuclear Repulsion Energy =            820.5135352456649116
    One-Electron Energy =               -3406.2121931791084535
    Two-Electron Energy =                1340.3548903570895163
    Total Energy =                      -1245.3437675763539119
  Basis Set: (AUG-CC-PVTZ AUX)
    Blend: AUG-CC-PVTZ-RI
    Molecular point group: c1

    Geometry (in Angstrom), charge = -3, multiplicity = 1:

       Center              X                  Y                   Z               Mass
    ------------   -----------------  -----------------  -----------------  -----------------
         P            1.243749472918    -0.569942766071     0.010553849416    30.973761998420
         P           -1.783558527082     0.203390233929     0.005231849416    30.973761998420
         O            1.406619472918     1.055676233929    -0.371180150584    15.994914619570
         O           -0.337982527082    -0.792384766071    -0.194028150584    15.994914619570
         O            1.977978472918    -1.375890766071    -1.046259150584    15.994914619570
         O            1.667484472918    -0.744510766071     1.457815849416    15.994914619570
         O           -1.789509527082     1.087300533929    -1.248418350584    15.994914619570
         O           -1.608727927082     0.846884633929     1.389327149416    15.994914619570
         O           -2.846262527082    -0.902506766071    -0.027491150584    15.994914619570
         C            2.676499472918     1.603851233929    -0.006795150584    12.000000000000
         H            2.785618472918     1.650943233929     1.079927849416     1.007825032230
         H            3.498572472918     1.007486233929    -0.418759150584     1.007825032230
         H            2.725847472918     2.610347233929    -0.426864150584     1.007825032230

  Basis Set: AUG-CC-PVTZ
    Blend: AUG-CC-PVTZ
  Basis Set: (AUG-CC-PVTZ AUX)
    Blend: AUG-CC-PVTZ-JKFIT
	 Reference Energy          =   -1245.3437675763539119 [Eh]
	 Singles Energy            =      -0.0000000000000000 [Eh]
	 Same-Spin Energy          =      -0.6461664528586253 [Eh]
	 Opposite-Spin Energy      =      -1.8065931971785316 [Eh]
	 Correlation Energy        =      -2.4527596500371569 [Eh]
	 Total Energy              =   -1247.7965272263911629 [Eh]

	 ================> DF-SCS-MP2 Energies <==================
	-----------------------------------------------------------
	 SCS Same-Spin Scale       =       0.3333333333333333 [-]
	 SCS Opposite-Spin Scale   =       1.2000000000000000 [-]
	 SCS Same-Spin Energy      =      -0.2153888176195418 [Eh]
	 SCS Opposite-Spin Energy  =      -2.1679118366142380 [Eh]
	 SCS Correlation Energy    =      -2.3833006542337798 [Eh]
	 SCS Total Energy          =   -1247.7270682305877472 [Eh]
	-----------------------------------------------------------

  Dipole Moment: [D]
     X:     7.9360      Y:     2.5536      Z:    -0.4533     Total:     8.3491

*** Psi4 exiting successfully. Buy a developer a beer!
