                               Psi4 1.3.2 release

  ==> Input File <==

--------------------------------------------------------------------------
#psi4
#
memory 32 gb

molecule  {
-3 1
  P        1.1931290    -0.6069630     0.0087730
  P       -1.8341790     0.1663700     0.0034510
  O        1.3559990     1.0186560    -0.3729610
  O       -0.3886030    -0.8294050    -0.1958090
  O        1.9273580    -1.4129110    -1.0480400
  O        1.6168640    -0.7815310     1.4560350
  O       -1.8332320     1.0931450    -1.2188660
  O       -1.6752942     0.8420458     1.3740670
  O       -2.9019701    -0.9350811    -0.0033639
  C        2.6258790     1.5668310    -0.0085760
  H        2.7349980     1.6139230     1.0781470
  H        3.4479520     0.9704660    -0.4205400
  H        2.6752270     2.5733270    -0.4286450
units angstrom
no_reorient  #important for SAPT in psi4, default
symmetry c1  #important for SAPT in psi4, default
}

set PROPERTIES_ORIGIN ["COM"]
properties('MP2/aug-cc-pvtz', properties = ['dipole'])
--------------------------------------------------------------------------

    Molecular point group: c1
  Charge       = -3
  Multiplicity = 1
  Basis Set: AUG-CC-PVTZ
    Blend: AUG-CC-PVTZ
  Basis Set: (AUG-CC-PVTZ AUX)
    Blend: AUG-CC-PVTZ-JKFIT

    Orbital Energies [Eh]
    ---------------------

    Doubly Occupied:

       1A    -79.622629     2A    -79.559022     3A    -20.153577
       4A    -20.081544     5A    -20.055228     6A    -20.051235
       7A    -20.001527     8A    -19.997082     9A    -19.995525
      10A    -10.917618    11A     -7.136666    12A     -7.072835
      13A     -5.035975    14A     -5.034454    15A     -5.033645
      16A     -4.972380    17A     -4.969986    18A     -4.969789
      19A     -0.965881    20A     -0.887153    21A     -0.841748
      22A     -0.803350    23A     -0.799327    24A     -0.743160
      25A     -0.737802    26A     -0.561188    27A     -0.336748
      28A     -0.282703    29A     -0.254724    30A     -0.229030
      31A     -0.187352    32A     -0.147439    33A     -0.144129
      34A     -0.115042    35A     -0.093095    36A     -0.088677
      37A     -0.063882    38A     -0.057119    39A     -0.043991
      40A     -0.038217    41A     -0.022716    42A      0.006884
      43A      0.020919    44A      0.022506    45A      0.025954
      46A      0.028312    47A      0.065591    48A      0.068783
      49A      0.094018

  @DF-RHF Final Energy: -1245.34505178579070

   => Energetics <=

    Nuclear Repulsion Energy =            820.1693736967580435
    One-Electron Energy =               -3405.4844112821801900
    Two-Electron Energy =                1339.9699857996313312
    Total Energy =                      -1245.3450517857907016
  Basis Set: (AUG-CC-PVTZ AUX)
    Blend: AUG-CC-PVTZ-RI
    Molecular point group: c1

    Geometry (in Angstrom), charge = -3, multiplicity = 1:

       Center              X                  Y                   Z               Mass
    ------------   -----------------  -----------------  -----------------  -----------------
         P            1.244946106884    -0.576672408813     0.006849041062    30.973761998420
         P           -1.782361893116     0.196660591187     0.001527041062    30.973761998420
         O            1.407816106884     1.048946591187    -0.374884958938    15.994914619570
         O           -0.336785893116    -0.799114408813    -0.197732958938    15.994914619570
         O            1.979175106884    -1.382620408813    -1.049963958938    15.994914619570
         O            1.668681106884    -0.751240408813     1.454111041062    15.994914619570
         O           -1.781414893116     1.123435591187    -1.220789958938    15.994914619570
         O           -1.623477093116     0.872336391187     1.372143041062    15.994914619570
         O           -2.850152993116    -0.904790508813    -0.005287858938    15.994914619570
         C            2.677696106884     1.597121591187    -0.010499958938    12.000000000000
         H            2.786815106884     1.644213591187     1.076223041062     1.007825032230
         H            3.499769106884     1.000756591187    -0.422463958938     1.007825032230
         H            2.727044106884     2.603617591187    -0.430568958938     1.007825032230

  Basis Set: AUG-CC-PVTZ
    Blend: AUG-CC-PVTZ
  Basis Set: (AUG-CC-PVTZ AUX)
    Blend: AUG-CC-PVTZ-JKFIT
	 Reference Energy          =   -1245.3450517857907016 [Eh]
	 Singles Energy            =      -0.0000000000000000 [Eh]
	 Same-Spin Energy          =      -0.6460131283941458 [Eh]
	 Opposite-Spin Energy      =      -1.8063106436576124 [Eh]
	 Correlation Energy        =      -2.4523237720517583 [Eh]
	 Total Energy              =   -1247.7973755578425425 [Eh]

	 ================> DF-SCS-MP2 Energies <==================
	-----------------------------------------------------------
	 SCS Same-Spin Scale       =       0.3333333333333333 [-]
	 SCS Opposite-Spin Scale   =       1.2000000000000000 [-]
	 SCS Same-Spin Energy      =      -0.2153377094647153 [Eh]
	 SCS Opposite-Spin Energy  =      -2.1675727723891347 [Eh]
	 SCS Correlation Energy    =      -2.3829104818538500 [Eh]
	 SCS Total Energy          =   -1247.7279622676444433 [Eh]
	-----------------------------------------------------------

  Dipole Moment: [D]
     X:     7.9894      Y:     2.3636      Z:    -0.5690     Total:     8.3511

*** Psi4 exiting successfully. Buy a developer a beer!
