                               Psi4 1.4a3.dev225

  ==> Input File <==

--------------------------------------------------------------------------
#psi4
#
memory 32 gb

molecule  {
-3 1
  P       -1.1253500     0.3591720     0.0081310
  P        2.0878660    -0.1053470     0.0007630
  O       -2.1391380    -1.0979190    -0.1147190
  O        0.2405970    -0.4148950    -0.1339660
  O       -1.5628960     1.1822930    -1.2021870
  O       -1.4752280     0.9069340     1.3887990
  O        2.4385690    -0.8874190     1.2758270
  O        2.1953597     1.3713558     0.0841011
  O        2.5676630    -0.7478960    -1.3107960
  C       -3.4907010    -0.7724380    -0.0147870
  H       -3.7335280    -0.2943150     0.9495100
  H       -3.8114220    -0.0788120    -0.8111520
  H       -4.0969940    -1.6975630    -0.1019980
units angstrom
no_reorient  #important for SAPT in psi4, default
symmetry c1  #important for SAPT in psi4, default
}

set PROPERTIES_ORIGIN ["COM"]
properties('MP2/aug-cc-pvtz', properties = ['dipole'])
--------------------------------------------------------------------------

    Molecular point group: c1
  Charge       = -3
  Multiplicity = 1
  Basis Set: AUG-CC-PVTZ
    Blend: AUG-CC-PVTZ
  Basis Set: (AUG-CC-PVTZ AUX)
    Blend: AUG-CC-PVTZ-JKFIT

    Orbital Energies [Eh]
    ---------------------

    Doubly Occupied:

       1A    -79.627791     2A    -79.575776     3A    -20.144484
       4A    -20.085397     5A    -20.055409     6A    -20.054999
       7A    -20.019247     8A    -20.018050     9A    -20.017899
      10A    -10.910470    11A     -7.140712    12A     -7.091047
      13A     -5.040171    14A     -5.038294    15A     -5.037509
      16A     -4.990587    17A     -4.988065    18A     -4.987502
      19A     -0.954848    20A     -0.887065    21A     -0.851667
      22A     -0.817325    23A     -0.800896    24A     -0.771302
      25A     -0.758078    26A     -0.541968    27A     -0.332547
      28A     -0.266735    29A     -0.245461    30A     -0.210964
      31A     -0.202995    32A     -0.156460    33A     -0.142058
      34A     -0.117348    35A     -0.099133    36A     -0.098675
      37A     -0.081150    38A     -0.052370    39A     -0.047982
      40A     -0.029748    41A     -0.013228    42A     -0.002101
      43A     -0.000074    44A      0.003543    45A      0.008193
      46A      0.022733    47A      0.040366    48A      0.051182
      49A      0.072782

  @DF-RHF Final Energy: -1245.34325068879957

   => Energetics <=

    Nuclear Repulsion Energy =            799.1565669346429104
    One-Electron Energy =               -3362.7860632339416043
    Two-Electron Energy =                1318.2862456104992361
    Total Energy =                      -1245.3432506887995714
  Basis Set: (AUG-CC-PVTZ AUX)
    Blend: AUG-CC-PVTZ-RI
    Molecular point group: c1

    Geometry (in Angstrom), charge = -3, multiplicity = 1:

       Center              X                  Y                   Z               Mass
    ------------   -----------------  -----------------  -----------------  -----------------
         P           -1.191079323402     0.351214582992     0.008513709819    30.973761998420
         P            2.022136676598    -0.113304417008     0.001145709819    30.973761998420
         O           -2.204867323402    -1.105876417008    -0.114336290181    15.994914619570
         O            0.174867676598    -0.422852417008    -0.133583290181    15.994914619570
         O           -1.628625323402     1.174335582992    -1.201804290181    15.994914619570
         O           -1.540957323402     0.898976582992     1.389181709819    15.994914619570
         O            2.372839676598    -0.895376417008     1.276209709819    15.994914619570
         O            2.129630376598     1.363398382992     0.084483809819    15.994914619570
         O            2.501933676598    -0.755853417008    -1.310413290181    15.994914619570
         C           -3.556430323402    -0.780395417008    -0.014404290181    12.000000000000
         H           -3.799257323402    -0.302272417008     0.949892709819     1.007825032230
         H           -3.877151323402    -0.086769417008    -0.810769290181     1.007825032230
         H           -4.162723323402    -1.705520417008    -0.101615290181     1.007825032230

  Basis Set: AUG-CC-PVTZ
    Blend: AUG-CC-PVTZ
  Basis Set: (AUG-CC-PVTZ AUX)
    Blend: AUG-CC-PVTZ-JKFIT
	 Reference Energy          =   -1245.3432506887995714 [Eh]
	 Singles Energy            =      -0.0000000000000000 [Eh]
	 Same-Spin Energy          =      -0.6465304928522833 [Eh]
	 Opposite-Spin Energy      =      -1.8077035843159797 [Eh]
	 Correlation Energy        =      -2.4542340771682629 [Eh]
	 Total Energy              =   -1247.7974847659677380 [Eh]

	 ================> DF-SCS-MP2 Energies <==================
	-----------------------------------------------------------
	 SCS Same-Spin Scale       =       0.3333333333333333 [-]
	 SCS Opposite-Spin Scale   =       1.2000000000000000 [-]
	 SCS Same-Spin Energy      =      -0.2155101642840944 [Eh]
	 SCS Opposite-Spin Energy  =      -2.1692443011791753 [Eh]
	 SCS Correlation Energy    =      -2.3847544654632697 [Eh]
	 SCS Total Energy          =   -1247.7280051542627461 [Eh]
	-----------------------------------------------------------

  Dipole Moment: [D]
     X:    -7.6239      Y:    -1.4913      Z:    -0.1514     Total:     7.7699

*** Psi4 exiting successfully. Buy a developer a beer!
