                               Psi4 1.3.2 release

  ==> Input File <==

--------------------------------------------------------------------------
#psi4
#
memory 32 gb

molecule  {
-3 1
  P        1.1931290    -0.6069630     0.0087730
  P       -1.8341790     0.1663700     0.0034510
  O        1.3559990     1.0186560    -0.3729610
  O       -0.3886030    -0.8294050    -0.1958090
  O        1.9273580    -1.4129110    -1.0480400
  O        1.6168640    -0.7815310     1.4560350
  O       -1.8315073     1.1036868    -1.2107985
  O       -1.6554654     0.8697120     1.3576083
  O       -2.8968830    -0.9395270    -0.0292720
  C        2.6258790     1.5668310    -0.0085760
  H        2.7349980     1.6139230     1.0781470
  H        3.4479520     0.9704660    -0.4205400
  H        2.6752270     2.5733270    -0.4286450
units angstrom
no_reorient  #important for SAPT in psi4, default
symmetry c1  #important for SAPT in psi4, default
}

set PROPERTIES_ORIGIN ["COM"]
properties('MP2/aug-cc-pvtz', properties = ['dipole'])
--------------------------------------------------------------------------

    Molecular point group: c1
  Charge       = -3
  Multiplicity = 1
  Basis Set: AUG-CC-PVTZ
    Blend: AUG-CC-PVTZ
  Basis Set: (AUG-CC-PVTZ AUX)
    Blend: AUG-CC-PVTZ-JKFIT

    Orbital Energies [Eh]
    ---------------------

    Doubly Occupied:

       1A    -79.622177     2A    -79.559045     3A    -20.152751
       4A    -20.081052     5A    -20.054861     6A    -20.050950
       7A    -19.999887     8A    -19.998418     9A    -19.996410
      10A    -10.916975    11A     -7.136214    12A     -7.072854
      13A     -5.035520    14A     -5.034003    15A     -5.033198
      16A     -4.972409    17A     -4.969945    18A     -4.969867
      19A     -0.965133    20A     -0.886777    21A     -0.841559
      22A     -0.803039    23A     -0.799088    24A     -0.742288
      25A     -0.739182    26A     -0.560513    27A     -0.336221
      28A     -0.282227    29A     -0.254035    30A     -0.228297
      31A     -0.187086    32A     -0.147214    33A     -0.143771
      34A     -0.114413    35A     -0.092977    36A     -0.088465
      37A     -0.063117    38A     -0.057865    39A     -0.043080
      40A     -0.038223    41A     -0.022217    42A      0.007269
      43A      0.020795    44A      0.022852    45A      0.025927
      46A      0.028309    47A      0.064539    48A      0.069383
      49A      0.093572

  @DF-RHF Final Energy: -1245.34525894805938

   => Energetics <=

    Nuclear Repulsion Energy =            820.4257580610604919
    One-Electron Energy =               -3406.0206795624808365
    Two-Electron Energy =                1340.2496625533608494
    Total Energy =                      -1245.3452589480593815
  Basis Set: (AUG-CC-PVTZ AUX)
    Blend: AUG-CC-PVTZ-RI
    Molecular point group: c1

    Geometry (in Angstrom), charge = -3, multiplicity = 1:

       Center              X                  Y                   Z               Mass
    ------------   -----------------  -----------------  -----------------  -----------------
         P            1.242690763951    -0.579530644500     0.009752755087    30.973761998420
         P           -1.784617236049     0.193802355500     0.004430755087    30.973761998420
         O            1.405560763951     1.046088355500    -0.371981244913    15.994914619570
         O           -0.339041236049    -0.801972644500    -0.194829244913    15.994914619570
         O            1.976919763951    -1.385478644500    -1.047060244913    15.994914619570
         O            1.666425763951    -0.754098644500     1.457014755087    15.994914619570
         O           -1.781945536049     1.131119155500    -1.209818744913    15.994914619570
         O           -1.605903636049     0.897144355500     1.358588055087    15.994914619570
         O           -2.847321236049    -0.912094644500    -0.028292244913    15.994914619570
         C            2.675440763951     1.594263355500    -0.007596244913    12.000000000000
         H            2.784559763951     1.641355355500     1.079126755087     1.007825032230
         H            3.497513763951     0.997898355500    -0.419560244913     1.007825032230
         H            2.724788763951     2.600759355500    -0.427665244913     1.007825032230

  Basis Set: AUG-CC-PVTZ
    Blend: AUG-CC-PVTZ
  Basis Set: (AUG-CC-PVTZ AUX)
    Blend: AUG-CC-PVTZ-JKFIT
	 Reference Energy          =   -1245.3452589480593815 [Eh]
	 Singles Energy            =      -0.0000000000000000 [Eh]
	 Same-Spin Energy          =      -0.6460200204240196 [Eh]
	 Opposite-Spin Energy      =      -1.8063104919051218 [Eh]
	 Correlation Energy        =      -2.4523305123291417 [Eh]
	 Total Energy              =   -1247.7975894603885081 [Eh]

	 ================> DF-SCS-MP2 Energies <==================
	-----------------------------------------------------------
	 SCS Same-Spin Scale       =       0.3333333333333333 [-]
	 SCS Opposite-Spin Scale   =       1.2000000000000000 [-]
	 SCS Same-Spin Energy      =      -0.2153400068080065 [Eh]
	 SCS Opposite-Spin Energy  =      -2.1675725902861460 [Eh]
	 SCS Correlation Energy    =      -2.3829125970941525 [Eh]
	 SCS Total Energy          =   -1247.7281715451536002 [Eh]
	-----------------------------------------------------------

  Dipole Moment: [D]
     X:     7.9075      Y:     2.2771      Z:    -0.4763     Total:     8.2426

*** Psi4 exiting successfully. Buy a developer a beer!
