                               Psi4 1.3.2 release

  ==> Input File <==

--------------------------------------------------------------------------
#psi4
#
memory 32 gb

molecule  {
-3 1
  P        1.1931290    -0.6069630     0.0087730
  P       -1.8341790     0.1663700     0.0034510
  O        1.3559990     1.0186560    -0.3729610
  O       -0.3886030    -0.8294050    -0.1958090
  O        1.8790021    -1.3598318    -0.9784390
  O        1.6168640    -0.7815310     1.4560350
  O       -1.8332320     1.0931450    -1.2188660
  O       -1.6562150     0.8578460     1.3638040
  O       -2.8968830    -0.9395270    -0.0292720
  C        2.6258790     1.5668310    -0.0085760
  H        2.7349980     1.6139230     1.0781470
  H        3.4479520     0.9704660    -0.4205400
  H        2.6752270     2.5733270    -0.4286450
units angstrom
no_reorient  #important for SAPT in psi4, default
symmetry c1  #important for SAPT in psi4, default
}

set PROPERTIES_ORIGIN ["COM"]
properties('MP2/aug-cc-pvtz', properties = ['dipole'])
--------------------------------------------------------------------------

    Molecular point group: c1
  Charge       = -3
  Multiplicity = 1
  Basis Set: AUG-CC-PVTZ
    Blend: AUG-CC-PVTZ
  Basis Set: (AUG-CC-PVTZ AUX)
    Blend: AUG-CC-PVTZ-JKFIT

    Orbital Energies [Eh]
    ---------------------

    Doubly Occupied:

       1A    -79.600407     2A    -79.555374     3A    -20.145318
       4A    -20.072656     5A    -20.049107     6A    -20.041153
       7A    -19.996366     8A    -19.995772     9A    -19.993786
      10A    -10.913919    11A     -7.119326    12A     -7.069151
      13A     -5.018134    14A     -5.017398    15A     -5.016144
      16A     -4.968676    17A     -4.966312    18A     -4.966176
      19A     -0.964953    20A     -0.893164    21A     -0.854025
      22A     -0.807510    23A     -0.794385    24A     -0.738802
      25A     -0.736888    26A     -0.556811    27A     -0.328459
      28A     -0.279578    29A     -0.250406    30A     -0.223951
      31A     -0.188542    32A     -0.147907    33A     -0.144713
      34A     -0.116872    35A     -0.089360    36A     -0.087110
      37A     -0.065094    38A     -0.056912    39A     -0.043518
      40A     -0.039027    41A     -0.028319    42A      0.010066
      43A      0.023560    44A      0.025485    45A      0.028971
      46A      0.030458    47A      0.068374    48A      0.072123
      49A      0.096331

  @DF-RHF Final Energy: -1245.33957296993140

   => Energetics <=

    Nuclear Repulsion Energy =            825.4948503200871528
    One-Electron Energy =               -3416.4966213632133076
    Two-Electron Energy =                1345.6621980731947588
    Total Energy =                      -1245.3395729699313961
  Basis Set: (AUG-CC-PVTZ AUX)
    Blend: AUG-CC-PVTZ-RI
    Molecular point group: c1

    Geometry (in Angstrom), charge = -3, multiplicity = 1:

       Center              X                  Y                   Z               Mass
    ------------   -----------------  -----------------  -----------------  -----------------
         P            1.246993952781    -0.582127227356     0.004018928800    30.973761998420
         P           -1.780314047219     0.191205772644    -0.001303071200    30.973761998420
         O            1.409863952781     1.043491772644    -0.377715071200    15.994914619570
         O           -0.334738047219    -0.804569227356    -0.200563071200    15.994914619570
         O            1.932867052781    -1.334996027356    -0.983193071200    15.994914619570
         O            1.670728952781    -0.756695227356     1.451280928800    15.994914619570
         O           -1.779367047219     1.117980772644    -1.223620071200    15.994914619570
         O           -1.602350047219     0.882681772644     1.359049928800    15.994914619570
         O           -2.843018047219    -0.914691227356    -0.034026071200    15.994914619570
         C            2.679743952781     1.591666772644    -0.013330071200    12.000000000000
         H            2.788862952781     1.638758772644     1.073392928800     1.007825032230
         H            3.501816952781     0.995301772644    -0.425294071200     1.007825032230
         H            2.729091952781     2.598162772644    -0.433399071200     1.007825032230

  Basis Set: AUG-CC-PVTZ
    Blend: AUG-CC-PVTZ
  Basis Set: (AUG-CC-PVTZ AUX)
    Blend: AUG-CC-PVTZ-JKFIT
	 Reference Energy          =   -1245.3395729699313961 [Eh]
	 Singles Energy            =      -0.0000000000000000 [Eh]
	 Same-Spin Energy          =      -0.6442177042667917 [Eh]
	 Opposite-Spin Energy      =      -1.8017011569865899 [Eh]
	 Correlation Energy        =      -2.4459188612533818 [Eh]
	 Total Energy              =   -1247.7854918311847996 [Eh]

	 ================> DF-SCS-MP2 Energies <==================
	-----------------------------------------------------------
	 SCS Same-Spin Scale       =       0.3333333333333333 [-]
	 SCS Opposite-Spin Scale   =       1.2000000000000000 [-]
	 SCS Same-Spin Energy      =      -0.2147392347555972 [Eh]
	 SCS Opposite-Spin Energy  =      -2.1620413883839080 [Eh]
	 SCS Correlation Energy    =      -2.3767806231395054 [Eh]
	 SCS Total Energy          =   -1247.7163535930708349 [Eh]
	-----------------------------------------------------------

  Dipole Moment: [D]
     X:     8.3053      Y:     1.9272      Z:    -0.9303     Total:     8.5766

*** Psi4 exiting successfully. Buy a developer a beer!
