                               Psi4 1.3.2 release

  ==> Input File <==

--------------------------------------------------------------------------
#psi4
#
memory 32 gb

molecule  {
-3 1
  P        1.1931290    -0.6069630     0.0087730
  P       -1.8341790     0.1663700     0.0034510
  O        1.3559990     1.0186560    -0.3729610
  O       -0.3886030    -0.8294050    -0.1958090
  O        1.9273580    -1.4129110    -1.0480400
  O        1.6447764    -0.7930302     1.5513695
  O       -1.8332320     1.0931450    -1.2188660
  O       -1.6562150     0.8578460     1.3638040
  O       -2.8968830    -0.9395270    -0.0292720
  C        2.6258790     1.5668310    -0.0085760
  H        2.7349980     1.6139230     1.0781470
  H        3.4479520     0.9704660    -0.4205400
  H        2.6752270     2.5733270    -0.4286450
units angstrom
no_reorient  #important for SAPT in psi4, default
symmetry c1  #important for SAPT in psi4, default
}

set PROPERTIES_ORIGIN ["COM"]
properties('MP2/aug-cc-pvtz', properties = ['dipole'])
--------------------------------------------------------------------------

    Molecular point group: c1
  Charge       = -3
  Multiplicity = 1
  Basis Set: AUG-CC-PVTZ
    Blend: AUG-CC-PVTZ
  Basis Set: (AUG-CC-PVTZ AUX)
    Blend: AUG-CC-PVTZ-JKFIT

    Orbital Energies [Eh]
    ---------------------

    Doubly Occupied:

       1A    -79.638597     2A    -79.561726     3A    -20.159870
       4A    -20.088148     5A    -20.063523     6A    -20.054991
       7A    -20.001899     8A    -20.001020     9A    -19.998874
      10A    -10.919322    11A     -7.150049    12A     -7.075597
      13A     -5.049525    14A     -5.047922    15A     -5.046660
      16A     -4.975192    17A     -4.972676    18A     -4.972540
      19A     -0.968539    20A     -0.889407    21A     -0.839933
      22A     -0.803517    23A     -0.778147    24A     -0.744175
      25A     -0.742037    26A     -0.563566    27A     -0.343172
      28A     -0.285087    29A     -0.256960    30A     -0.232663
      31A     -0.187217    32A     -0.148838    33A     -0.143865
      34A     -0.114305    35A     -0.096658    36A     -0.089947
      37A     -0.063935    38A     -0.058052    39A     -0.041214
      40A     -0.034589    41A     -0.021676    42A      0.013285
      43A      0.020280    44A      0.021603    45A      0.023759
      46A      0.028335    47A      0.062704    48A      0.066132
      49A      0.091227

  @DF-RHF Final Energy: -1245.33142383050222

   => Energetics <=

    Nuclear Repulsion Energy =            815.9086267206334924
    One-Electron Energy =               -3396.6834888875878278
    Two-Electron Energy =                1335.4434383364521182
    Total Energy =                      -1245.3314238305022172
  Basis Set: (AUG-CC-PVTZ AUX)
    Blend: AUG-CC-PVTZ-RI
    Molecular point group: c1

    Geometry (in Angstrom), charge = -3, multiplicity = 1:

       Center              X                  Y                   Z               Mass
    ------------   -----------------  -----------------  -----------------  -----------------
         P            1.240537222399    -0.576660141852     0.001840379242    30.973761998420
         P           -1.786770777601     0.196672858148    -0.003481620758    30.973761998420
         O            1.403407222399     1.048958858148    -0.379893620758    15.994914619570
         O           -0.341194777601    -0.799102141852    -0.202741620758    15.994914619570
         O            1.974766222399    -1.382608141852    -1.054972620758    15.994914619570
         O            1.692184622399    -0.762727341852     1.544436879242    15.994914619570
         O           -1.785823777601     1.123447858148    -1.225798620758    15.994914619570
         O           -1.608806777601     0.888148858148     1.356871379242    15.994914619570
         O           -2.849474777601    -0.909224141852    -0.036204620758    15.994914619570
         C            2.673287222399     1.597133858148    -0.015508620758    12.000000000000
         H            2.782406222399     1.644225858148     1.071214379242     1.007825032230
         H            3.495360222399     1.000768858148    -0.427472620758     1.007825032230
         H            2.722635222399     2.603629858148    -0.435577620758     1.007825032230

  Basis Set: AUG-CC-PVTZ
    Blend: AUG-CC-PVTZ
  Basis Set: (AUG-CC-PVTZ AUX)
    Blend: AUG-CC-PVTZ-JKFIT
	 Reference Energy          =   -1245.3314238305022172 [Eh]
	 Singles Energy            =      -0.0000000000000000 [Eh]
	 Same-Spin Energy          =      -0.6478804305357695 [Eh]
	 Opposite-Spin Energy      =      -1.8111838310156607 [Eh]
	 Correlation Energy        =      -2.4590642615514300 [Eh]
	 Total Energy              =   -1247.7904880920536925 [Eh]

	 ================> DF-SCS-MP2 Energies <==================
	-----------------------------------------------------------
	 SCS Same-Spin Scale       =       0.3333333333333333 [-]
	 SCS Opposite-Spin Scale   =       1.2000000000000000 [-]
	 SCS Same-Spin Energy      =      -0.2159601435119232 [Eh]
	 SCS Opposite-Spin Energy  =      -2.1734205972187928 [Eh]
	 SCS Correlation Energy    =      -2.3893807407307159 [Eh]
	 SCS Total Energy          =   -1247.7208045712329749 [Eh]
	-----------------------------------------------------------

  Dipole Moment: [D]
     X:     7.6590      Y:     2.4753      Z:    -1.0362     Total:     8.1155

*** Psi4 exiting successfully. Buy a developer a beer!
