                               Psi4 1.3.2 release

  ==> Input File <==

--------------------------------------------------------------------------
#psi4
#
memory 32 gb

molecule  {
-3 1
  P        1.1931290    -0.6069630     0.0087730
  P       -1.8341790     0.1663700     0.0034510
  O        1.3559990     1.0186560    -0.3729610
  O       -0.3886030    -0.8294050    -0.1958090
  O        1.9273580    -1.4129110    -1.0480400
  O        1.6168640    -0.7815310     1.4560350
  O       -1.8349567     1.0825327    -1.2268404
  O       -1.6569782     0.8459273     1.3698961
  O       -2.8968830    -0.9395270    -0.0292720
  C        2.6258790     1.5668310    -0.0085760
  H        2.7349980     1.6139230     1.0781470
  H        3.4479520     0.9704660    -0.4205400
  H        2.6752270     2.5733270    -0.4286450
units angstrom
no_reorient  #important for SAPT in psi4, default
symmetry c1  #important for SAPT in psi4, default
}

set PROPERTIES_ORIGIN ["COM"]
properties('MP2/aug-cc-pvtz', properties = ['dipole'])
--------------------------------------------------------------------------

    Molecular point group: c1
  Charge       = -3
  Multiplicity = 1
  Basis Set: AUG-CC-PVTZ
    Blend: AUG-CC-PVTZ
  Basis Set: (AUG-CC-PVTZ AUX)
    Blend: AUG-CC-PVTZ-JKFIT

    Orbital Energies [Eh]
    ---------------------

    Doubly Occupied:

       1A    -79.621789     2A    -79.559095     3A    -20.152984
       4A    -20.079979     5A    -20.054545     6A    -20.050655
       7A    -20.000043     8A    -19.998039     9A    -19.997603
      10A    -10.917190    11A     -7.135833    12A     -7.072913
      13A     -5.035143    14A     -5.033615    15A     -5.032818
      16A     -4.972484    17A     -4.970053    18A     -4.969868
      19A     -0.965242    20A     -0.886354    21A     -0.841407
      22A     -0.802735    23A     -0.798695    24A     -0.742107
      25A     -0.740121    26A     -0.560725    27A     -0.335966
      28A     -0.281960    29A     -0.254254    30A     -0.228470
      31A     -0.186978    32A     -0.147221    33A     -0.143540
      34A     -0.114440    35A     -0.092531    36A     -0.088731
      37A     -0.063329    38A     -0.057367    39A     -0.042998
      40A     -0.037807    41A     -0.022104    42A      0.007407
      43A      0.021176    44A      0.022650    45A      0.025850
      46A      0.028342    47A      0.065790    48A      0.067842
      49A      0.093139

  @DF-RHF Final Energy: -1245.34505018583877

   => Energetics <=

    Nuclear Repulsion Energy =            820.4525069693772821
    One-Electron Energy =               -3406.0800407905835527
    Two-Electron Energy =                1340.2824836353674982
    Total Energy =                      -1245.3450501858387724
  Basis Set: (AUG-CC-PVTZ AUX)
    Blend: AUG-CC-PVTZ-RI
    Molecular point group: c1

    Geometry (in Angstrom), charge = -3, multiplicity = 1:

       Center              X                  Y                   Z               Mass
    ------------   -----------------  -----------------  -----------------  -----------------
         P            1.243110854440    -0.575726210478     0.010070570110    30.973761998420
         P           -1.784197145560     0.197606789522     0.004748570110    30.973761998420
         O            1.405980854440     1.049892789522    -0.371663429890    15.994914619570
         O           -0.338621145560    -0.798168210478    -0.194511429890    15.994914619570
         O            1.977339854440    -1.381674210478    -1.046742429890    15.994914619570
         O            1.666845854440    -0.750294210478     1.457332570110    15.994914619570
         O           -1.784974845560     1.113769489522    -1.225542829890    15.994914619570
         O           -1.606996345560     0.877164089522     1.371193670110    15.994914619570
         O           -2.846901145560    -0.908290210478    -0.027974429890    15.994914619570
         C            2.675860854440     1.598067789522    -0.007278429890    12.000000000000
         H            2.784979854440     1.645159789522     1.079444570110     1.007825032230
         H            3.497933854440     1.001702789522    -0.419242429890     1.007825032230
         H            2.725208854440     2.604563789522    -0.427347429890     1.007825032230

  Basis Set: AUG-CC-PVTZ
    Blend: AUG-CC-PVTZ
  Basis Set: (AUG-CC-PVTZ AUX)
    Blend: AUG-CC-PVTZ-JKFIT
	 Reference Energy          =   -1245.3450501858387724 [Eh]
	 Singles Energy            =      -0.0000000000000000 [Eh]
	 Same-Spin Energy          =      -0.6460573594484982 [Eh]
	 Opposite-Spin Energy      =      -1.8063832848514099 [Eh]
	 Correlation Energy        =      -2.4524406442999078 [Eh]
	 Total Energy              =   -1247.7974908301387131 [Eh]

	 ================> DF-SCS-MP2 Energies <==================
	-----------------------------------------------------------
	 SCS Same-Spin Scale       =       0.3333333333333333 [-]
	 SCS Opposite-Spin Scale   =       1.2000000000000000 [-]
	 SCS Same-Spin Energy      =      -0.2153524531494994 [Eh]
	 SCS Opposite-Spin Energy  =      -2.1676599418216917 [Eh]
	 SCS Correlation Energy    =      -2.3830123949711912 [Eh]
	 SCS Total Energy          =   -1247.7280625808100467 [Eh]
	-----------------------------------------------------------

  Dipole Moment: [D]
     X:     7.9183      Y:     2.3876      Z:    -0.4673     Total:     8.2837

*** Psi4 exiting successfully. Buy a developer a beer!
