                               Psi4 1.3.2 release

  ==> Input File <==

--------------------------------------------------------------------------
#psi4
#
memory 32 gb

molecule  {
-3 1
  P        1.1931290    -0.6069630     0.0087730
  P       -1.8341790     0.1663700     0.0034510
  O        1.3559990     1.0186560    -0.3729610
  O       -0.3886030    -0.8294050    -0.1958090
  O        1.9273580    -1.4129110    -1.0480400
  O        1.6168640    -0.7815310     1.4560350
  O       -1.8332320     1.0931450    -1.2188660
  O       -1.6944219     0.8260399     1.3839126
  O       -2.9067318    -0.9302997     0.0225463
  C        2.6258790     1.5668310    -0.0085760
  H        2.7349980     1.6139230     1.0781470
  H        3.4479520     0.9704660    -0.4205400
  H        2.6752270     2.5733270    -0.4286450
units angstrom
no_reorient  #important for SAPT in psi4, default
symmetry c1  #important for SAPT in psi4, default
}

set PROPERTIES_ORIGIN ["COM"]
properties('MP2/aug-cc-pvtz', properties = ['dipole'])
--------------------------------------------------------------------------

    Molecular point group: c1
  Charge       = -3
  Multiplicity = 1
  Basis Set: AUG-CC-PVTZ
    Blend: AUG-CC-PVTZ
  Basis Set: (AUG-CC-PVTZ AUX)
    Blend: AUG-CC-PVTZ-JKFIT

    Orbital Energies [Eh]
    ---------------------

    Doubly Occupied:

       1A    -79.623271     2A    -79.558982     3A    -20.154281
       4A    -20.082571     5A    -20.055751     6A    -20.051666
       7A    -20.003789     8A    -19.995346     9A    -19.993747
      10A    -10.918150    11A     -7.137306    12A     -7.072801
      13A     -5.036616    14A     -5.035097    15A     -5.034280
      16A     -4.972326    17A     -4.969999    18A     -4.969708
      19A     -0.966570    20A     -0.887749    21A     -0.842032
      22A     -0.803812    23A     -0.799778    24A     -0.744786
      25A     -0.735075    26A     -0.561752    27A     -0.337402
      28A     -0.283315    29A     -0.255299    30A     -0.229674
      31A     -0.187677    32A     -0.147679    33A     -0.144583
      34A     -0.115655    35A     -0.093483    36A     -0.088721
      37A     -0.064537    38A     -0.056587    39A     -0.044927
      40A     -0.038381    41A     -0.023271    42A      0.006427
      43A      0.020735    44A      0.021895    45A      0.026389
      46A      0.028415    47A      0.064984    48A      0.070145
      49A      0.095147

  @DF-RHF Final Energy: -1245.34432990527739

   => Energetics <=

    Nuclear Repulsion Energy =            819.9165409481676079
    One-Electron Energy =               -3404.9531463504581552
    Two-Electron Energy =                1339.6922754970132701
    Total Energy =                      -1245.3443299052773909
  Basis Set: (AUG-CC-PVTZ AUX)
    Blend: AUG-CC-PVTZ-RI
    Molecular point group: c1

    Geometry (in Angstrom), charge = -3, multiplicity = 1:

       Center              X                  Y                   Z               Mass
    ------------   -----------------  -----------------  -----------------  -----------------
         P            1.246968538415    -0.575722163820     0.003822022495    30.973761998420
         P           -1.780339461585     0.197610836180    -0.001499977505    30.973761998420
         O            1.409838538415     1.049896836180    -0.377911977505    15.994914619570
         O           -0.334763461585    -0.798164163820    -0.200759977505    15.994914619570
         O            1.981197538415    -1.381670163820    -1.052990977505    15.994914619570
         O            1.670703538415    -0.750290163820     1.451084022495    15.994914619570
         O           -1.779392461585     1.124385836180    -1.223816977505    15.994914619570
         O           -1.640582361585     0.857280736180     1.378961622495    15.994914619570
         O           -2.852892261585    -0.899058863820     0.017595322495    15.994914619570
         C            2.679718538415     1.598071836180    -0.013526977505    12.000000000000
         H            2.788837538415     1.645163836180     1.073196022495     1.007825032230
         H            3.501791538415     1.001706836180    -0.425490977505     1.007825032230
         H            2.729066538415     2.604567836180    -0.433595977505     1.007825032230

  Basis Set: AUG-CC-PVTZ
    Blend: AUG-CC-PVTZ
  Basis Set: (AUG-CC-PVTZ AUX)
    Blend: AUG-CC-PVTZ-JKFIT
	 Reference Energy          =   -1245.3443299052773909 [Eh]
	 Singles Energy            =      -0.0000000000000000 [Eh]
	 Same-Spin Energy          =      -0.6460218506806131 [Eh]
	 Opposite-Spin Energy      =      -1.8063386038638769 [Eh]
	 Correlation Energy        =      -2.4523604545444901 [Eh]
	 Total Energy              =   -1247.7966903598219233 [Eh]

	 ================> DF-SCS-MP2 Energies <==================
	-----------------------------------------------------------
	 SCS Same-Spin Scale       =       0.3333333333333333 [-]
	 SCS Opposite-Spin Scale   =       1.2000000000000000 [-]
	 SCS Same-Spin Energy      =      -0.2153406168935377 [Eh]
	 SCS Opposite-Spin Energy  =      -2.1676063246366524 [Eh]
	 SCS Correlation Energy    =      -2.3829469415301903 [Eh]
	 SCS Total Energy          =   -1247.7272768468076265 [Eh]
	-----------------------------------------------------------

  Dipole Moment: [D]
     X:     8.0664      Y:     2.3947      Z:    -0.6655     Total:     8.4406

*** Psi4 exiting successfully. Buy a developer a beer!
