                               Psi4 1.3.2 release

  ==> Input File <==

--------------------------------------------------------------------------
#psi4
#
memory 32 gb

molecule  {
-3 1
  P        1.1931290    -0.6069630     0.0087730
  P       -1.8341790     0.1663700     0.0034510
  O        1.3559990     1.0186560    -0.3729610
  O       -0.3886030    -0.8294050    -0.1958090
  O        1.9273580    -1.4129110    -1.0480400
  O        1.6168640    -0.7815310     1.4560350
  O       -1.8740591     1.0650029    -1.2390626
  O       -1.6562150     0.8578460     1.3638040
  O       -2.9133125    -0.9210376    -0.0767640
  C        2.6258790     1.5668310    -0.0085760
  H        2.7349980     1.6139230     1.0781470
  H        3.4479520     0.9704660    -0.4205400
  H        2.6752270     2.5733270    -0.4286450
units angstrom
no_reorient  #important for SAPT in psi4, default
symmetry c1  #important for SAPT in psi4, default
}

set PROPERTIES_ORIGIN ["COM"]
properties('MP2/aug-cc-pvtz', properties = ['dipole'])
--------------------------------------------------------------------------

    Molecular point group: c1
  Charge       = -3
  Multiplicity = 1
  Basis Set: AUG-CC-PVTZ
    Blend: AUG-CC-PVTZ
  Basis Set: (AUG-CC-PVTZ AUX)
    Blend: AUG-CC-PVTZ-JKFIT

    Orbital Energies [Eh]
    ---------------------

    Doubly Occupied:

       1A    -79.623375     2A    -79.559018     3A    -20.154349
       4A    -20.082707     5A    -20.055738     6A    -20.052085
       7A    -20.001791     8A    -19.995770     9A    -19.995334
      10A    -10.918236    11A     -7.137423    12A     -7.072834
      13A     -5.036729    14A     -5.035213    15A     -5.034398
      16A     -4.972364    17A     -4.970049    18A     -4.969724
      19A     -0.966648    20A     -0.887864    21A     -0.842121
      22A     -0.804070    23A     -0.799773    24A     -0.743659
      25A     -0.736336    26A     -0.561827    27A     -0.337473
      28A     -0.283317    29A     -0.255380    30A     -0.229729
      31A     -0.187908    32A     -0.148012    33A     -0.144472
      34A     -0.115653    35A     -0.092366    36A     -0.089827
      37A     -0.064291    38A     -0.058409    39A     -0.042950
      40A     -0.039128    41A     -0.023283    42A      0.005982
      43A      0.019905    44A      0.023161    45A      0.026680
      46A      0.027590    47A      0.064709    48A      0.070094
      49A      0.094907

  @DF-RHF Final Energy: -1245.34451990999537

   => Energetics <=

    Nuclear Repulsion Energy =            819.8692064879882082
    One-Electron Energy =               -3404.8502471902802426
    Two-Electron Energy =                1339.6365207922965510
    Total Energy =                      -1245.3445199099953697
  Basis Set: (AUG-CC-PVTZ AUX)
    Blend: AUG-CC-PVTZ-RI
    Molecular point group: c1

    Geometry (in Angstrom), charge = -3, multiplicity = 1:

       Center              X                  Y                   Z               Mass
    ------------   -----------------  -----------------  -----------------  -----------------
         P            1.247747469250    -0.576816463059     0.015641607311    30.973761998420
         P           -1.779560530750     0.196516536941     0.010319607311    30.973761998420
         O            1.410617469250     1.048802536941    -0.366092392689    15.994914619570
         O           -0.333984530750    -0.799258463059    -0.188940392689    15.994914619570
         O            1.981976469250    -1.382764463059    -1.041171392689    15.994914619570
         O            1.671482469250    -0.751384463059     1.462903607311    15.994914619570
         O           -1.819440630750     1.095149436941    -1.232193992689    15.994914619570
         O           -1.601596530750     0.887992536941     1.370672607311    15.994914619570
         O           -2.858694030750    -0.890891063059    -0.069895392689    15.994914619570
         C            2.680497469250     1.596977536941    -0.001707392689    12.000000000000
         H            2.789616469250     1.644069536941     1.085015607311     1.007825032230
         H            3.502570469250     1.000612536941    -0.413671392689     1.007825032230
         H            2.729845469250     2.603473536941    -0.421776392689     1.007825032230

  Basis Set: AUG-CC-PVTZ
    Blend: AUG-CC-PVTZ
  Basis Set: (AUG-CC-PVTZ AUX)
    Blend: AUG-CC-PVTZ-JKFIT
	 Reference Energy          =   -1245.3445199099953697 [Eh]
	 Singles Energy            =      -0.0000000000000000 [Eh]
	 Same-Spin Energy          =      -0.6460093965218631 [Eh]
	 Opposite-Spin Energy      =      -1.8063112055717261 [Eh]
	 Correlation Energy        =      -2.4523206020935890 [Eh]
	 Total Energy              =   -1247.7968405120889201 [Eh]

	 ================> DF-SCS-MP2 Energies <==================
	-----------------------------------------------------------
	 SCS Same-Spin Scale       =       0.3333333333333333 [-]
	 SCS Opposite-Spin Scale   =       1.2000000000000000 [-]
	 SCS Same-Spin Energy      =      -0.2153364655072877 [Eh]
	 SCS Opposite-Spin Energy  =      -2.1675734466860712 [Eh]
	 SCS Correlation Energy    =      -2.3829099121933588 [Eh]
	 SCS Total Energy          =   -1247.7274298221886966 [Eh]
	-----------------------------------------------------------

  Dipole Moment: [D]
     X:     8.0949      Y:     2.3600      Z:    -0.2836     Total:     8.4367

*** Psi4 exiting successfully. Buy a developer a beer!
