                               Psi4 1.3.2 release

  ==> Input File <==

--------------------------------------------------------------------------
#psi4
#
memory 32 gb

molecule  {
-3 1
  P        1.1931290    -0.6069630     0.0087730
  P       -1.8341790     0.1663700     0.0034510
  O        1.3559990     1.0186560    -0.3729610
  O       -0.3886030    -0.8294050    -0.1958090
  O        1.9273580    -1.4129110    -1.0480400
  O        1.6168640    -0.7815310     1.4560350
  O       -1.8331703     1.1535629    -1.2985508
  O       -1.6562150     0.8578460     1.3638040
  O       -2.8968830    -0.9395270    -0.0292720
  C        2.6258790     1.5668310    -0.0085760
  H        2.7349980     1.6139230     1.0781470
  H        3.4479520     0.9704660    -0.4205400
  H        2.6752270     2.5733270    -0.4286450
units angstrom
no_reorient  #important for SAPT in psi4, default
symmetry c1  #important for SAPT in psi4, default
}

set PROPERTIES_ORIGIN ["COM"]
properties('MP2/aug-cc-pvtz', properties = ['dipole'])
--------------------------------------------------------------------------

    Molecular point group: c1
  Charge       = -3
  Multiplicity = 1
  Basis Set: AUG-CC-PVTZ
    Blend: AUG-CC-PVTZ
  Basis Set: (AUG-CC-PVTZ AUX)
    Blend: AUG-CC-PVTZ-JKFIT

    Orbital Energies [Eh]
    ---------------------

    Doubly Occupied:

       1A    -79.624891     2A    -79.576076     3A    -20.153918
       4A    -20.087092     5A    -20.056647     6A    -20.053322
       7A    -20.007859     8A    -20.006487     9A    -20.004475
      10A    -10.917789    11A     -7.138929    12A     -7.087441
      13A     -5.038229    14A     -5.036740    15A     -5.035891
      16A     -4.987110    17A     -4.984686    18A     -4.984050
      19A     -0.966666    20A     -0.889567    21A     -0.841631
      22A     -0.805142    23A     -0.798472    24A     -0.748519
      25A     -0.719363    26A     -0.561426    27A     -0.339274
      28A     -0.285831    29A     -0.255003    30A     -0.230200
      31A     -0.189672    32A     -0.149817    33A     -0.146293
      34A     -0.115803    35A     -0.094541    36A     -0.090174
      37A     -0.063786    38A     -0.058531    39A     -0.042519
      40A     -0.040028    41A     -0.023145    42A      0.004825
      43A      0.016605    44A      0.025067    45A      0.027202
      46A      0.032455    47A      0.059512    48A      0.072403
      49A      0.090262

  @DF-RHF Final Energy: -1245.33252453917885

   => Energetics <=

    Nuclear Repulsion Energy =            816.1912966253117929
    One-Electron Energy =               -3397.2302274116641456
    Two-Electron Energy =                1335.7064062471736179
    Total Energy =                      -1245.3325245391788485
  Basis Set: (AUG-CC-PVTZ AUX)
    Blend: AUG-CC-PVTZ-RI
    Molecular point group: c1

    Geometry (in Angstrom), charge = -3, multiplicity = 1:

       Center              X                  Y                   Z               Mass
    ------------   -----------------  -----------------  -----------------  -----------------
         P            1.242895010115    -0.582748507852     0.016657182970    30.973761998420
         P           -1.784412989885     0.190584492148     0.011335182970    30.973761998420
         O            1.405765010115     1.042870492148    -0.365076817030    15.994914619570
         O           -0.338836989885    -0.805190507852    -0.187924817030    15.994914619570
         O            1.977124010115    -1.388696507852    -1.040155817030    15.994914619570
         O            1.666630010115    -0.757316507852     1.463919182970    15.994914619570
         O           -1.783404289885     1.177777392148    -1.290666617030    15.994914619570
         O           -1.606448989885     0.882060492148     1.371688182970    15.994914619570
         O           -2.847116989885    -0.915312507852    -0.021387817030    15.994914619570
         C            2.675645010115     1.591045492148    -0.000691817030    12.000000000000
         H            2.784764010115     1.638137492148     1.086031182970     1.007825032230
         H            3.497718010115     0.994680492148    -0.412655817030     1.007825032230
         H            2.724993010115     2.597541492148    -0.420760817030     1.007825032230

  Basis Set: AUG-CC-PVTZ
    Blend: AUG-CC-PVTZ
  Basis Set: (AUG-CC-PVTZ AUX)
    Blend: AUG-CC-PVTZ-JKFIT
	 Reference Energy          =   -1245.3325245391788485 [Eh]
	 Singles Energy            =      -0.0000000000000000 [Eh]
	 Same-Spin Energy          =      -0.6477674434895025 [Eh]
	 Opposite-Spin Energy      =      -1.8110207062621808 [Eh]
	 Correlation Energy        =      -2.4587881497516832 [Eh]
	 Total Energy              =   -1247.7913126889304749 [Eh]

	 ================> DF-SCS-MP2 Energies <==================
	-----------------------------------------------------------
	 SCS Same-Spin Scale       =       0.3333333333333333 [-]
	 SCS Opposite-Spin Scale   =       1.2000000000000000 [-]
	 SCS Same-Spin Energy      =      -0.2159224811631675 [Eh]
	 SCS Opposite-Spin Energy  =      -2.1732248475146170 [Eh]
	 SCS Correlation Energy    =      -2.3891473286777845 [Eh]
	 SCS Total Energy          =   -1247.7216718678566849 [Eh]
	-----------------------------------------------------------

  Dipole Moment: [D]
     X:     8.0270      Y:     1.8840      Z:     0.1121     Total:     8.2459

*** Psi4 exiting successfully. Buy a developer a beer!
