                               Psi4 1.4a3.dev225

  ==> Input File <==

--------------------------------------------------------------------------
#psi4
#
memory 32 gb

molecule  {
-3 1
  P       -1.1253500     0.3591720     0.0081310
  P        2.0878660    -0.1053470     0.0007630
  O       -2.1391380    -1.0979190    -0.1147190
  O        0.2405970    -0.4148950    -0.1339660
  O       -1.5628960     1.1822930    -1.2021870
  O       -1.4752280     0.9069340     1.3887990
  O        2.4385690    -0.8874190     1.2758270
  O        2.1989840     1.4211450     0.0869110
  O        2.5676630    -0.7478960    -1.3107960
  C       -3.5100951    -0.7677676    -0.0133530
  H       -3.7335280    -0.2943150     0.9495100
  H       -3.8114220    -0.0788120    -0.8111520
  H       -4.0969940    -1.6975630    -0.1019980
units angstrom
no_reorient  #important for SAPT in psi4, default
symmetry c1  #important for SAPT in psi4, default
}

set PROPERTIES_ORIGIN ["COM"]
properties('MP2/aug-cc-pvtz', properties = ['dipole'])
--------------------------------------------------------------------------

    Molecular point group: c1
  Charge       = -3
  Multiplicity = 1
  Basis Set: AUG-CC-PVTZ
    Blend: AUG-CC-PVTZ
  Basis Set: (AUG-CC-PVTZ AUX)
    Blend: AUG-CC-PVTZ-JKFIT

    Orbital Energies [Eh]
    ---------------------

    Doubly Occupied:

       1A    -79.628034     2A    -79.585362     3A    -20.144309
       4A    -20.087910     5A    -20.055267     6A    -20.054886
       7A    -20.022408     8A    -20.022279     9A    -20.021425
      10A    -10.910043    11A     -7.140929    12A     -7.098671
      13A     -5.040359    14A     -5.038550    15A     -5.037726
      16A     -4.998372    17A     -4.995365    18A     -4.995348
      19A     -0.949358    20A     -0.884835    21A     -0.846600
      22A     -0.815650    23A     -0.800769    24A     -0.763033
      25A     -0.761812    26A     -0.545816    27A     -0.332030
      28A     -0.267733    29A     -0.246634    30A     -0.207656
      31A     -0.203328    32A     -0.156655    33A     -0.142968
      34A     -0.117697    35A     -0.098788    36A     -0.097166
      37A     -0.078742    38A     -0.054221    39A     -0.048964
      40A     -0.029777    41A     -0.012892    42A     -0.000618
      43A      0.001686    44A      0.003773    45A      0.009090
      46A      0.022473    47A      0.043407    48A      0.048450
      49A      0.071122

  @DF-RHF Final Energy: -1245.34079006999536

   => Energetics <=

    Nuclear Repulsion Energy =            796.5053226632403494
    One-Electron Energy =               -3357.4102553792145045
    Two-Electron Energy =                1315.5641426459787908
    Total Energy =                      -1245.3407900699953643
  Basis Set: (AUG-CC-PVTZ AUX)
    Blend: AUG-CC-PVTZ-RI
    Molecular point group: c1

    Geometry (in Angstrom), charge = -3, multiplicity = 1:

       Center              X                  Y                   Z               Mass
    ------------   -----------------  -----------------  -----------------  -----------------
         P           -1.190154357358     0.346702888537     0.008184750237    30.973761998420
         P            2.023061642642    -0.117816111463     0.000816750237    30.973761998420
         O           -2.203942357358    -1.110388111463    -0.114665249763    15.994914619570
         O            0.175792642642    -0.427364111463    -0.133912249763    15.994914619570
         O           -1.627700357358     1.169823888537    -1.202133249763    15.994914619570
         O           -1.540032357358     0.894464888537     1.388852750237    15.994914619570
         O            2.373764642642    -0.899888111463     1.275880750237    15.994914619570
         O            2.134179642642     1.408675888537     0.086964750237    15.994914619570
         O            2.502858642642    -0.760365111463    -1.310742249763    15.994914619570
         C           -3.574899457358    -0.780236711463    -0.013299249763    12.000000000000
         H           -3.798332357358    -0.306784111463     0.949563750237     1.007825032230
         H           -3.876226357358    -0.091281111463    -0.811098249763     1.007825032230
         H           -4.161798357358    -1.710032111463    -0.101944249763     1.007825032230

  Basis Set: AUG-CC-PVTZ
    Blend: AUG-CC-PVTZ
  Basis Set: (AUG-CC-PVTZ AUX)
    Blend: AUG-CC-PVTZ-JKFIT
	 Reference Energy          =   -1245.3407900699953643 [Eh]
	 Singles Energy            =      -0.0000000000000000 [Eh]
	 Same-Spin Energy          =      -0.6475016650760652 [Eh]
	 Opposite-Spin Energy      =      -1.8104687935431996 [Eh]
	 Correlation Energy        =      -2.4579704586192648 [Eh]
	 Total Energy              =   -1247.7987605286145936 [Eh]

	 ================> DF-SCS-MP2 Energies <==================
	-----------------------------------------------------------
	 SCS Same-Spin Scale       =       0.3333333333333333 [-]
	 SCS Opposite-Spin Scale   =       1.2000000000000000 [-]
	 SCS Same-Spin Energy      =      -0.2158338883586884 [Eh]
	 SCS Opposite-Spin Energy  =      -2.1725625522518395 [Eh]
	 SCS Correlation Energy    =      -2.3883964406105278 [Eh]
	 SCS Total Energy          =   -1247.7291865106058140 [Eh]
	-----------------------------------------------------------

  Dipole Moment: [D]
     X:    -7.8161      Y:    -1.8215      Z:    -0.1655     Total:     8.0273

*** Psi4 exiting successfully. Buy a developer a beer!
