                               Psi4 1.3.2 release

  ==> Input File <==

--------------------------------------------------------------------------
#psi4
#
memory 32 gb

molecule  {
-3 1
  P        1.1931290    -0.6069630     0.0087730
  P       -1.8341790     0.1663700     0.0034510
  O        1.3559990     1.0186560    -0.3729610
  O       -0.3886030    -0.8294050    -0.1958090
  O        1.9273580    -1.4129110    -1.0480400
  O        1.6168640    -0.7815310     1.4560350
  O       -1.8332320     1.0931450    -1.2188660
  O       -1.6562150     0.8578460     1.3638040
  O       -2.8968830    -0.9395270    -0.0292720
  C        2.6258790     1.5668310    -0.0085760
  H        2.7271109     1.6192648     1.0786656
  H        3.4444704     0.9718249    -0.4293437
  H        2.6752270     2.5733270    -0.4286450
units angstrom
no_reorient  #important for SAPT in psi4, default
symmetry c1  #important for SAPT in psi4, default
}

set PROPERTIES_ORIGIN ["COM"]
properties('MP2/aug-cc-pvtz', properties = ['dipole'])
--------------------------------------------------------------------------

    Molecular point group: c1
  Charge       = -3
  Multiplicity = 1
  Basis Set: AUG-CC-PVTZ
    Blend: AUG-CC-PVTZ
  Basis Set: (AUG-CC-PVTZ AUX)
    Blend: AUG-CC-PVTZ-JKFIT

    Orbital Energies [Eh]
    ---------------------

    Doubly Occupied:

       1A    -79.621930     2A    -79.559054     3A    -20.152596
       4A    -20.080480     5A    -20.054698     6A    -20.050754
       7A    -19.999219     8A    -19.998735     9A    -19.997226
      10A    -10.917044    11A     -7.135970    12A     -7.072867
      13A     -5.035277    14A     -5.033756    15A     -5.032955
      16A     -4.972430    17A     -4.969982    18A     -4.969851
      19A     -0.965112    20A     -0.886531    21A     -0.841457
      22A     -0.802857    23A     -0.798870    24A     -0.741688
      25A     -0.740157    26A     -0.560449    27A     -0.335678
      28A     -0.281645    29A     -0.255503    30A     -0.228325
      31A     -0.186737    32A     -0.147180    33A     -0.143702
      34A     -0.113839    35A     -0.092727    36A     -0.088634
      37A     -0.063352    38A     -0.057594    39A     -0.043001
      40A     -0.037995    41A     -0.022112    42A      0.007381
      43A      0.021077    44A      0.022733    45A      0.025883
      46A      0.028329    47A      0.065173    48A      0.068615
      49A      0.093322

  @DF-RHF Final Energy: -1245.34519012490296

   => Energetics <=

    Nuclear Repulsion Energy =            820.4493545170678317
    One-Electron Energy =               -3406.0741779115483041
    Two-Electron Energy =                1340.2796332695777437
    Total Energy =                      -1245.3451901249029561
  Basis Set: (AUG-CC-PVTZ AUX)
    Blend: AUG-CC-PVTZ-RI
    Molecular point group: c1

    Geometry (in Angstrom), charge = -3, multiplicity = 1:

       Center              X                  Y                   Z               Mass
    ------------   -----------------  -----------------  -----------------  -----------------
         P            1.242960876790    -0.577669385509     0.009955412779    30.973761998420
         P           -1.784347123210     0.195663614491     0.004633412779    30.973761998420
         O            1.405830876790     1.047949614491    -0.371778587221    15.994914619570
         O           -0.338771123210    -0.800111385509    -0.194626587221    15.994914619570
         O            1.977189876790    -1.383617385509    -1.046857587221    15.994914619570
         O            1.666695876790    -0.752237385509     1.457217412779    15.994914619570
         O           -1.783400123210     1.122438614491    -1.217683587221    15.994914619570
         O           -1.606383123210     0.887139614491     1.364986412779    15.994914619570
         O           -2.847051123210    -0.910233385509    -0.028089587221    15.994914619570
         C            2.675710876790     1.596124614491    -0.007393587221    12.000000000000
         H            2.776942776790     1.648558414491     1.079848012779     1.007825032230
         H            3.494302276790     1.001118514491    -0.428161287221     1.007825032230
         H            2.725058876790     2.602620614491    -0.427462587221     1.007825032230

  Basis Set: AUG-CC-PVTZ
    Blend: AUG-CC-PVTZ
  Basis Set: (AUG-CC-PVTZ AUX)
    Blend: AUG-CC-PVTZ-JKFIT
	 Reference Energy          =   -1245.3451901249029561 [Eh]
	 Singles Energy            =      -0.0000000000000000 [Eh]
	 Same-Spin Energy          =      -0.6460285234288978 [Eh]
	 Opposite-Spin Energy      =      -1.8063343384403421 [Eh]
	 Correlation Energy        =      -2.4523628618692399 [Eh]
	 Total Energy              =   -1247.7975529867721889 [Eh]

	 ================> DF-SCS-MP2 Energies <==================
	-----------------------------------------------------------
	 SCS Same-Spin Scale       =       0.3333333333333333 [-]
	 SCS Opposite-Spin Scale   =       1.2000000000000000 [-]
	 SCS Same-Spin Energy      =      -0.2153428411429659 [Eh]
	 SCS Opposite-Spin Energy  =      -2.1676012061284102 [Eh]
	 SCS Correlation Energy    =      -2.3829440472713763 [Eh]
	 SCS Total Energy          =   -1247.7281341721743502 [Eh]
	-----------------------------------------------------------

  Dipole Moment: [D]
     X:     7.9128      Y:     2.3360      Z:    -0.4737     Total:     8.2640

*** Psi4 exiting successfully. Buy a developer a beer!
