                               Psi4 1.3.2 release

  ==> Input File <==

--------------------------------------------------------------------------
#psi4
#
memory 32 gb

molecule  {
-3 1
  P        1.1931290    -0.6069630     0.0087730
  P       -1.8341790     0.1663700     0.0034510
  O        1.3559990     1.0186560    -0.3729610
  O       -0.3886030    -0.8294050    -0.1958090
  O        1.9273580    -1.4129110    -1.0480400
  O        1.6168640    -0.7815310     1.4560350
  O       -1.8332320     1.0931450    -1.2188660
  O       -1.6562150     0.8578460     1.3638040
  O       -2.8968830    -0.9395270    -0.0292720
  C        2.6258790     1.5668310    -0.0085760
  H        2.7192160     1.6246027     1.0791014
  H        3.4409265     0.9732292    -0.4381154
  H        2.6752270     2.5733270    -0.4286450
units angstrom
no_reorient  #important for SAPT in psi4, default
symmetry c1  #important for SAPT in psi4, default
}

set PROPERTIES_ORIGIN ["COM"]
properties('MP2/aug-cc-pvtz', properties = ['dipole'])
--------------------------------------------------------------------------

    Molecular point group: c1
  Charge       = -3
  Multiplicity = 1
  Basis Set: AUG-CC-PVTZ
    Blend: AUG-CC-PVTZ
  Basis Set: (AUG-CC-PVTZ AUX)
    Blend: AUG-CC-PVTZ-JKFIT

    Orbital Energies [Eh]
    ---------------------

    Doubly Occupied:

       1A    -79.621877     2A    -79.559039     3A    -20.152325
       4A    -20.080444     5A    -20.054693     6A    -20.050707
       7A    -19.999199     8A    -19.998721     9A    -19.997219
      10A    -10.917008    11A     -7.135917    12A     -7.072851
      13A     -5.035222    14A     -5.033704    15A     -5.032904
      16A     -4.972414    17A     -4.969967    18A     -4.969836
      19A     -0.965039    20A     -0.886498    21A     -0.841434
      22A     -0.802827    23A     -0.798850    24A     -0.741671
      25A     -0.740147    26A     -0.560289    27A     -0.335272
      28A     -0.281200    29A     -0.256854    30A     -0.228267
      31A     -0.186445    32A     -0.147150    33A     -0.143737
      34A     -0.113244    35A     -0.092709    36A     -0.088660
      37A     -0.063472    38A     -0.057570    39A     -0.042962
      40A     -0.037969    41A     -0.022063    42A      0.007423
      43A      0.021101    44A      0.022750    45A      0.025898
      46A      0.028346    47A      0.065188    48A      0.068630
      49A      0.093334

  @DF-RHF Final Energy: -1245.34510139115173

   => Energetics <=

    Nuclear Repulsion Energy =            820.4611583436145565
    One-Electron Energy =               -3406.1011150970580275
    Two-Electron Energy =                1340.2948553622918553
    Total Energy =                      -1245.3451013911517293
  Basis Set: (AUG-CC-PVTZ AUX)
    Blend: AUG-CC-PVTZ-RI
    Molecular point group: c1

    Geometry (in Angstrom), charge = -3, multiplicity = 1:

       Center              X                  Y                   Z               Mass
    ------------   -----------------  -----------------  -----------------  -----------------
         P            1.243021893989    -0.577705349960     0.009999878393    30.973761998420
         P           -1.784286106011     0.195627650040     0.004677878393    30.973761998420
         O            1.405891893989     1.047913650040    -0.371734121607    15.994914619570
         O           -0.338710106011    -0.800147349960    -0.194582121607    15.994914619570
         O            1.977250893989    -1.383653349960    -1.046813121607    15.994914619570
         O            1.666756893989    -0.752273349960     1.457261878393    15.994914619570
         O           -1.783339106011     1.122402650040    -1.217639121607    15.994914619570
         O           -1.606322106011     0.887103650040     1.365030878393    15.994914619570
         O           -2.846990106011    -0.910269349960    -0.028045121607    15.994914619570
         C            2.675771893989     1.596088650040    -0.007349121607    12.000000000000
         H            2.769108893989     1.653860350040     1.080328278393     1.007825032230
         H            3.490819393989     1.002486850040    -0.436888521607     1.007825032230
         H            2.725119893989     2.602584650040    -0.427418121607     1.007825032230

  Basis Set: AUG-CC-PVTZ
    Blend: AUG-CC-PVTZ
  Basis Set: (AUG-CC-PVTZ AUX)
    Blend: AUG-CC-PVTZ-JKFIT
	 Reference Energy          =   -1245.3451013911517293 [Eh]
	 Singles Energy            =      -0.0000000000000000 [Eh]
	 Same-Spin Energy          =      -0.6460243980279377 [Eh]
	 Opposite-Spin Energy      =      -1.8063321311654481 [Eh]
	 Correlation Energy        =      -2.4523565291933860 [Eh]
	 Total Energy              =   -1247.7974579203450958 [Eh]

	 ================> DF-SCS-MP2 Energies <==================
	-----------------------------------------------------------
	 SCS Same-Spin Scale       =       0.3333333333333333 [-]
	 SCS Opposite-Spin Scale   =       1.2000000000000000 [-]
	 SCS Same-Spin Energy      =      -0.2153414660093125 [Eh]
	 SCS Opposite-Spin Energy  =      -2.1675985573985375 [Eh]
	 SCS Correlation Energy    =      -2.3829400234078499 [Eh]
	 SCS Total Energy          =   -1247.7280414145595842 [Eh]
	-----------------------------------------------------------

  Dipole Moment: [D]
     X:     7.9127      Y:     2.3396      Z:    -0.4755     Total:     8.2650

*** Psi4 exiting successfully. Buy a developer a beer!
