                               Psi4 1.4a3.dev225

  ==> Input File <==

--------------------------------------------------------------------------
#psi4
#
memory 32 gb

molecule  {
-3 1
  P       -1.1253500     0.3591720     0.0081310
  P        2.0878660    -0.1053470     0.0007630
  O       -2.1391380    -1.0979190    -0.1147190
  O        0.2209229    -0.4181918    -0.1354009
  O       -1.5628960     1.1822930    -1.2021870
  O       -1.4752280     0.9069340     1.3887990
  O        2.4385690    -0.8874190     1.2758270
  O        2.1989840     1.4211450     0.0869110
  O        2.5676630    -0.7478960    -1.3107960
  C       -3.4907010    -0.7724380    -0.0147870
  H       -3.7335280    -0.2943150     0.9495100
  H       -3.8114220    -0.0788120    -0.8111520
  H       -4.0969940    -1.6975630    -0.1019980
units angstrom
no_reorient  #important for SAPT in psi4, default
symmetry c1  #important for SAPT in psi4, default
}

set PROPERTIES_ORIGIN ["COM"]
properties('MP2/aug-cc-pvtz', properties = ['dipole'])
--------------------------------------------------------------------------

    Molecular point group: c1
  Charge       = -3
  Multiplicity = 1
  Basis Set: AUG-CC-PVTZ
    Blend: AUG-CC-PVTZ
  Basis Set: (AUG-CC-PVTZ AUX)
    Blend: AUG-CC-PVTZ-JKFIT

    Orbital Energies [Eh]
    ---------------------

    Doubly Occupied:

       1A    -79.624935     2A    -79.588266     3A    -20.142819
       4A    -20.087130     5A    -20.053812     6A    -20.053661
       7A    -20.025120     8A    -20.025010     9A    -20.024176
      10A    -10.909351    11A     -7.138329    12A     -7.101581
      13A     -5.037771    14A     -5.035968    15A     -5.035078
      16A     -5.001286    17A     -4.998222    18A     -4.998204
      19A     -0.954433    20A     -0.887438    21A     -0.847597
      22A     -0.817375    23A     -0.799561    24A     -0.765448
      25A     -0.764224    26A     -0.540850    27A     -0.332199
      28A     -0.266591    29A     -0.244354    30A     -0.210891
      31A     -0.204493    32A     -0.157033    33A     -0.142830
      34A     -0.116774    35A     -0.098445    36A     -0.098239
      37A     -0.079934    38A     -0.052804    39A     -0.047331
      40A     -0.028970    41A     -0.012391    42A     -0.002784
      43A      0.000424    44A      0.001541    45A      0.009043
      46A      0.023250    47A      0.040742    48A      0.046207
      49A      0.068638

  @DF-RHF Final Energy: -1245.34113918968546

   => Energetics <=

    Nuclear Repulsion Energy =            797.0391876083492662
    One-Electron Energy =               -3358.4329271243573203
    Two-Electron Energy =                1316.0526003263228176
    Total Energy =                      -1245.3411391896854639
  Basis Set: (AUG-CC-PVTZ AUX)
    Blend: AUG-CC-PVTZ-RI
    Molecular point group: c1

    Geometry (in Angstrom), charge = -3, multiplicity = 1:

       Center              X                  Y                   Z               Mass
    ------------   -----------------  -----------------  -----------------  -----------------
         P           -1.189720577615     0.347278624125     0.008397304913    30.973761998420
         P            2.023495422385    -0.117240375875     0.001029304913    30.973761998420
         O           -2.203508577615    -1.109812375875    -0.114452695087    15.994914619570
         O            0.156552322385    -0.430085175875    -0.135134595087    15.994914619570
         O           -1.627266577615     1.170399624125    -1.201920695087    15.994914619570
         O           -1.539598577615     0.895040624125     1.389065304913    15.994914619570
         O            2.374198422385    -0.899312375875     1.276093304913    15.994914619570
         O            2.134613422385     1.409251624125     0.087177304913    15.994914619570
         O            2.503292422385    -0.759789375875    -1.310529695087    15.994914619570
         C           -3.555071577615    -0.784331375875    -0.014520695087    12.000000000000
         H           -3.797898577615    -0.306208375875     0.949776304913     1.007825032230
         H           -3.875792577615    -0.090705375875    -0.810885695087     1.007825032230
         H           -4.161364577615    -1.709456375875    -0.101731695087     1.007825032230

  Basis Set: AUG-CC-PVTZ
    Blend: AUG-CC-PVTZ
  Basis Set: (AUG-CC-PVTZ AUX)
    Blend: AUG-CC-PVTZ-JKFIT
	 Reference Energy          =   -1245.3411391896854639 [Eh]
	 Singles Energy            =      -0.0000000000000000 [Eh]
	 Same-Spin Energy          =      -0.6474523666480732 [Eh]
	 Opposite-Spin Energy      =      -1.8100716428001329 [Eh]
	 Correlation Energy        =      -2.4575240094482060 [Eh]
	 Total Energy              =   -1247.7986631991336708 [Eh]

	 ================> DF-SCS-MP2 Energies <==================
	-----------------------------------------------------------
	 SCS Same-Spin Scale       =       0.3333333333333333 [-]
	 SCS Opposite-Spin Scale   =       1.2000000000000000 [-]
	 SCS Same-Spin Energy      =      -0.2158174555493577 [Eh]
	 SCS Opposite-Spin Energy  =      -2.1720859713601595 [Eh]
	 SCS Correlation Energy    =      -2.3879034269095172 [Eh]
	 SCS Total Energy          =   -1247.7290426165950521 [Eh]
	-----------------------------------------------------------

  Dipole Moment: [D]
     X:    -7.4444      Y:    -1.8300      Z:    -0.1660     Total:     7.6678

*** Psi4 exiting successfully. Buy a developer a beer!
