                               Psi4 1.3.2 release

  ==> Input File <==

--------------------------------------------------------------------------
#psi4
#
memory 32 gb

molecule  {
-3 1
  P        1.1931290    -0.6069630     0.0087730
  P       -1.8341790     0.1663700     0.0034510
  O        1.3559990     1.0186560    -0.3729610
  O       -0.5522570    -0.7166731    -0.1732507
  O        1.9273580    -1.4129110    -1.0480400
  O        1.6168640    -0.7815310     1.4560350
  O       -1.8332320     1.0931450    -1.2188660
  O       -1.6562150     0.8578460     1.3638040
  O       -2.8968830    -0.9395270    -0.0292720
  C        2.6258790     1.5668310    -0.0085760
  H        2.7349980     1.6139230     1.0781470
  H        3.4479520     0.9704660    -0.4205400
  H        2.6752270     2.5733270    -0.4286450
units angstrom
no_reorient  #important for SAPT in psi4, default
symmetry c1  #important for SAPT in psi4, default
}

set PROPERTIES_ORIGIN ["COM"]
properties('MP2/aug-cc-pvtz', properties = ['dipole'])
--------------------------------------------------------------------------

    Molecular point group: c1
  Charge       = -3
  Multiplicity = 1
  Basis Set: AUG-CC-PVTZ
    Blend: AUG-CC-PVTZ
  Basis Set: (AUG-CC-PVTZ AUX)
    Blend: AUG-CC-PVTZ-JKFIT

    Orbital Energies [Eh]
    ---------------------

    Doubly Occupied:

       1A    -79.656827     2A    -79.526264     3A    -20.164807
       4A    -20.083892     5A    -20.079331     6A    -20.072943
       7A    -19.975643     8A    -19.975504     9A    -19.974068
      10A    -10.925868    11A     -7.168205    12A     -7.043066
      13A     -5.067547    14A     -5.065782    15A     -5.065141
      16A     -4.943099    17A     -4.940258    18A     -4.940084
      19A     -0.975513    20A     -0.897353    21A     -0.866134
      22A     -0.825093    23A     -0.774914    24A     -0.721715
      25A     -0.720363    26A     -0.570375    27A     -0.354365
      28A     -0.291375    29A     -0.263819    30A     -0.233574
      31A     -0.202564    32A     -0.155703    33A     -0.134313
      34A     -0.125095    35A     -0.100771    36A     -0.098025
      37A     -0.074781    38A     -0.064172    39A     -0.043588
      40A     -0.034206    41A     -0.024789    42A     -0.009931
      43A      0.003744    44A      0.037374    45A      0.042650
      46A      0.044716    47A      0.090057    48A      0.091864
      49A      0.113888

  @DF-RHF Final Energy: -1245.31535296728202

   => Energetics <=

    Nuclear Repulsion Energy =            822.5033073244377420
    One-Electron Energy =               -3410.0241930825923191
    Two-Electron Energy =                1342.2055327908726667
    Total Energy =                      -1245.3153529672820241
  Basis Set: (AUG-CC-PVTZ AUX)
    Blend: AUG-CC-PVTZ-RI
    Molecular point group: c1

    Geometry (in Angstrom), charge = -3, multiplicity = 1:

       Center              X                  Y                   Z               Mass
    ------------   -----------------  -----------------  -----------------  -----------------
         P            1.256754872393    -0.587177312391     0.008001475026    30.973761998420
         P           -1.770553127607     0.186155687609     0.002679475026    30.973761998420
         O            1.419624872393     1.038441687609    -0.373732524974    15.994914619570
         O           -0.488631127607    -0.696887412391    -0.174022224974    15.994914619570
         O            1.990983872393    -1.393125312391    -1.048811524974    15.994914619570
         O            1.680489872393    -0.761745312391     1.455263475026    15.994914619570
         O           -1.769606127607     1.112930687609    -1.219637524974    15.994914619570
         O           -1.592589127607     0.877631687609     1.363032475026    15.994914619570
         O           -2.833257127607    -0.919741312391    -0.030043524974    15.994914619570
         C            2.689504872393     1.586616687609    -0.009347524974    12.000000000000
         H            2.798623872393     1.633708687609     1.077375475026     1.007825032230
         H            3.511577872393     0.990251687609    -0.421311524974     1.007825032230
         H            2.738852872393     2.593112687609    -0.429416524974     1.007825032230

  Basis Set: AUG-CC-PVTZ
    Blend: AUG-CC-PVTZ
  Basis Set: (AUG-CC-PVTZ AUX)
    Blend: AUG-CC-PVTZ-JKFIT
	 Reference Energy          =   -1245.3153529672820241 [Eh]
	 Singles Energy            =      -0.0000000000000000 [Eh]
	 Same-Spin Energy          =      -0.6464738532401901 [Eh]
	 Opposite-Spin Energy      =      -1.8068224329546405 [Eh]
	 Correlation Energy        =      -2.4532962861948304 [Eh]
	 Total Energy              =   -1247.7686492534769513 [Eh]

	 ================> DF-SCS-MP2 Energies <==================
	-----------------------------------------------------------
	 SCS Same-Spin Scale       =       0.3333333333333333 [-]
	 SCS Opposite-Spin Scale   =       1.2000000000000000 [-]
	 SCS Same-Spin Energy      =      -0.2154912844133967 [Eh]
	 SCS Opposite-Spin Energy  =      -2.1681869195455685 [Eh]
	 SCS Correlation Energy    =      -2.3836782039589650 [Eh]
	 SCS Total Energy          =   -1247.6990311712409039 [Eh]
	-----------------------------------------------------------

  Dipole Moment: [D]
     X:    10.2483      Y:     1.6143      Z:    -0.5356     Total:    10.3884

*** Psi4 exiting successfully. Buy a developer a beer!
