                               Psi4 1.3.2 release

  ==> Input File <==

--------------------------------------------------------------------------
#psi4
#
memory 32 gb

molecule  {
-3 1
  P        1.1931290    -0.6069630     0.0087730
  P       -1.8341790     0.1663700     0.0034510
  O        1.3559990     1.0186560    -0.3729610
  O       -0.3886030    -0.8294050    -0.1958090
  O        1.9273580    -1.4129110    -1.0480400
  O        1.6168640    -0.7815310     1.4560350
  O       -1.8332320     1.0931450    -1.2188660
  O       -1.6657482     0.8499720     1.3689875
  O       -2.8994671    -0.9373461    -0.0163187
  C        2.6258790     1.5668310    -0.0085760
  H        2.7349980     1.6139230     1.0781470
  H        3.4479520     0.9704660    -0.4205400
  H        2.6752270     2.5733270    -0.4286450
units angstrom
no_reorient  #important for SAPT in psi4, default
symmetry c1  #important for SAPT in psi4, default
}

set PROPERTIES_ORIGIN ["COM"]
properties('MP2/aug-cc-pvtz', properties = ['dipole'])
--------------------------------------------------------------------------

    Molecular point group: c1
  Charge       = -3
  Multiplicity = 1
  Basis Set: AUG-CC-PVTZ
    Blend: AUG-CC-PVTZ
  Basis Set: (AUG-CC-PVTZ AUX)
    Blend: AUG-CC-PVTZ-JKFIT

    Orbital Energies [Eh]
    ---------------------

    Doubly Occupied:

       1A    -79.622306     2A    -79.559045     3A    -20.153223
       4A    -20.081030     5A    -20.054965     6A    -20.051019
       7A    -20.000387     8A    -19.997924     9A    -19.996388
      10A    -10.917351    11A     -7.136345    12A     -7.072857
      13A     -5.035653    14A     -5.034132    15A     -5.033327
      16A     -4.972412    17A     -4.969987    18A     -4.969830
      19A     -0.965534    20A     -0.886858    21A     -0.841612
      22A     -0.803118    23A     -0.799107    24A     -0.742364
      25A     -0.739076    26A     -0.560904    27A     -0.336420
      28A     -0.282398    29A     -0.254435    30A     -0.228707
      31A     -0.187191    32A     -0.147326    33A     -0.143895
      34A     -0.114735    35A     -0.092914    36A     -0.088646
      37A     -0.063552    38A     -0.057373    39A     -0.043518
      40A     -0.038123    41A     -0.022439    42A      0.007112
      43A      0.020992    44A      0.022676    45A      0.025851
      46A      0.028300    47A      0.065542    48A      0.068505
      49A      0.093613

  @DF-RHF Final Energy: -1245.34520405185413

   => Energetics <=

    Nuclear Repulsion Energy =            820.3016245971970193
    One-Electron Energy =               -3405.7619896371270443
    Two-Electron Energy =                1340.1151609880757860
    Total Energy =                      -1245.3452040518541253
  Basis Set: (AUG-CC-PVTZ AUX)
    Blend: AUG-CC-PVTZ-RI
    Molecular point group: c1

    Geometry (in Angstrom), charge = -3, multiplicity = 1:

       Center              X                  Y                   Z               Mass
    ------------   -----------------  -----------------  -----------------  -----------------
         P            1.243926061276    -0.577151675324     0.008375790874    30.973761998420
         P           -1.783381938724     0.196181324676     0.003053790874    30.973761998420
         O            1.406796061276     1.048467324676    -0.373358209126    15.994914619570
         O           -0.337805938724    -0.799593675324    -0.196206209126    15.994914619570
         O            1.978155061276    -1.383099675324    -1.048437209126    15.994914619570
         O            1.667661061276    -0.751719675324     1.455637790874    15.994914619570
         O           -1.782434938724     1.122956324676    -1.219263209126    15.994914619570
         O           -1.614951138724     0.879783324676     1.368590290874    15.994914619570
         O           -2.848670038724    -0.907534775324    -0.016715909126    15.994914619570
         C            2.676676061276     1.596642324676    -0.008973209126    12.000000000000
         H            2.785795061276     1.643734324676     1.077749790874     1.007825032230
         H            3.498749061276     1.000277324676    -0.420937209126     1.007825032230
         H            2.726024061276     2.603138324676    -0.429042209126     1.007825032230

  Basis Set: AUG-CC-PVTZ
    Blend: AUG-CC-PVTZ
  Basis Set: (AUG-CC-PVTZ AUX)
    Blend: AUG-CC-PVTZ-JKFIT
	 Reference Energy          =   -1245.3452040518541253 [Eh]
	 Singles Energy            =      -0.0000000000000000 [Eh]
	 Same-Spin Energy          =      -0.6460203468862517 [Eh]
	 Opposite-Spin Energy      =      -1.8063183098089672 [Eh]
	 Correlation Energy        =      -2.4523386566952188 [Eh]
	 Total Energy              =   -1247.7975427085493720 [Eh]

	 ================> DF-SCS-MP2 Energies <==================
	-----------------------------------------------------------
	 SCS Same-Spin Scale       =       0.3333333333333333 [-]
	 SCS Opposite-Spin Scale   =       1.2000000000000000 [-]
	 SCS Same-Spin Energy      =      -0.2153401156287506 [Eh]
	 SCS Opposite-Spin Energy  =      -2.1675819717707605 [Eh]
	 SCS Correlation Energy    =      -2.3829220873995109 [Eh]
	 SCS Total Energy          =   -1247.7281261392536180 [Eh]
	-----------------------------------------------------------

  Dipole Moment: [D]
     X:     7.9511      Y:     2.3480      Z:    -0.5205     Total:     8.3068

*** Psi4 exiting successfully. Buy a developer a beer!
