                               Psi4 1.3.2 release

  ==> Input File <==

--------------------------------------------------------------------------
#psi4
#
memory 32 gb

molecule  {
-3 1
  P        1.2066954    -0.6069633     0.0142792
  P       -1.8341790     0.1663700     0.0034510
  O        1.3559990     1.0186560    -0.3729610
  O       -0.3886030    -0.8294050    -0.1958090
  O        1.9273580    -1.4129110    -1.0480400
  O        1.6168640    -0.7815310     1.4560350
  O       -1.8332320     1.0931450    -1.2188660
  O       -1.6562150     0.8578460     1.3638040
  O       -2.8968830    -0.9395270    -0.0292720
  C        2.6293390     1.5557023    -0.0041059
  H        2.7349980     1.6139230     1.0781470
  H        3.4479520     0.9704660    -0.4205400
  H        2.6752270     2.5733270    -0.4286450
units angstrom
no_reorient  #important for SAPT in psi4, default
symmetry c1  #important for SAPT in psi4, default
}

set PROPERTIES_ORIGIN ["COM"]
properties('MP2/aug-cc-pvtz', properties = ['dipole'])
--------------------------------------------------------------------------

    Molecular point group: c1
  Charge       = -3
  Multiplicity = 1
  Basis Set: AUG-CC-PVTZ
    Blend: AUG-CC-PVTZ
  Basis Set: (AUG-CC-PVTZ AUX)
    Blend: AUG-CC-PVTZ-JKFIT

    Orbital Energies [Eh]
    ---------------------

    Doubly Occupied:

       1A    -79.622000     2A    -79.557293     3A    -20.154142
       4A    -20.077138     5A    -20.055988     6A    -20.053334
       7A    -19.997826     8A    -19.997389     9A    -19.995952
      10A    -10.917734    11A     -7.136251    12A     -7.071090
      13A     -5.035523    14A     -5.033991    15A     -5.033279
      16A     -4.970629    17A     -4.968229    18A     -4.968098
      19A     -0.966350    20A     -0.883852    21A     -0.842738
      22A     -0.807282    23A     -0.796115    24A     -0.740299
      25A     -0.738858    26A     -0.560910    27A     -0.335419
      28A     -0.279617    29A     -0.257440    30A     -0.225339
      31A     -0.188434    32A     -0.145946    33A     -0.143561
      34A     -0.116049    35A     -0.090376    36A     -0.087670
      37A     -0.065075    38A     -0.057226    39A     -0.041964
      40A     -0.038169    41A     -0.024234    42A      0.004972
      43A      0.019869    44A      0.024141    45A      0.027046
      46A      0.028994    47A      0.066790    48A      0.070211
      49A      0.094600

  @DF-RHF Final Energy: -1245.34378132790312

   => Energetics <=

    Nuclear Repulsion Energy =            820.2792500119834358
    One-Electron Energy =               -3405.7616950808337606
    Two-Electron Energy =                1340.1386637409470950
    Total Energy =                      -1245.3437813279031161
  Basis Set: (AUG-CC-PVTZ AUX)
    Blend: AUG-CC-PVTZ-RI
    Molecular point group: c1

    Geometry (in Angstrom), charge = -3, multiplicity = 1:

       Center              X                  Y                   Z               Mass
    ------------   -----------------  -----------------  -----------------  -----------------
         P            1.254022822348    -0.576927067533     0.014230827771    30.973761998420
         P           -1.786851577652     0.196406232467     0.003402627771    30.973761998420
         O            1.403326422348     1.048692232467    -0.373009372229    15.994914619570
         O           -0.341275577652    -0.799368767533    -0.195857372229    15.994914619570
         O            1.974685422348    -1.382874767533    -1.048088372229    15.994914619570
         O            1.664191422348    -0.751494767533     1.455986627771    15.994914619570
         O           -1.785904577652     1.123181232467    -1.218914372229    15.994914619570
         O           -1.608887577652     0.887882232467     1.363755627771    15.994914619570
         O           -2.849555577652    -0.909490767533    -0.029320372229    15.994914619570
         C            2.676666422348     1.585738532467    -0.004154272229    12.000000000000
         H            2.782325422348     1.643959232467     1.078098627771     1.007825032230
         H            3.495279422348     1.000502232467    -0.420588372229     1.007825032230
         H            2.722554422348     2.603363232467    -0.428693372229     1.007825032230

  Basis Set: AUG-CC-PVTZ
    Blend: AUG-CC-PVTZ
  Basis Set: (AUG-CC-PVTZ AUX)
    Blend: AUG-CC-PVTZ-JKFIT
	 Reference Energy          =   -1245.3437813279031161 [Eh]
	 Singles Energy            =      -0.0000000000000000 [Eh]
	 Same-Spin Energy          =      -0.6460731816792272 [Eh]
	 Opposite-Spin Energy      =      -1.8064522554613713 [Eh]
	 Correlation Energy        =      -2.4525254371405985 [Eh]
	 Total Energy              =   -1247.7963067650437097 [Eh]

	 ================> DF-SCS-MP2 Energies <==================
	-----------------------------------------------------------
	 SCS Same-Spin Scale       =       0.3333333333333333 [-]
	 SCS Opposite-Spin Scale   =       1.2000000000000000 [-]
	 SCS Same-Spin Energy      =      -0.2153577272264091 [Eh]
	 SCS Opposite-Spin Energy  =      -2.1677427065536454 [Eh]
	 SCS Correlation Energy    =      -2.3831004337800543 [Eh]
	 SCS Total Energy          =   -1247.7268817616832166 [Eh]
	-----------------------------------------------------------

  Dipole Moment: [D]
     X:     8.1456      Y:     2.2721      Z:    -0.3935     Total:     8.4657

*** Psi4 exiting successfully. Buy a developer a beer!
