                               Psi4 1.3.2 release

  ==> Input File <==

--------------------------------------------------------------------------
#psi4
#
memory 32 gb

molecule  {
-3 1
  P        1.1881135    -0.5805203     0.0168689
  P       -1.8164070     0.1898783     0.0125168
  O        1.3559990     1.0186560    -0.3729610
  O       -0.3886030    -0.8294050    -0.1958090
  O        1.9273580    -1.4129110    -1.0480400
  O        1.6168640    -0.7815310     1.4560350
  O       -1.8332320     1.0931450    -1.2188660
  O       -1.6562150     0.8578460     1.3638040
  O       -2.8968830    -0.9395270    -0.0292720
  C        2.6258790     1.5668310    -0.0085760
  H        2.7349980     1.6139230     1.0781470
  H        3.4479520     0.9704660    -0.4205400
  H        2.6752270     2.5733270    -0.4286450
units angstrom
no_reorient  #important for SAPT in psi4, default
symmetry c1  #important for SAPT in psi4, default
}

set PROPERTIES_ORIGIN ["COM"]
properties('MP2/aug-cc-pvtz', properties = ['dipole'])
--------------------------------------------------------------------------

    Molecular point group: c1
  Charge       = -3
  Multiplicity = 1
  Basis Set: AUG-CC-PVTZ
    Blend: AUG-CC-PVTZ
  Basis Set: (AUG-CC-PVTZ AUX)
    Blend: AUG-CC-PVTZ-JKFIT

    Orbital Energies [Eh]
    ---------------------

    Doubly Occupied:

       1A    -79.622650     2A    -79.559254     3A    -20.159854
       4A    -20.081910     5A    -20.051615     6A    -20.050178
       7A    -20.002060     8A    -20.001113     9A    -19.993177
      10A    -10.921882    11A     -7.136626    12A     -7.073191
      13A     -5.035974    14A     -5.034436    15A     -5.033515
      16A     -4.972718    17A     -4.970343    18A     -4.970155
      19A     -0.974869    20A     -0.887444    21A     -0.839287
      22A     -0.802326    23A     -0.794456    24A     -0.749547
      25A     -0.731149    26A     -0.567099    27A     -0.340346
      28A     -0.284569    29A     -0.259912    30A     -0.235259
      31A     -0.187298    32A     -0.148181    33A     -0.143421
      34A     -0.116935    35A     -0.093874    36A     -0.089948
      37A     -0.066670    38A     -0.058055    39A     -0.044390
      40A     -0.034413    41A     -0.020816    42A      0.008371
      43A      0.021879    44A      0.023550    45A      0.025888
      46A      0.030907    47A      0.063370    48A      0.070520
      49A      0.093872

  @DF-RHF Final Energy: -1245.34269382957791

   => Energetics <=

    Nuclear Repulsion Energy =            821.3140910830641133
    One-Electron Energy =               -3407.7084546173146009
    Two-Electron Energy =                1341.0516697046723493
    Total Energy =                      -1245.3426938295779109
  Basis Set: (AUG-CC-PVTZ AUX)
    Blend: AUG-CC-PVTZ-RI
    Molecular point group: c1

    Geometry (in Angstrom), charge = -3, multiplicity = 1:

       Center              X                  Y                   Z               Mass
    ------------   -----------------  -----------------  -----------------  -----------------
         P            1.235793453686    -0.559379828016     0.015193656996    30.973761998420
         P           -1.768727046314     0.211018771984     0.010841556996    30.973761998420
         O            1.403678953686     1.039796471984    -0.374636243004    15.994914619570
         O           -0.340923046314    -0.808264528016    -0.197484243004    15.994914619570
         O            1.975037953686    -1.391770528016    -1.049715243004    15.994914619570
         O            1.664543953686    -0.760390528016     1.454359756996    15.994914619570
         O           -1.785552046314     1.114285471984    -1.220541243004    15.994914619570
         O           -1.608535046314     0.878986471984     1.362128756996    15.994914619570
         O           -2.849203046314    -0.918386528016    -0.030947243004    15.994914619570
         C            2.673558953686     1.587971471984    -0.010251243004    12.000000000000
         H            2.782677953686     1.635063471984     1.076471756996     1.007825032230
         H            3.495631953686     0.991606471984    -0.422215243004     1.007825032230
         H            2.722906953686     2.594467471984    -0.430320243004     1.007825032230

  Basis Set: AUG-CC-PVTZ
    Blend: AUG-CC-PVTZ
  Basis Set: (AUG-CC-PVTZ AUX)
    Blend: AUG-CC-PVTZ-JKFIT
	 Reference Energy          =   -1245.3426938295779109 [Eh]
	 Singles Energy            =      -0.0000000000000000 [Eh]
	 Same-Spin Energy          =      -0.6462757708339921 [Eh]
	 Opposite-Spin Energy      =      -1.8068231787716142 [Eh]
	 Correlation Energy        =      -2.4530989496056064 [Eh]
	 Total Energy              =   -1247.7957927791835573 [Eh]

	 ================> DF-SCS-MP2 Energies <==================
	-----------------------------------------------------------
	 SCS Same-Spin Scale       =       0.3333333333333333 [-]
	 SCS Opposite-Spin Scale   =       1.2000000000000000 [-]
	 SCS Same-Spin Energy      =      -0.2154252569446640 [Eh]
	 SCS Opposite-Spin Energy  =      -2.1681878145259370 [Eh]
	 SCS Correlation Energy    =      -2.3836130714706010 [Eh]
	 SCS Total Energy          =   -1247.7263069010484742 [Eh]
	-----------------------------------------------------------

  Dipole Moment: [D]
     X:     8.1377      Y:     3.0003      Z:    -0.2223     Total:     8.6760

*** Psi4 exiting successfully. Buy a developer a beer!
