                               Psi4 1.3.2 release

  ==> Input File <==

--------------------------------------------------------------------------
#psi4
#
memory 32 gb

molecule  {
-3 1
  P        1.1931290    -0.6069630     0.0087730
  P       -1.8341790     0.1663700     0.0034510
  O        1.3559990     1.0186560    -0.3729610
  O       -0.3911456    -0.8209020    -0.1849133
  O        1.9389212    -1.4086334    -1.0431855
  O        1.6168640    -0.7815310     1.4560350
  O       -1.8332320     1.0931450    -1.2188660
  O       -1.6562150     0.8578460     1.3638040
  O       -2.8968830    -0.9395270    -0.0292720
  C        2.6258790     1.5668310    -0.0085760
  H        2.7349980     1.6139230     1.0781470
  H        3.4479520     0.9704660    -0.4205400
  H        2.6752270     2.5733270    -0.4286450
units angstrom
no_reorient  #important for SAPT in psi4, default
symmetry c1  #important for SAPT in psi4, default
}

set PROPERTIES_ORIGIN ["COM"]
properties('MP2/aug-cc-pvtz', properties = ['dipole'])
--------------------------------------------------------------------------

    Molecular point group: c1
  Charge       = -3
  Multiplicity = 1
  Basis Set: AUG-CC-PVTZ
    Blend: AUG-CC-PVTZ
  Basis Set: (AUG-CC-PVTZ AUX)
    Blend: AUG-CC-PVTZ-JKFIT

    Orbital Energies [Eh]
    ---------------------

    Doubly Occupied:

       1A    -79.622720     2A    -79.558648     3A    -20.152513
       4A    -20.081325     5A    -20.055929     6A    -20.050175
       7A    -19.999006     8A    -19.998615     9A    -19.996250
      10A    -10.916773    11A     -7.136695    12A     -7.072493
      13A     -5.036025    14A     -5.034470    15A     -5.033688
      16A     -4.972075    17A     -4.969618    18A     -4.969478
      19A     -0.965171    20A     -0.887601    21A     -0.842215
      22A     -0.802900    23A     -0.799192    24A     -0.741580
      25A     -0.739610    26A     -0.560365    27A     -0.337228
      28A     -0.283158    29A     -0.253865    30A     -0.228256
      31A     -0.187042    32A     -0.147551    33A     -0.143977
      34A     -0.114504    35A     -0.093535    36A     -0.089029
      37A     -0.063054    38A     -0.057267    39A     -0.043151
      40A     -0.038588    41A     -0.022623    42A      0.007379
      43A      0.021174    44A      0.022533    45A      0.026168
      46A      0.027847    47A      0.065460    48A      0.069145
      49A      0.093696

  @DF-RHF Final Energy: -1245.34576630893298

   => Energetics <=

    Nuclear Repulsion Energy =            820.6758133227458529
    One-Electron Energy =               -3406.5140485293768506
    Two-Electron Energy =                1340.4924688976980178
    Total Energy =                      -1245.3457663089329799
  Basis Set: (AUG-CC-PVTZ AUX)
    Blend: AUG-CC-PVTZ-RI
    Molecular point group: c1

    Geometry (in Angstrom), charge = -3, multiplicity = 1:

       Center              X                  Y                   Z               Mass
    ------------   -----------------  -----------------  -----------------  -----------------
         P            1.242136566544    -0.578715623912     0.008577835928    30.973761998420
         P           -1.785171433456     0.194617376088     0.003255835928    30.973761998420
         O            1.405006566544     1.046903376088    -0.373156164072    15.994914619570
         O           -0.342138033456    -0.792654623912    -0.185108464072    15.994914619570
         O            1.987928766544    -1.380386023912    -1.043380664072    15.994914619570
         O            1.665871566544    -0.753283623912     1.455839835928    15.994914619570
         O           -1.784224433457     1.121392376088    -1.219061164072    15.994914619570
         O           -1.607207433456     0.886093376088     1.363608835928    15.994914619570
         O           -2.847875433456    -0.911279623912    -0.029467164072    15.994914619570
         C            2.674886566543     1.595078376088    -0.008771164072    12.000000000000
         H            2.784005566543     1.642170376088     1.077951835928     1.007825032230
         H            3.496959566544     0.998713376088    -0.420735164072     1.007825032230
         H            2.724234566544     2.601574376088    -0.428840164072     1.007825032230

  Basis Set: AUG-CC-PVTZ
    Blend: AUG-CC-PVTZ
  Basis Set: (AUG-CC-PVTZ AUX)
    Blend: AUG-CC-PVTZ-JKFIT
	 Reference Energy          =   -1245.3457663089329799 [Eh]
	 Singles Energy            =      -0.0000000000000000 [Eh]
	 Same-Spin Energy          =      -0.6459504111812648 [Eh]
	 Opposite-Spin Energy      =      -1.8060883228585929 [Eh]
	 Correlation Energy        =      -2.4520387340398577 [Eh]
	 Total Energy              =   -1247.7978050429728683 [Eh]

	 ================> DF-SCS-MP2 Energies <==================
	-----------------------------------------------------------
	 SCS Same-Spin Scale       =       0.3333333333333333 [-]
	 SCS Opposite-Spin Scale   =       1.2000000000000000 [-]
	 SCS Same-Spin Energy      =      -0.2153168037270883 [Eh]
	 SCS Opposite-Spin Energy  =      -2.1673059874303116 [Eh]
	 SCS Correlation Energy    =      -2.3826227911573996 [Eh]
	 SCS Total Energy          =   -1247.7283891000904532 [Eh]
	-----------------------------------------------------------

  Dipole Moment: [D]
     X:     7.9286      Y:     2.2913      Z:    -0.5073     Total:     8.2686

*** Psi4 exiting successfully. Buy a developer a beer!
