                               Psi4 1.3.2 release

  ==> Input File <==

--------------------------------------------------------------------------
#psi4
#
memory 32 gb

molecule  {
-3 1
  P        1.1931290    -0.6069630     0.0087730
  P       -1.8341790     0.1663700     0.0034510
  O        1.3559990     1.0186560    -0.3729610
  O       -0.3886030    -0.8294050    -0.1958090
  O        1.9273580    -1.4129110    -1.0480400
  O        1.6168640    -0.7815310     1.4560350
  O       -1.8332320     1.0931450    -1.2188660
  O       -1.6562150     0.8578460     1.3638040
  O       -2.8968830    -0.9395270    -0.0292720
  C        2.6258790     1.5668310    -0.0085760
  H        2.6875716     1.6459059     1.0800161
  H        3.4261328     0.9792971    -0.4728683
  H        2.6752270     2.5733270    -0.4286450
units angstrom
no_reorient  #important for SAPT in psi4, default
symmetry c1  #important for SAPT in psi4, default
}

set PROPERTIES_ORIGIN ["COM"]
properties('MP2/aug-cc-pvtz', properties = ['dipole'])
--------------------------------------------------------------------------

    Molecular point group: c1
  Charge       = -3
  Multiplicity = 1
  Basis Set: AUG-CC-PVTZ
    Blend: AUG-CC-PVTZ
  Basis Set: (AUG-CC-PVTZ AUX)
    Blend: AUG-CC-PVTZ-JKFIT

    Orbital Energies [Eh]
    ---------------------

    Doubly Occupied:

       1A    -79.621671     2A    -79.558983     3A    -20.151245
       4A    -20.080307     5A    -20.054676     6A    -20.050523
       7A    -19.999123     8A    -19.998672     9A    -19.997195
      10A    -10.916878    11A     -7.135711    12A     -7.072793
      13A     -5.035011    14A     -5.033500    15A     -5.032701
      16A     -4.972356    17A     -4.969910    18A     -4.969779
      19A     -0.964767    20A     -0.886374    21A     -0.841345
      22A     -0.802712    23A     -0.798772    24A     -0.741606
      25A     -0.740111    26A     -0.559748    27A     -0.333736
      28A     -0.279482    29A     -0.262136    30A     -0.228038
      31A     -0.185290    32A     -0.147083    33A     -0.143782
      34A     -0.110773    35A     -0.092633    36A     -0.088743
      37A     -0.063843    38A     -0.057477    39A     -0.042807
      40A     -0.037865    41A     -0.021860    42A      0.007589
      43A      0.021192    44A      0.022814    45A      0.025953
      46A      0.028410    47A      0.065245    48A      0.068686
      49A      0.093382

  @DF-RHF Final Energy: -1245.34417302112070

   => Energetics <=

    Nuclear Repulsion Energy =            820.5100222183078813
    One-Electron Energy =               -3406.2109019523531970
    Two-Electron Energy =                1340.3567067129247334
    Total Energy =                      -1245.3441730211206959
  Basis Set: (AUG-CC-PVTZ AUX)
    Blend: AUG-CC-PVTZ-RI
    Molecular point group: c1

    Geometry (in Angstrom), charge = -3, multiplicity = 1:

       Center              X                  Y                   Z               Mass
    ------------   -----------------  -----------------  -----------------  -----------------
         P            1.243269605531    -0.577851353724     0.010180379161    30.973761998420
         P           -1.784038394469     0.195481646276     0.004858379161    30.973761998420
         O            1.406139605531     1.047767646276    -0.371553620839    15.994914619570
         O           -0.338462394469    -0.800293353724    -0.194401620839    15.994914619570
         O            1.977498605531    -1.383799353724    -1.046632620839    15.994914619570
         O            1.667004605531    -0.752419353724     1.457442379161    15.994914619570
         O           -1.783091394469     1.122256646276    -1.217458620839    15.994914619570
         O           -1.606074394469     0.886957646276     1.365211379161    15.994914619570
         O           -2.846742394469    -0.910415353724    -0.027864620839    15.994914619570
         C            2.676019605531     1.595942646276    -0.007168620839    12.000000000000
         H            2.737712205531     1.675017546276     1.081423479161     1.007825032230
         H            3.476273405531     1.008408746276    -0.471460920839     1.007825032230
         H            2.725367605531     2.602438646276    -0.427237620839     1.007825032230

  Basis Set: AUG-CC-PVTZ
    Blend: AUG-CC-PVTZ
  Basis Set: (AUG-CC-PVTZ AUX)
    Blend: AUG-CC-PVTZ-JKFIT
	 Reference Energy          =   -1245.3441730211206959 [Eh]
	 Singles Energy            =      -0.0000000000000000 [Eh]
	 Same-Spin Energy          =      -0.6460316408920879 [Eh]
	 Opposite-Spin Energy      =      -1.8063573084548787 [Eh]
	 Correlation Energy        =      -2.4523889493469664 [Eh]
	 Total Energy              =   -1247.7965619704675646 [Eh]

	 ================> DF-SCS-MP2 Energies <==================
	-----------------------------------------------------------
	 SCS Same-Spin Scale       =       0.3333333333333333 [-]
	 SCS Opposite-Spin Scale   =       1.2000000000000000 [-]
	 SCS Same-Spin Energy      =      -0.2153438802973626 [Eh]
	 SCS Opposite-Spin Energy  =      -2.1676287701458543 [Eh]
	 SCS Correlation Energy    =      -2.3829726504432172 [Eh]
	 SCS Total Energy          =   -1247.7271456715639033 [Eh]
	-----------------------------------------------------------

  Dipole Moment: [D]
     X:     7.9111      Y:     2.3537      Z:    -0.4831     Total:     8.2679

*** Psi4 exiting successfully. Buy a developer a beer!
