                               Psi4 1.4a3.dev225

  ==> Input File <==

--------------------------------------------------------------------------
#psi4
#
memory 32 gb

molecule  {
-3 1
  P       -1.1253500     0.3591720     0.0081310
  P        2.0878660    -0.1053470     0.0007630
  O       -2.1391380    -1.0979190    -0.1147190
  O        0.2405970    -0.4148950    -0.1339660
  O       -1.5628960     1.1822930    -1.2021870
  O       -1.4752280     0.9069340     1.3887990
  O        2.4385690    -0.8874190     1.2758270
  O        2.1975343     1.4012293     0.0857871
  O        2.5676630    -0.7478960    -1.3107960
  C       -3.4907010    -0.7724380    -0.0147870
  H       -3.7335280    -0.2943150     0.9495100
  H       -3.8114220    -0.0788120    -0.8111520
  H       -4.0969940    -1.6975630    -0.1019980
units angstrom
no_reorient  #important for SAPT in psi4, default
symmetry c1  #important for SAPT in psi4, default
}

set PROPERTIES_ORIGIN ["COM"]
properties('MP2/aug-cc-pvtz', properties = ['dipole'])
--------------------------------------------------------------------------

    Molecular point group: c1
  Charge       = -3
  Multiplicity = 1
  Basis Set: AUG-CC-PVTZ
    Blend: AUG-CC-PVTZ
  Basis Set: (AUG-CC-PVTZ AUX)
    Blend: AUG-CC-PVTZ-JKFIT

    Orbital Energies [Eh]
    ---------------------

    Doubly Occupied:

       1A    -79.628465     2A    -79.581868     3A    -20.145008
       4A    -20.087251     5A    -20.055691     6A    -20.055298
       7A    -20.020864     8A    -20.020768     9A    -20.020723
      10A    -10.910847    11A     -7.141381    12A     -7.095894
      13A     -5.040835    14A     -5.038976    15A     -5.038168
      16A     -4.995543    17A     -4.992698    18A     -4.992503
      19A     -0.955404    20A     -0.886919    21A     -0.848774
      22A     -0.816514    23A     -0.801179    24A     -0.766965
      25A     -0.760513    26A     -0.542375    27A     -0.333587
      28A     -0.267679    29A     -0.245860    30A     -0.211657
      31A     -0.203860    32A     -0.156605    33A     -0.142654
      34A     -0.117413    35A     -0.098702    36A     -0.097766
      37A     -0.079960    38A     -0.052989    39A     -0.048477
      40A     -0.029974    41A     -0.013573    42A     -0.001003
      43A      0.000784    44A      0.002940    45A      0.008288
      46A      0.022265    47A      0.041897    48A      0.049307
      49A      0.071543

  @DF-RHF Final Energy: -1245.34267541146642

   => Energetics <=

    Nuclear Repulsion Energy =            797.8324531975039235
    One-Electron Energy =               -3360.0579378173415535
    Two-Electron Energy =                1316.8828092083710999
    Total Energy =                      -1245.3426754114664163
  Basis Set: (AUG-CC-PVTZ AUX)
    Blend: AUG-CC-PVTZ-RI
    Molecular point group: c1

    Geometry (in Angstrom), charge = -3, multiplicity = 1:

       Center              X                  Y                   Z               Mass
    ------------   -----------------  -----------------  -----------------  -----------------
         P           -1.191263420935     0.348685548844     0.008370976240    30.973761998420
         P            2.021952579065    -0.115833451156     0.001002976240    30.973761998420
         O           -2.205051420935    -1.108405451156    -0.114479023760    15.994914619570
         O            0.174683579065    -0.425381451156    -0.133726023760    15.994914619570
         O           -1.628809420935     1.171806548844    -1.201947023760    15.994914619570
         O           -1.541141420935     0.896447548844     1.389038976240    15.994914619570
         O            2.372655579065    -0.897905451156     1.276066976240    15.994914619570
         O            2.131620879065     1.390742848844     0.086027076240    15.994914619570
         O            2.501749579065    -0.758382451156    -1.310556023760    15.994914619570
         C           -3.556614420935    -0.782924451156    -0.014547023760    12.000000000000
         H           -3.799441420935    -0.304801451156     0.949749976240     1.007825032230
         H           -3.877335420935    -0.089298451156    -0.810912023760     1.007825032230
         H           -4.162907420935    -1.708049451156    -0.101758023760     1.007825032230

  Basis Set: AUG-CC-PVTZ
    Blend: AUG-CC-PVTZ
  Basis Set: (AUG-CC-PVTZ AUX)
    Blend: AUG-CC-PVTZ-JKFIT
	 Reference Energy          =   -1245.3426754114664163 [Eh]
	 Singles Energy            =      -0.0000000000000000 [Eh]
	 Same-Spin Energy          =      -0.6471085805615484 [Eh]
	 Opposite-Spin Energy      =      -1.8091826444992671 [Eh]
	 Correlation Energy        =      -2.4562912250608155 [Eh]
	 Total Energy              =   -1247.7989666365272114 [Eh]

	 ================> DF-SCS-MP2 Energies <==================
	-----------------------------------------------------------
	 SCS Same-Spin Scale       =       0.3333333333333333 [-]
	 SCS Opposite-Spin Scale   =       1.2000000000000000 [-]
	 SCS Same-Spin Energy      =      -0.2157028601871828 [Eh]
	 SCS Opposite-Spin Energy  =      -2.1710191733991206 [Eh]
	 SCS Correlation Energy    =      -2.3867220335863033 [Eh]
	 SCS Total Energy          =   -1247.7293974450526548 [Eh]
	-----------------------------------------------------------

  Dipole Moment: [D]
     X:    -7.6724      Y:    -1.6852      Z:    -0.1622     Total:     7.8570

*** Psi4 exiting successfully. Buy a developer a beer!
