                               Psi4 1.3.2 release

  ==> Input File <==

--------------------------------------------------------------------------
#psi4
#
memory 32 gb

molecule  {
-3 1
  P        1.1931290    -0.6069630     0.0087730
  P       -1.8341790     0.1663700     0.0034510
  O        1.3450973     1.0139494    -0.3244680
  O       -0.3886030    -0.8294050    -0.1958090
  O        1.9273580    -1.4129110    -1.0480400
  O        1.6168640    -0.7815310     1.4560350
  O       -1.8332320     1.0931450    -1.2188660
  O       -1.6562150     0.8578460     1.3638040
  O       -2.8968830    -0.9395270    -0.0292720
  C        2.6258790     1.5668310    -0.0085760
  H        2.7001113     1.5988631     1.0816327
  H        3.4479520     0.9704660    -0.4205400
  H        2.6752270     2.5733270    -0.4286450
units angstrom
no_reorient  #important for SAPT in psi4, default
symmetry c1  #important for SAPT in psi4, default
}

set PROPERTIES_ORIGIN ["COM"]
properties('MP2/aug-cc-pvtz', properties = ['dipole'])
--------------------------------------------------------------------------

    Molecular point group: c1
  Charge       = -3
  Multiplicity = 1
  Basis Set: AUG-CC-PVTZ
    Blend: AUG-CC-PVTZ
  Basis Set: (AUG-CC-PVTZ AUX)
    Blend: AUG-CC-PVTZ-JKFIT

    Orbital Energies [Eh]
    ---------------------

    Doubly Occupied:

       1A    -79.620234     2A    -79.558627     3A    -20.151702
       4A    -20.079427     5A    -20.055442     6A    -20.047527
       7A    -19.999052     8A    -19.998348     9A    -19.996625
      10A    -10.917789    11A     -7.134461    12A     -7.072431
      13A     -5.033803    14A     -5.032267    15A     -5.031442
      16A     -4.971991    17A     -4.969551    18A     -4.969419
      19A     -0.968229    20A     -0.885737    21A     -0.840751
      22A     -0.801625    23A     -0.798342    24A     -0.741416
      25A     -0.739651    26A     -0.561944    27A     -0.336156
      28A     -0.282103    29A     -0.257693    30A     -0.230967
      31A     -0.185724    32A     -0.147084    33A     -0.143747
      34A     -0.113333    35A     -0.092321    36A     -0.088606
      37A     -0.062518    38A     -0.057086    39A     -0.042302
      40A     -0.037432    41A     -0.022295    42A      0.009164
      43A      0.022064    44A      0.023055    45A      0.026304
      46A      0.028960    47A      0.065577    48A      0.069079
      49A      0.093697

  @DF-RHF Final Energy: -1245.34495226420358

   => Energetics <=

    Nuclear Repulsion Energy =            821.3221598179502507
    One-Electron Energy =               -3407.8556242122394906
    Two-Electron Energy =                1341.1885121300856554
    Total Energy =                      -1245.3449522642035845
  Basis Set: (AUG-CC-PVTZ AUX)
    Blend: AUG-CC-PVTZ-RI
    Molecular point group: c1

    Geometry (in Angstrom), charge = -3, multiplicity = 1:

       Center              X                  Y                   Z               Mass
    ------------   -----------------  -----------------  -----------------  -----------------
         P            1.244009244583    -0.577154857571     0.005787298727    30.973761998420
         P           -1.783298755417     0.196178142429     0.000465298727    30.973761998420
         O            1.395977544583     1.043757542429    -0.327453701273    15.994914619570
         O           -0.337722755417    -0.799596857571    -0.198794701273    15.994914619570
         O            1.978238244583    -1.383102857571    -1.051025701273    15.994914619570
         O            1.667744244583    -0.751722857571     1.453049298727    15.994914619570
         O           -1.782351755417     1.122953142429    -1.221851701273    15.994914619570
         O           -1.605334755417     0.887654142429     1.360818298727    15.994914619570
         O           -2.846002755417    -0.909718857571    -0.032257701273    15.994914619570
         C            2.676759244583     1.596639142429    -0.011561701273    12.000000000000
         H            2.750991544583     1.628671242429     1.078646998727     1.007825032230
         H            3.498832244583     1.000274142429    -0.423525701273     1.007825032230
         H            2.726107244583     2.603135142429    -0.431630701273     1.007825032230

  Basis Set: AUG-CC-PVTZ
    Blend: AUG-CC-PVTZ
  Basis Set: (AUG-CC-PVTZ AUX)
    Blend: AUG-CC-PVTZ-JKFIT
	 Reference Energy          =   -1245.3449522642035845 [Eh]
	 Singles Energy            =      -0.0000000000000000 [Eh]
	 Same-Spin Energy          =      -0.6459019975909346 [Eh]
	 Opposite-Spin Energy      =      -1.8058513496672517 [Eh]
	 Correlation Energy        =      -2.4517533472581863 [Eh]
	 Total Energy              =   -1247.7967056114616753 [Eh]

	 ================> DF-SCS-MP2 Energies <==================
	-----------------------------------------------------------
	 SCS Same-Spin Scale       =       0.3333333333333333 [-]
	 SCS Opposite-Spin Scale   =       1.2000000000000000 [-]
	 SCS Same-Spin Energy      =      -0.2153006658636449 [Eh]
	 SCS Opposite-Spin Energy  =      -2.1670216196007019 [Eh]
	 SCS Correlation Energy    =      -2.3823222854643467 [Eh]
	 SCS Total Energy          =   -1247.7272745496679818 [Eh]
	-----------------------------------------------------------

  Dipole Moment: [D]
     X:     7.9551      Y:     2.3989      Z:    -0.5425     Total:     8.3266

*** Psi4 exiting successfully. Buy a developer a beer!
