                               Psi4 1.3.2 release

  ==> Input File <==

--------------------------------------------------------------------------
#psi4
#
memory 32 gb

molecule  {
-3 1
  P        1.1931290    -0.6069630     0.0087730
  P       -1.8341790     0.1663700     0.0034510
  O        1.3559990     1.0186560    -0.3729610
  O       -0.3953616    -0.8440027    -0.1695049
  O        1.9273580    -1.4129110    -1.0480400
  O        1.6168640    -0.7815310     1.4560350
  O       -1.8558617     1.1044099    -1.2100492
  O       -1.6562150     0.8578460     1.3638040
  O       -2.8968830    -0.9395270    -0.0292720
  C        2.6258790     1.5668310    -0.0085760
  H        2.7349980     1.6139230     1.0781470
  H        3.4479520     0.9704660    -0.4205400
  H        2.6752270     2.5733270    -0.4286450
units angstrom
no_reorient  #important for SAPT in psi4, default
symmetry c1  #important for SAPT in psi4, default
}

set PROPERTIES_ORIGIN ["COM"]
properties('MP2/aug-cc-pvtz', properties = ['dipole'])
--------------------------------------------------------------------------

    Molecular point group: c1
  Charge       = -3
  Multiplicity = 1
  Basis Set: AUG-CC-PVTZ
    Blend: AUG-CC-PVTZ
  Basis Set: (AUG-CC-PVTZ AUX)
    Blend: AUG-CC-PVTZ-JKFIT

    Orbital Energies [Eh]
    ---------------------

    Doubly Occupied:

       1A    -79.623361     2A    -79.558673     3A    -20.154520
       4A    -20.082012     5A    -20.056338     6A    -20.050395
       7A    -20.000412     8A    -19.997229     9A    -19.995494
      10A    -10.918243    11A     -7.137335    12A     -7.072494
      13A     -5.036622    14A     -5.035124    15A     -5.034301
      16A     -4.972032    17A     -4.969614    18A     -4.969484
      19A     -0.966285    20A     -0.886709    21A     -0.841758
      22A     -0.803381    23A     -0.798825    24A     -0.741357
      25A     -0.738929    26A     -0.561763    27A     -0.336525
      28A     -0.282586    29A     -0.255256    30A     -0.229700
      31A     -0.187083    32A     -0.147402    33A     -0.144052
      34A     -0.115310    35A     -0.092799    36A     -0.088865
      37A     -0.064330    38A     -0.058032    39A     -0.042773
      40A     -0.038197    41A     -0.023169    42A      0.007216
      43A      0.021799    44A      0.022584    45A      0.026035
      46A      0.028094    47A      0.065812    48A      0.069256
      49A      0.094160

  @DF-RHF Final Energy: -1245.34432622736472

   => Energetics <=

    Nuclear Repulsion Energy =            819.8992809208062909
    One-Electron Energy =               -3404.9395912302143188
    Two-Electron Energy =                1339.6959840820434238
    Total Energy =                      -1245.3443262273647179
  Basis Set: (AUG-CC-PVTZ AUX)
    Blend: AUG-CC-PVTZ-RI
    Molecular point group: c1

    Geometry (in Angstrom), charge = -3, multiplicity = 1:

       Center              X                  Y                   Z               Mass
    ------------   -----------------  -----------------  -----------------  -----------------
         P            1.245388191551    -0.577351493869     0.006937949012    30.973761998420
         P           -1.781919808449     0.195981506131     0.001615949012    30.973761998420
         O            1.408258191551     1.048267506131    -0.374796050988    15.994914619570
         O           -0.343102408449    -0.814391193869    -0.171339950988    15.994914619570
         O            1.979617191551    -1.383299493869    -1.049875050988    15.994914619570
         O            1.669123191551    -0.751919493869     1.454199949012    15.994914619570
         O           -1.803602508449     1.134021406131    -1.211884250988    15.994914619570
         O           -1.603955808449     0.887457506131     1.361968949012    15.994914619570
         O           -2.844623808449    -0.909915493869    -0.031107050988    15.994914619570
         C            2.678138191551     1.596442506131    -0.010411050988    12.000000000000
         H            2.787257191551     1.643534506131     1.076311949012     1.007825032230
         H            3.500211191551     1.000077506131    -0.422375050988     1.007825032230
         H            2.727486191551     2.602938506131    -0.430480050988     1.007825032230

  Basis Set: AUG-CC-PVTZ
    Blend: AUG-CC-PVTZ
  Basis Set: (AUG-CC-PVTZ AUX)
    Blend: AUG-CC-PVTZ-JKFIT
	 Reference Energy          =   -1245.3443262273647179 [Eh]
	 Singles Energy            =      -0.0000000000000000 [Eh]
	 Same-Spin Energy          =      -0.6460477853315931 [Eh]
	 Opposite-Spin Energy      =      -1.8064350584229498 [Eh]
	 Correlation Energy        =      -2.4524828437545430 [Eh]
	 Total Energy              =   -1247.7968090711192417 [Eh]

	 ================> DF-SCS-MP2 Energies <==================
	-----------------------------------------------------------
	 SCS Same-Spin Scale       =       0.3333333333333333 [-]
	 SCS Opposite-Spin Scale   =       1.2000000000000000 [-]
	 SCS Same-Spin Energy      =      -0.2153492617771977 [Eh]
	 SCS Opposite-Spin Energy  =      -2.1677220701075397 [Eh]
	 SCS Correlation Energy    =      -2.3830713318847376 [Eh]
	 SCS Total Energy          =   -1247.7273975592495390 [Eh]
	-----------------------------------------------------------

  Dipole Moment: [D]
     X:     8.0287      Y:     2.3295      Z:    -0.5322     Total:     8.3768

*** Psi4 exiting successfully. Buy a developer a beer!
