                               Psi4 1.3.2 release

  ==> Input File <==

--------------------------------------------------------------------------
#psi4
#
memory 32 gb

molecule  {
-3 1
  P        1.1931290    -0.6069630     0.0087730
  P       -1.8341790     0.1663700     0.0034510
  O        1.3559990     1.0186560    -0.3729610
  O       -0.3798624    -0.8167207    -0.1951900
  O        1.9273580    -1.4129110    -1.0480400
  O        1.6168640    -0.7815310     1.4560350
  O       -1.8332320     1.0931450    -1.2188660
  O       -1.6562150     0.8578460     1.3638040
  O       -2.9064516    -0.9302977    -0.0276958
  C        2.6258790     1.5668310    -0.0085760
  H        2.7349980     1.6139230     1.0781470
  H        3.4479520     0.9704660    -0.4205400
  H        2.6752270     2.5733270    -0.4286450
units angstrom
no_reorient  #important for SAPT in psi4, default
symmetry c1  #important for SAPT in psi4, default
}

set PROPERTIES_ORIGIN ["COM"]
properties('MP2/aug-cc-pvtz', properties = ['dipole'])
--------------------------------------------------------------------------

    Molecular point group: c1
  Charge       = -3
  Multiplicity = 1
  Basis Set: AUG-CC-PVTZ
    Blend: AUG-CC-PVTZ
  Basis Set: (AUG-CC-PVTZ AUX)
    Blend: AUG-CC-PVTZ-JKFIT

    Orbital Energies [Eh]
    ---------------------

    Doubly Occupied:

       1A    -79.621038     2A    -79.559778     3A    -20.151974
       4A    -20.080900     5A    -20.054429     6A    -20.050294
       7A    -19.999955     8A    -19.998981     9A    -19.996908
      10A    -10.916468    11A     -7.135232    12A     -7.073549
      13A     -5.034561    14A     -5.033040    15A     -5.032209
      16A     -4.973115    17A     -4.970669    18A     -4.970516
      19A     -0.965028    20A     -0.888315    21A     -0.841441
      22A     -0.802584    23A     -0.800281    24A     -0.742029
      25A     -0.740119    26A     -0.560033    27A     -0.337016
      28A     -0.283229    29A     -0.253579    30A     -0.228040
      31A     -0.186874    32A     -0.147657    33A     -0.144355
      34A     -0.114196    35A     -0.093510    36A     -0.088737
      37A     -0.062795    38A     -0.057323    39A     -0.043840
      40A     -0.038625    41A     -0.021859    42A      0.007525
      43A      0.020482    44A      0.022101    45A      0.025950
      46A      0.028199    47A      0.064593    48A      0.068617
      49A      0.093231

  @DF-RHF Final Energy: -1245.34634806605754

   => Energetics <=

    Nuclear Repulsion Energy =            820.7679659147866005
    One-Electron Energy =               -3406.6998616683194996
    Two-Electron Energy =                1340.5855476874753549
    Total Energy =                      -1245.3463480660575442
  Basis Set: (AUG-CC-PVTZ AUX)
    Blend: AUG-CC-PVTZ-RI
    Molecular point group: c1

    Geometry (in Angstrom), charge = -3, multiplicity = 1:

       Center              X                  Y                   Z               Mass
    ------------   -----------------  -----------------  -----------------  -----------------
         P            1.242970330438    -0.579488806460     0.009725376653    30.973761998420
         P           -1.784337669562     0.193844193540     0.004403376653    30.973761998420
         O            1.405840330438     1.046130193540    -0.372008623347    15.994914619570
         O           -0.330021069562    -0.789246506460    -0.194237623347    15.994914619570
         O            1.977199330438    -1.385436806460    -1.047087623347    15.994914619570
         O            1.666705330438    -0.754056806460     1.456987376653    15.994914619570
         O           -1.783390669562     1.120619193540    -1.217913623347    15.994914619570
         O           -1.606373669562     0.885320193540     1.364756376653    15.994914619570
         O           -2.856610269562    -0.902823506460    -0.026743423347    15.994914619570
         C            2.675720330438     1.594305193540    -0.007623623347    12.000000000000
         H            2.784839330438     1.641397193540     1.079099376653     1.007825032230
         H            3.497793330438     0.997940193540    -0.419587623347     1.007825032230
         H            2.725068330438     2.600801193540    -0.427692623347     1.007825032230

  Basis Set: AUG-CC-PVTZ
    Blend: AUG-CC-PVTZ
  Basis Set: (AUG-CC-PVTZ AUX)
    Blend: AUG-CC-PVTZ-JKFIT
	 Reference Energy          =   -1245.3463480660575442 [Eh]
	 Singles Energy            =      -0.0000000000000000 [Eh]
	 Same-Spin Energy          =      -0.6458794260380641 [Eh]
	 Opposite-Spin Energy      =      -1.8059174306403956 [Eh]
	 Correlation Energy        =      -2.4517968566784596 [Eh]
	 Total Energy              =   -1247.7981449227359008 [Eh]

	 ================> DF-SCS-MP2 Energies <==================
	-----------------------------------------------------------
	 SCS Same-Spin Scale       =       0.3333333333333333 [-]
	 SCS Opposite-Spin Scale   =       1.2000000000000000 [-]
	 SCS Same-Spin Energy      =      -0.2152931420126880 [Eh]
	 SCS Opposite-Spin Energy  =      -2.1671009167684745 [Eh]
	 SCS Correlation Energy    =      -2.3823940587811627 [Eh]
	 SCS Total Energy          =   -1247.7287421248386181 [Eh]
	-----------------------------------------------------------

  Dipole Moment: [D]
     X:     7.8670      Y:     2.2927      Z:    -0.4807     Total:     8.2083

*** Psi4 exiting successfully. Buy a developer a beer!
