                               Psi4 1.3.2 release

  ==> Input File <==

--------------------------------------------------------------------------
#psi4
#
memory 32 gb

molecule  {
-3 1
  P        1.1931290    -0.6069630     0.0087730
  P       -1.8341790     0.1663700     0.0034510
  O        1.3559990     1.0186560    -0.3729610
  O       -0.4433347    -0.9038850    -0.1992030
  O        1.9273580    -1.4129110    -1.0480400
  O        1.6168640    -0.7815310     1.4560350
  O       -1.8332320     1.0931450    -1.2188660
  O       -1.6562150     0.8578460     1.3638040
  O       -2.8377978    -0.9931099    -0.0386725
  C        2.6258790     1.5668310    -0.0085760
  H        2.7349980     1.6139230     1.0781470
  H        3.4479520     0.9704660    -0.4205400
  H        2.6752270     2.5733270    -0.4286450
units angstrom
no_reorient  #important for SAPT in psi4, default
symmetry c1  #important for SAPT in psi4, default
}

set PROPERTIES_ORIGIN ["COM"]
properties('MP2/aug-cc-pvtz', properties = ['dipole'])
--------------------------------------------------------------------------

    Molecular point group: c1
  Charge       = -3
  Multiplicity = 1
  Basis Set: AUG-CC-PVTZ
    Blend: AUG-CC-PVTZ
  Basis Set: (AUG-CC-PVTZ AUX)
    Blend: AUG-CC-PVTZ-JKFIT

    Orbital Energies [Eh]
    ---------------------

    Doubly Occupied:

       1A    -79.626783     2A    -79.555136     3A    -20.157694
       4A    -20.077975     5A    -20.056246     6A    -20.053684
       7A    -20.001007     8A    -19.999411     9A    -19.991409
      10A    -10.920399    11A     -7.140131    12A     -7.069226
      13A     -5.039298    14A     -5.037779    15A     -5.037110
      16A     -4.968789    17A     -4.966298    18A     -4.966281
      19A     -0.966731    20A     -0.876927    21A     -0.841520
      22A     -0.804625    23A     -0.789577    24A     -0.741809
      25A     -0.738125    26A     -0.563814    27A     -0.332589
      28A     -0.273475    29A     -0.257240    30A     -0.229758
      31A     -0.188172    32A     -0.145038    33A     -0.140025
      34A     -0.115618    35A     -0.088900    36A     -0.086165
      37A     -0.065598    38A     -0.059757    39A     -0.038476
      40A     -0.033251    41A     -0.023557    42A      0.006320
      43A      0.022163    44A      0.025037    45A      0.026063
      46A      0.032028    47A      0.068267    48A      0.070508
      49A      0.093832

  @DF-RHF Final Energy: -1245.33263964611569

   => Energetics <=

    Nuclear Repulsion Energy =            818.5219950372757012
    One-Electron Energy =               -3402.2669013057579832
    Two-Electron Energy =                1338.4122666223665874
    Total Energy =                      -1245.3326396461156946
  Basis Set: (AUG-CC-PVTZ AUX)
    Blend: AUG-CC-PVTZ-RI
    Molecular point group: c1

    Geometry (in Angstrom), charge = -3, multiplicity = 1:

       Center              X                  Y                   Z               Mass
    ------------   -----------------  -----------------  -----------------  -----------------
         P            1.242531674424    -0.566792078932     0.010994376374    30.973761998420
         P           -1.784776325576     0.206540921068     0.005672376374    30.973761998420
         O            1.405401674424     1.058826921068    -0.370739623626    15.994914619570
         O           -0.393932025576    -0.863714078932    -0.196981623626    15.994914619570
         O            1.976760674424    -1.372740078932    -1.045818623626    15.994914619570
         O            1.666266674424    -0.741360078932     1.458256376374    15.994914619570
         O           -1.783829325576     1.133315921068    -1.216644623626    15.994914619570
         O           -1.606812325576     0.898016921068     1.366025376374    15.994914619570
         O           -2.788395125576    -0.952938978932    -0.036451123626    15.994914619570
         C            2.675281674424     1.607001921068    -0.006354623626    12.000000000000
         H            2.784400674424     1.654093921068     1.080368376374     1.007825032230
         H            3.497354674424     1.010636921068    -0.418318623626     1.007825032230
         H            2.724629674424     2.613497921068    -0.426423623626     1.007825032230

  Basis Set: AUG-CC-PVTZ
    Blend: AUG-CC-PVTZ
  Basis Set: (AUG-CC-PVTZ AUX)
    Blend: AUG-CC-PVTZ-JKFIT
	 Reference Energy          =   -1245.3326396461156946 [Eh]
	 Singles Energy            =      -0.0000000000000000 [Eh]
	 Same-Spin Energy          =      -0.6472562585267765 [Eh]
	 Opposite-Spin Energy      =      -1.8094828819142585 [Eh]
	 Correlation Energy        =      -2.4567391404410350 [Eh]
	 Total Energy              =   -1247.7893787865566537 [Eh]

	 ================> DF-SCS-MP2 Energies <==================
	-----------------------------------------------------------
	 SCS Same-Spin Scale       =       0.3333333333333333 [-]
	 SCS Opposite-Spin Scale   =       1.2000000000000000 [-]
	 SCS Same-Spin Energy      =      -0.2157520861755922 [Eh]
	 SCS Opposite-Spin Energy  =      -2.1713794582971100 [Eh]
	 SCS Correlation Energy    =      -2.3871315444727021 [Eh]
	 SCS Total Energy          =   -1247.7197711905882898 [Eh]
	-----------------------------------------------------------

  Dipole Moment: [D]
     X:     8.1578      Y:     2.5651      Z:    -0.4190     Total:     8.5619

*** Psi4 exiting successfully. Buy a developer a beer!
