                               Psi4 1.3.2 release

  ==> Input File <==

--------------------------------------------------------------------------
#psi4
#
memory 32 gb

molecule  {
-3 1
  P        1.1931290    -0.6069630     0.0087730
  P       -1.8341790     0.1663700     0.0034510
  O        1.3559990     1.0186560    -0.3729610
  O       -0.3709769    -0.7838102    -0.2743251
  O        1.9273580    -1.4129110    -1.0480400
  O        1.6168640    -0.7815310     1.4560350
  O       -1.7653722     1.0576707    -1.2430723
  O       -1.6562150     0.8578460     1.3638040
  O       -2.8968830    -0.9395270    -0.0292720
  C        2.6258790     1.5668310    -0.0085760
  H        2.7349980     1.6139230     1.0781470
  H        3.4479520     0.9704660    -0.4205400
  H        2.6752270     2.5733270    -0.4286450
units angstrom
no_reorient  #important for SAPT in psi4, default
symmetry c1  #important for SAPT in psi4, default
}

set PROPERTIES_ORIGIN ["COM"]
properties('MP2/aug-cc-pvtz', properties = ['dipole'])
--------------------------------------------------------------------------

    Molecular point group: c1
  Charge       = -3
  Multiplicity = 1
  Basis Set: AUG-CC-PVTZ
    Blend: AUG-CC-PVTZ
  Basis Set: (AUG-CC-PVTZ AUX)
    Blend: AUG-CC-PVTZ-JKFIT

    Orbital Energies [Eh]
    ---------------------

    Doubly Occupied:

       1A    -79.618306     2A    -79.559880     3A    -20.148049
       4A    -20.075644     5A    -20.052351     6A    -20.050211
       7A    -20.003047     8A    -20.002240     9A    -19.995179
      10A    -10.913669    11A     -7.132492    12A     -7.073721
      13A     -5.031841    14A     -5.030253    15A     -5.029531
      16A     -4.973357    17A     -4.970856    18A     -4.970635
      19A     -0.961965    20A     -0.885080    21A     -0.840972
      22A     -0.802824    23A     -0.797217    24A     -0.744269
      25A     -0.741376    26A     -0.557281    27A     -0.334363
      28A     -0.279524    29A     -0.250914    30A     -0.224300
      31A     -0.187380    32A     -0.146956    33A     -0.141788
      34A     -0.111657    35A     -0.092224    36A     -0.087389
      37A     -0.059807    38A     -0.056467    39A     -0.043277
      40A     -0.037278    41A     -0.019517    42A      0.006999
      43A      0.018692    44A      0.022727    45A      0.026143
      46A      0.030370    47A      0.062166    48A      0.069834
      49A      0.091220

  @DF-RHF Final Energy: -1245.34380116210059

   => Energetics <=

    Nuclear Repulsion Energy =            821.9655984071213197
    One-Electron Energy =               -3409.2049257645526268
    Two-Electron Energy =                1341.8955261953306035
    Total Energy =                      -1245.3438011621005899
  Basis Set: (AUG-CC-PVTZ AUX)
    Blend: AUG-CC-PVTZ-RI
    Molecular point group: c1

    Geometry (in Angstrom), charge = -3, multiplicity = 1:

       Center              X                  Y                   Z               Mass
    ------------   -----------------  -----------------  -----------------  -----------------
         P            1.235663158513    -0.578490424864     0.018607502721    30.973761998420
         P           -1.791644841487     0.194842575136     0.013285502721    30.973761998420
         O            1.398533158513     1.047128575136    -0.363126497279    15.994914619570
         O           -0.328442741487    -0.755337624864    -0.264490597279    15.994914619570
         O            1.969892158513    -1.384438424864    -1.038205497279    15.994914619570
         O            1.659398158513    -0.753058424864     1.465869502721    15.994914619570
         O           -1.722838041487     1.086143275136    -1.233237797279    15.994914619570
         O           -1.613680841487     0.886318575136     1.373638502721    15.994914619570
         O           -2.854348841487    -0.911054424864    -0.019437497279    15.994914619570
         C            2.668413158513     1.595303575136     0.001258502721    12.000000000000
         H            2.777532158513     1.642395575136     1.087981502721     1.007825032230
         H            3.490486158513     0.998938575136    -0.410705497279     1.007825032230
         H            2.717761158513     2.601799575136    -0.418810497279     1.007825032230

  Basis Set: AUG-CC-PVTZ
    Blend: AUG-CC-PVTZ
  Basis Set: (AUG-CC-PVTZ AUX)
    Blend: AUG-CC-PVTZ-JKFIT
	 Reference Energy          =   -1245.3438011621005899 [Eh]
	 Singles Energy            =      -0.0000000000000000 [Eh]
	 Same-Spin Energy          =      -0.6463082816866781 [Eh]
	 Opposite-Spin Energy      =      -1.8067030655658818 [Eh]
	 Correlation Energy        =      -2.4530113472525601 [Eh]
	 Total Energy              =   -1247.7968125093532308 [Eh]

	 ================> DF-SCS-MP2 Energies <==================
	-----------------------------------------------------------
	 SCS Same-Spin Scale       =       0.3333333333333333 [-]
	 SCS Opposite-Spin Scale   =       1.2000000000000000 [-]
	 SCS Same-Spin Energy      =      -0.2154360938955593 [Eh]
	 SCS Opposite-Spin Energy  =      -2.1680436786790582 [Eh]
	 SCS Correlation Energy    =      -2.3834797725746175 [Eh]
	 SCS Total Energy          =   -1247.7272809346752638 [Eh]
	-----------------------------------------------------------

  Dipole Moment: [D]
     X:     7.5918      Y:     2.3344      Z:    -0.2907     Total:     7.9479

*** Psi4 exiting successfully. Buy a developer a beer!
