                               Psi4 1.3.2 release

  ==> Input File <==

--------------------------------------------------------------------------
#psi4
#
memory 32 gb

molecule  {
-3 1
  P        1.1931290    -0.6069630     0.0087730
  P       -1.8341790     0.1663700     0.0034510
  O        1.3559990     1.0186560    -0.3729610
  O       -0.2249490    -0.9421369    -0.2183673
  O        1.9273580    -1.4129110    -1.0480400
  O        1.6168640    -0.7815310     1.4560350
  O       -1.8332320     1.0931450    -1.2188660
  O       -1.6562150     0.8578460     1.3638040
  O       -2.8968830    -0.9395270    -0.0292720
  C        2.6258790     1.5668310    -0.0085760
  H        2.7349980     1.6139230     1.0781470
  H        3.4479520     0.9704660    -0.4205400
  H        2.6752270     2.5733270    -0.4286450
units angstrom
no_reorient  #important for SAPT in psi4, default
symmetry c1  #important for SAPT in psi4, default
}

set PROPERTIES_ORIGIN ["COM"]
properties('MP2/aug-cc-pvtz', properties = ['dipole'])
--------------------------------------------------------------------------

    Molecular point group: c1
  Charge       = -3
  Multiplicity = 1
  Basis Set: AUG-CC-PVTZ
    Blend: AUG-CC-PVTZ
  Basis Set: (AUG-CC-PVTZ AUX)
    Blend: AUG-CC-PVTZ-JKFIT

    Orbital Energies [Eh]
    ---------------------

    Doubly Occupied:

       1A    -79.584351     2A    -79.584138     3A    -20.143028
       4A    -20.066283     5A    -20.030481     6A    -20.024655
       7A    -20.022126     8A    -20.021051     9A    -20.019767
      10A    -10.909513    11A     -7.103366    12A     -7.097684
      13A     -5.002502    14A     -5.001435    15A     -4.999825
      16A     -4.997231    17A     -4.994291    18A     -4.994184
      19A     -0.959312    20A     -0.893279    21A     -0.841700
      22A     -0.801693    23A     -0.779946    24A     -0.761257
      25A     -0.759560    26A     -0.552301    27A     -0.316551
      28A     -0.270016    29A     -0.245680    30A     -0.224770
      31A     -0.184984    32A     -0.149427    33A     -0.137394
      34A     -0.105935    35A     -0.094997    36A     -0.091662
      37A     -0.071081    38A     -0.061268    39A     -0.038627
      40A     -0.027118    41A     -0.006948    42A      0.005270
      43A      0.006736    44A      0.017626    45A      0.032314
      46A      0.041981    47A      0.043779    48A      0.056383
      49A      0.073080

  @DF-RHF Final Energy: -1245.32624560629711

   => Energetics <=

    Nuclear Repulsion Energy =            819.8721665082030086
    One-Electron Energy =               -3405.0083289154813428
    Two-Electron Energy =                1339.8099168009812274
    Total Energy =                      -1245.3262456062971069
  Basis Set: (AUG-CC-PVTZ AUX)
    Blend: AUG-CC-PVTZ-RI
    Molecular point group: c1

    Geometry (in Angstrom), charge = -3, multiplicity = 1:

       Center              X                  Y                   Z               Mass
    ------------   -----------------  -----------------  -----------------  -----------------
         P            1.229045594647    -0.568089972467     0.011820961261    30.973761998420
         P           -1.798262405353     0.205243027533     0.006498961261    30.973761998420
         O            1.391915594647     1.057529027533    -0.369913038739    15.994914619570
         O           -0.189032405353    -0.903263872467    -0.215319338739    15.994914619570
         O            1.963274594647    -1.374037972467    -1.044992038739    15.994914619570
         O            1.652780594647    -0.742657972467     1.459082961261    15.994914619570
         O           -1.797315405353     1.132018027533    -1.215818038739    15.994914619570
         O           -1.620298405353     0.896719027533     1.366851961261    15.994914619570
         O           -2.860966405353    -0.900653972467    -0.026224038739    15.994914619570
         C            2.661795594647     1.605704027533    -0.005528038739    12.000000000000
         H            2.770914594647     1.652796027533     1.081194961261     1.007825032230
         H            3.483868594647     1.009339027533    -0.417492038739     1.007825032230
         H            2.711143594647     2.612200027533    -0.425597038739     1.007825032230

  Basis Set: AUG-CC-PVTZ
    Blend: AUG-CC-PVTZ
  Basis Set: (AUG-CC-PVTZ AUX)
    Blend: AUG-CC-PVTZ-JKFIT
	 Reference Energy          =   -1245.3262456062971069 [Eh]
	 Singles Energy            =      -0.0000000000000000 [Eh]
	 Same-Spin Energy          =      -0.6460777391984743 [Eh]
	 Opposite-Spin Energy      =      -1.8063036933158754 [Eh]
	 Correlation Energy        =      -2.4523814325143496 [Eh]
	 Total Energy              =   -1247.7786270388114644 [Eh]

	 ================> DF-SCS-MP2 Energies <==================
	-----------------------------------------------------------
	 SCS Same-Spin Scale       =       0.3333333333333333 [-]
	 SCS Opposite-Spin Scale   =       1.2000000000000000 [-]
	 SCS Same-Spin Energy      =      -0.2153592463994914 [Eh]
	 SCS Opposite-Spin Energy  =      -2.1675644319790504 [Eh]
	 SCS Correlation Energy    =      -2.3829236783785417 [Eh]
	 SCS Total Energy          =   -1247.7091692846756814 [Eh]
	-----------------------------------------------------------

  Dipole Moment: [D]
     X:     5.6999      Y:     2.9976      Z:    -0.3849     Total:     6.4515

*** Psi4 exiting successfully. Buy a developer a beer!
