                               Psi4 1.3.2 release

  ==> Input File <==

--------------------------------------------------------------------------
#psi4
#
memory 32 gb

molecule  {
-3 1
  P        1.1931290    -0.6069630     0.0087730
  P       -1.8341790     0.1663700     0.0034510
  O        1.2694875     1.0214406    -0.3879079
  O       -0.3950075    -0.7481315    -0.2172896
  O        1.9273580    -1.4129110    -1.0480400
  O        1.6168640    -0.7815310     1.4560350
  O       -1.8332320     1.0931450    -1.2188660
  O       -1.6562150     0.8578460     1.3638040
  O       -2.8968830    -0.9395270    -0.0292720
  C        2.6258790     1.5668310    -0.0085760
  H        2.7349980     1.6139230     1.0781470
  H        3.4479520     0.9704660    -0.4205400
  H        2.6752270     2.5733270    -0.4286450
units angstrom
no_reorient  #important for SAPT in psi4, default
symmetry c1  #important for SAPT in psi4, default
}

set PROPERTIES_ORIGIN ["COM"]
properties('MP2/aug-cc-pvtz', properties = ['dipole'])
--------------------------------------------------------------------------

    Molecular point group: c1
  Charge       = -3
  Multiplicity = 1
  Basis Set: AUG-CC-PVTZ
    Blend: AUG-CC-PVTZ
  Basis Set: (AUG-CC-PVTZ AUX)
    Blend: AUG-CC-PVTZ-JKFIT

    Orbital Energies [Eh]
    ---------------------

    Doubly Occupied:

       1A    -79.624347     2A    -79.552174     3A    -20.156139
       4A    -20.075413     5A    -20.059902     6A    -20.055905
       7A    -19.995400     8A    -19.990753     9A    -19.990355
      10A    -10.921774    11A     -7.138180    12A     -7.066198
      13A     -5.037676    14A     -5.035834    15A     -5.035241
      16A     -4.965841    17A     -4.963395    18A     -4.963240
      19A     -0.950864    20A     -0.881229    21A     -0.844201
      22A     -0.806989    23A     -0.795283    24A     -0.736758
      25A     -0.734040    26A     -0.565006    27A     -0.337723
      28A     -0.277734    29A     -0.245921    30A     -0.210927
      31A     -0.189936    32A     -0.149222    33A     -0.142434
      34A     -0.120470    35A     -0.090566    36A     -0.087695
      37A     -0.066350    38A     -0.053387    39A     -0.040127
      40A     -0.039346    41A     -0.025578    42A      0.003951
      43A      0.018381    44A      0.025773    45A      0.029909
      46A      0.031948    47A      0.070831    48A      0.075659
      49A      0.099026

  @DF-RHF Final Energy: -1245.33449599780215

   => Energetics <=

    Nuclear Repulsion Energy =            822.2362711939525752
    One-Electron Energy =               -3409.8133854528823576
    Two-Electron Energy =                1342.2426182611275181
    Total Energy =                      -1245.3344959978021507
  Basis Set: (AUG-CC-PVTZ AUX)
    Blend: AUG-CC-PVTZ-RI
    Molecular point group: c1

    Geometry (in Angstrom), charge = -3, multiplicity = 1:

       Center              X                  Y                   Z               Mass
    ------------   -----------------  -----------------  -----------------  -----------------
         P            1.250766326775    -0.584749842582     0.012995101566    30.973761998420
         P           -1.776541673225     0.188583157418     0.007673101566    30.973761998420
         O            1.327124826775     1.043653757418    -0.383685798434    15.994914619570
         O           -0.337370173225    -0.725918342582    -0.213067498434    15.994914619570
         O            1.984995326775    -1.390697842582    -1.043817898434    15.994914619570
         O            1.674501326775    -0.759317842582     1.460257101566    15.994914619570
         O           -1.775594673225     1.115358157418    -1.214643898434    15.994914619570
         O           -1.598577673225     0.880059157418     1.368026101566    15.994914619570
         O           -2.839245673225    -0.917313842582    -0.025049898434    15.994914619570
         C            2.683516326775     1.589044157418    -0.004353898434    12.000000000000
         H            2.792635326775     1.636136157418     1.082369101566     1.007825032230
         H            3.505589326775     0.992679157418    -0.416317898434     1.007825032230
         H            2.732864326775     2.595540157418    -0.424422898434     1.007825032230

  Basis Set: AUG-CC-PVTZ
    Blend: AUG-CC-PVTZ
  Basis Set: (AUG-CC-PVTZ AUX)
    Blend: AUG-CC-PVTZ-JKFIT
	 Reference Energy          =   -1245.3344959978021507 [Eh]
	 Singles Energy            =      -0.0000000000000000 [Eh]
	 Same-Spin Energy          =      -0.6466997633410295 [Eh]
	 Opposite-Spin Energy      =      -1.8084507625565238 [Eh]
	 Correlation Energy        =      -2.4551505258975532 [Eh]
	 Total Energy              =   -1247.7896465236997301 [Eh]

	 ================> DF-SCS-MP2 Energies <==================
	-----------------------------------------------------------
	 SCS Same-Spin Scale       =       0.3333333333333333 [-]
	 SCS Opposite-Spin Scale   =       1.2000000000000000 [-]
	 SCS Same-Spin Energy      =      -0.2155665877803432 [Eh]
	 SCS Opposite-Spin Energy  =      -2.1701409150678286 [Eh]
	 SCS Correlation Energy    =      -2.3857075028481716 [Eh]
	 SCS Total Energy          =   -1247.7202035006503138 [Eh]
	-----------------------------------------------------------

  Dipole Moment: [D]
     X:     8.4590      Y:     2.1617      Z:    -0.4255     Total:     8.7412

*** Psi4 exiting successfully. Buy a developer a beer!
