                               Psi4 1.3.2 release

  ==> Input File <==

--------------------------------------------------------------------------
#psi4
#
memory 32 gb

molecule  {
-3 1
  P        1.1931290    -0.6069630     0.0087730
  P       -1.8341790     0.1663700     0.0034510
  O        1.3559990     1.0186560    -0.3729610
  O       -0.3886030    -0.8294050    -0.1958090
  O        1.8306463    -1.3067525    -0.9088379
  O        1.6168640    -0.7815310     1.4560350
  O       -1.8332320     1.0931450    -1.2188660
  O       -1.6562150     0.8578460     1.3638040
  O       -2.8968830    -0.9395270    -0.0292720
  C        2.6258790     1.5668310    -0.0085760
  H        2.7349980     1.6139230     1.0781470
  H        3.4479520     0.9704660    -0.4205400
  H        2.6752270     2.5733270    -0.4286450
units angstrom
no_reorient  #important for SAPT in psi4, default
symmetry c1  #important for SAPT in psi4, default
}

set PROPERTIES_ORIGIN ["COM"]
properties('MP2/aug-cc-pvtz', properties = ['dipole'])
--------------------------------------------------------------------------

    Molecular point group: c1
  Charge       = -3
  Multiplicity = 1
  Basis Set: AUG-CC-PVTZ
    Blend: AUG-CC-PVTZ
  Basis Set: (AUG-CC-PVTZ AUX)
    Blend: AUG-CC-PVTZ-JKFIT

    Orbital Energies [Eh]
    ---------------------

    Doubly Occupied:

       1A    -79.574119     2A    -79.551638     3A    -20.137697
       4A    -20.064699     5A    -20.041982     6A    -20.031419
       7A    -19.993520     8A    -19.992793     9A    -19.990350
      10A    -10.910893    11A     -7.101306    12A     -7.065386
      13A     -5.001483    14A     -4.998361    15A     -4.996677
      16A     -4.964871    17A     -4.962592    18A     -4.962453
      19A     -0.976305    20A     -0.911062    21A     -0.857445
      22A     -0.804215    23A     -0.788730    24A     -0.735911
      25A     -0.733614    26A     -0.553159    27A     -0.320909
      28A     -0.278756    29A     -0.246881    30A     -0.220021
      31A     -0.193520    32A     -0.151447    33A     -0.147619
      34A     -0.123312    35A     -0.086582    36A     -0.084887
      37A     -0.072887    38A     -0.055268    39A     -0.046056
      40A     -0.034664    41A     -0.031834    42A      0.014957
      43A      0.027210    44A      0.028650    45A      0.032243
      46A      0.033574    47A      0.071593    48A      0.075686
      49A      0.099344

  @DF-RHF Final Energy: -1245.30006949506492

   => Energetics <=

    Nuclear Repulsion Energy =            831.0740740195270746
    One-Electron Energy =               -3427.9201606888977949
    Two-Electron Energy =                1351.5460171743059163
    Total Energy =                      -1245.3000694950649176
  Basis Set: (AUG-CC-PVTZ AUX)
    Blend: AUG-CC-PVTZ-RI
    Molecular point group: c1

    Geometry (in Angstrom), charge = -3, multiplicity = 1:

       Center              X                  Y                   Z               Mass
    ------------   -----------------  -----------------  -----------------  -----------------
         P            1.251087663576    -0.586620820749    -0.001873369009    30.973761998420
         P           -1.776220336424     0.186712179251    -0.007195369009    30.973761998420
         O            1.413957663576     1.038998179251    -0.383607369009    15.994914619570
         O           -0.330644336424    -0.809062820749    -0.206455369009    15.994914619570
         O            1.888604963576    -1.286410320749    -0.919484269009    15.994914619570
         O            1.674822663576    -0.761188820749     1.445388630991    15.994914619570
         O           -1.775273336424     1.113487179251    -1.229512369009    15.994914619570
         O           -1.598256336424     0.878188179251     1.353157630991    15.994914619570
         O           -2.838924336424    -0.919184820749    -0.039918369009    15.994914619570
         C            2.683837663576     1.587173179251    -0.019222369009    12.000000000000
         H            2.792956663576     1.634265179251     1.067500630991     1.007825032230
         H            3.505910663576     0.990808179251    -0.431186369009     1.007825032230
         H            2.733185663576     2.593669179251    -0.439291369009     1.007825032230

  Basis Set: AUG-CC-PVTZ
    Blend: AUG-CC-PVTZ
  Basis Set: (AUG-CC-PVTZ AUX)
    Blend: AUG-CC-PVTZ-JKFIT
	 Reference Energy          =   -1245.3000694950649176 [Eh]
	 Singles Energy            =      -0.0000000000000000 [Eh]
	 Same-Spin Energy          =      -0.6424735386521887 [Eh]
	 Opposite-Spin Energy      =      -1.7973407076105439 [Eh]
	 Correlation Energy        =      -2.4398142462627326 [Eh]
	 Total Energy              =   -1247.7398837413277306 [Eh]

	 ================> DF-SCS-MP2 Energies <==================
	-----------------------------------------------------------
	 SCS Same-Spin Scale       =       0.3333333333333333 [-]
	 SCS Opposite-Spin Scale   =       1.2000000000000000 [-]
	 SCS Same-Spin Energy      =      -0.2141578462173962 [Eh]
	 SCS Opposite-Spin Energy  =      -2.1568088491326525 [Eh]
	 SCS Correlation Energy    =      -2.3709666953500488 [Eh]
	 SCS Total Energy          =   -1247.6710361904149522 [Eh]
	-----------------------------------------------------------

  Dipole Moment: [D]
     X:     8.6801      Y:     1.5378      Z:    -1.3748     Total:     8.9218

*** Psi4 exiting successfully. Buy a developer a beer!
