                               Psi4 1.3.2 release

  ==> Input File <==

--------------------------------------------------------------------------
#psi4
#
memory 32 gb

molecule  {
-3 1
  P        1.1931290    -0.6069630     0.0087730
  P       -1.8341790     0.1663700     0.0034510
  O        1.3559990     1.0186560    -0.3729610
  O       -0.3886030    -0.8294050    -0.1958090
  O        1.9273580    -1.4129110    -1.0480400
  O        1.6168640    -0.7815310     1.4560350
  O       -1.7924060     1.1201579    -1.1971802
  O       -1.6562150     0.8578460     1.3638040
  O       -2.8791588    -0.9566691     0.0182599
  C        2.6258790     1.5668310    -0.0085760
  H        2.7349980     1.6139230     1.0781470
  H        3.4479520     0.9704660    -0.4205400
  H        2.6752270     2.5733270    -0.4286450
units angstrom
no_reorient  #important for SAPT in psi4, default
symmetry c1  #important for SAPT in psi4, default
}

set PROPERTIES_ORIGIN ["COM"]
properties('MP2/aug-cc-pvtz', properties = ['dipole'])
--------------------------------------------------------------------------

    Molecular point group: c1
  Charge       = -3
  Multiplicity = 1
  Basis Set: AUG-CC-PVTZ
    Blend: AUG-CC-PVTZ
  Basis Set: (AUG-CC-PVTZ AUX)
    Blend: AUG-CC-PVTZ-JKFIT

    Orbital Energies [Eh]
    ---------------------

    Doubly Occupied:

       1A    -79.620580     2A    -79.559142     3A    -20.151362
       4A    -20.078315     5A    -20.053660     6A    -20.049508
       7A    -20.002428     8A    -20.001882     9A    -19.992575
      10A    -10.915913    11A     -7.134613    12A     -7.072974
      13A     -5.033922    14A     -5.032393    15A     -5.031606
      16A     -4.972564    17A     -4.970096    18A     -4.969933
      19A     -0.963709    20A     -0.885295    21A     -0.840907
      22A     -0.801692    23A     -0.798037    24A     -0.746489
      25A     -0.736518    26A     -0.559395    27A     -0.334707
      28A     -0.280883    29A     -0.252892    30A     -0.227026
      31A     -0.186176    32A     -0.146559    33A     -0.142668
      34A     -0.113196    35A     -0.093251    36A     -0.087267
      37A     -0.062214    38A     -0.056790    39A     -0.042970
      40A     -0.036735    41A     -0.021019    42A      0.008686
      43A      0.021087    44A      0.022603    45A      0.025196
      46A      0.029798    47A      0.062488    48A      0.070804
      49A      0.093248

  @DF-RHF Final Energy: -1245.34375407086486

   => Energetics <=

    Nuclear Repulsion Energy =            821.0711728276041868
    One-Electron Energy =               -3407.3779612260618705
    Two-Electron Energy =                1340.9630343275928226
    Total Energy =                      -1245.3437540708648612
  Basis Set: (AUG-CC-PVTZ AUX)
    Blend: AUG-CC-PVTZ-RI
    Molecular point group: c1

    Geometry (in Angstrom), charge = -3, multiplicity = 1:

       Center              X                  Y                   Z               Mass
    ------------   -----------------  -----------------  -----------------  -----------------
         P            1.237943484055    -0.578469285734     0.004051378255    30.973761998420
         P           -1.789364515945     0.194863714266    -0.001270621745    30.973761998420
         O            1.400813484055     1.047149714266    -0.377682621745    15.994914619570
         O           -0.343788515945    -0.800911285734    -0.200530621745    15.994914619570
         O            1.972172484055    -1.384417285734    -1.052761621745    15.994914619570
         O            1.661678484055    -0.753037285734     1.451313378255    15.994914619570
         O           -1.747591515945     1.148651614266    -1.201901821745    15.994914619570
         O           -1.611400515945     0.886339714266     1.359082378255    15.994914619570
         O           -2.834344315945    -0.928175385734     0.013538278255    15.994914619570
         C            2.670693484055     1.595324714266    -0.013297621745    12.000000000000
         H            2.779812484055     1.642416714266     1.073425378255     1.007825032230
         H            3.492766484055     0.998959714266    -0.425261621745     1.007825032230
         H            2.720041484055     2.601820714266    -0.433366621745     1.007825032230

  Basis Set: AUG-CC-PVTZ
    Blend: AUG-CC-PVTZ
  Basis Set: (AUG-CC-PVTZ AUX)
    Blend: AUG-CC-PVTZ-JKFIT
	 Reference Energy          =   -1245.3437540708648612 [Eh]
	 Singles Energy            =      -0.0000000000000000 [Eh]
	 Same-Spin Energy          =      -0.6461814407449482 [Eh]
	 Opposite-Spin Energy      =      -1.8065938411757956 [Eh]
	 Correlation Energy        =      -2.4527752819207436 [Eh]
	 Total Energy              =   -1247.7965293527856829 [Eh]

	 ================> DF-SCS-MP2 Energies <==================
	-----------------------------------------------------------
	 SCS Same-Spin Scale       =       0.3333333333333333 [-]
	 SCS Opposite-Spin Scale   =       1.2000000000000000 [-]
	 SCS Same-Spin Energy      =      -0.2153938135816494 [Eh]
	 SCS Opposite-Spin Energy  =      -2.1679126094109544 [Eh]
	 SCS Correlation Energy    =      -2.3833064229926038 [Eh]
	 SCS Total Energy          =   -1247.7270604938573797 [Eh]
	-----------------------------------------------------------

  Dipole Moment: [D]
     X:     7.7320      Y:     2.3044      Z:    -0.6619     Total:     8.0952

*** Psi4 exiting successfully. Buy a developer a beer!
