                               Psi4 1.3.2 release

  ==> Input File <==

--------------------------------------------------------------------------
#psi4
#
memory 32 gb

molecule  {
-3 1
  P        1.1931290    -0.6069630     0.0087730
  P       -1.8341790     0.1663700     0.0034510
  O        1.3559990     1.0186560    -0.3729610
  O       -0.3886030    -0.8294050    -0.1958090
  O        1.9273580    -1.4129110    -1.0480400
  O        1.6168640    -0.7815310     1.4560350
  O       -1.8332320     1.0931450    -1.2188660
  O       -1.6562150     0.8578460     1.3638040
  O       -2.9661558    -1.0116153    -0.0314051
  C        2.6258790     1.5668310    -0.0085760
  H        2.7349980     1.6139230     1.0781470
  H        3.4479520     0.9704660    -0.4205400
  H        2.6752270     2.5733270    -0.4286450
units angstrom
no_reorient  #important for SAPT in psi4, default
symmetry c1  #important for SAPT in psi4, default
}

set PROPERTIES_ORIGIN ["COM"]
properties('MP2/aug-cc-pvtz', properties = ['dipole'])
--------------------------------------------------------------------------

    Molecular point group: c1
  Charge       = -3
  Multiplicity = 1
  Basis Set: AUG-CC-PVTZ
    Blend: AUG-CC-PVTZ
  Basis Set: (AUG-CC-PVTZ AUX)
    Blend: AUG-CC-PVTZ-JKFIT

    Orbital Energies [Eh]
    ---------------------

    Doubly Occupied:

       1A    -79.625915     2A    -79.576467     3A    -20.156070
       4A    -20.086915     5A    -20.057565     6A    -20.053774
       7A    -20.008587     8A    -20.006574     9A    -20.004490
      10A    -10.919667    11A     -7.139907    12A     -7.087797
      13A     -5.039215    14A     -5.037717    15A     -5.036866
      16A     -4.987473    17A     -4.984957    18A     -4.984514
      19A     -0.968523    20A     -0.889860    21A     -0.841890
      22A     -0.805773    23A     -0.799010    24A     -0.748780
      25A     -0.719781    26A     -0.563337    27A     -0.340388
      28A     -0.286961    29A     -0.256899    30A     -0.231928
      31A     -0.190613    32A     -0.150048    33A     -0.146727
      34A     -0.117373    35A     -0.094558    36A     -0.090729
      37A     -0.065756    38A     -0.058129    39A     -0.044965
      40A     -0.039218    41A     -0.025117    42A      0.004312
      43A      0.019174    44A      0.022436    45A      0.026731
      46A      0.031810    47A      0.061960    48A      0.070065
      49A      0.090022

  @DF-RHF Final Energy: -1245.33355439669981

   => Energetics <=

    Nuclear Repulsion Energy =            815.9990910024007462
    One-Electron Energy =               -3396.7766470891419885
    Two-Electron Energy =                1335.4440016900414321
    Total Energy =                      -1245.3335543966998102
  Basis Set: (AUG-CC-PVTZ AUX)
    Blend: AUG-CC-PVTZ-RI
    Molecular point group: c1

    Geometry (in Angstrom), charge = -3, multiplicity = 1:

       Center              X                  Y                   Z               Mass
    ------------   -----------------  -----------------  -----------------  -----------------
         P            1.248764738071    -0.571530782960     0.010091802365    30.973761998420
         P           -1.778543261929     0.201802217040     0.004769802365    30.973761998420
         O            1.411634738071     1.054088217040    -0.371642197635    15.994914619570
         O           -0.332967261929    -0.793972782960    -0.194490197635    15.994914619570
         O            1.982993738071    -1.377478782960    -1.046721197635    15.994914619570
         O            1.672499738071    -0.746098782960     1.457353802365    15.994914619570
         O           -1.777596261929     1.128577217040    -1.217547197635    15.994914619570
         O           -1.600579261929     0.893278217040     1.365122802365    15.994914619570
         O           -2.910520061929    -0.976183082960    -0.030086297635    15.994914619570
         C            2.681514738071     1.602263217040    -0.007257197635    12.000000000000
         H            2.790633738071     1.649355217040     1.079465802365     1.007825032230
         H            3.503587738071     1.005898217040    -0.419221197635     1.007825032230
         H            2.730862738071     2.608759217040    -0.427326197635     1.007825032230

  Basis Set: AUG-CC-PVTZ
    Blend: AUG-CC-PVTZ
  Basis Set: (AUG-CC-PVTZ AUX)
    Blend: AUG-CC-PVTZ-JKFIT
	 Reference Energy          =   -1245.3335543966998102 [Eh]
	 Singles Energy            =      -0.0000000000000000 [Eh]
	 Same-Spin Energy          =      -0.6477032294884334 [Eh]
	 Opposite-Spin Energy      =      -1.8109102288555314 [Eh]
	 Correlation Energy        =      -2.4586134583439647 [Eh]
	 Total Energy              =   -1247.7921678550437719 [Eh]

	 ================> DF-SCS-MP2 Energies <==================
	-----------------------------------------------------------
	 SCS Same-Spin Scale       =       0.3333333333333333 [-]
	 SCS Opposite-Spin Scale   =       1.2000000000000000 [-]
	 SCS Same-Spin Energy      =      -0.2159010764961445 [Eh]
	 SCS Opposite-Spin Energy  =      -2.1730922746266375 [Eh]
	 SCS Correlation Energy    =      -2.3889933511227821 [Eh]
	 SCS Total Energy          =   -1247.7225477478225457 [Eh]
	-----------------------------------------------------------

  Dipole Moment: [D]
     X:     8.5686      Y:     2.8749      Z:    -0.4551     Total:     9.0495

*** Psi4 exiting successfully. Buy a developer a beer!
