                               Psi4 1.3.2 release

  ==> Input File <==

--------------------------------------------------------------------------
#psi4
#
memory 32 gb

molecule  {
-3 1
  P        1.1931290    -0.6069630     0.0087730
  P       -1.8341790     0.1663700     0.0034510
  O        1.3365838     0.8248718    -0.3274559
  O       -0.3886030    -0.8294050    -0.1958090
  O        1.9273580    -1.4129110    -1.0480400
  O        1.6168640    -0.7815310     1.4560350
  O       -1.8332320     1.0931450    -1.2188660
  O       -1.6562150     0.8578460     1.3638040
  O       -2.8968830    -0.9395270    -0.0292720
  C        2.6258790     1.5668310    -0.0085760
  H        2.7349980     1.6139230     1.0781470
  H        3.4479520     0.9704660    -0.4205400
  H        2.6752270     2.5733270    -0.4286450
units angstrom
no_reorient  #important for SAPT in psi4, default
symmetry c1  #important for SAPT in psi4, default
}

set PROPERTIES_ORIGIN ["COM"]
properties('MP2/aug-cc-pvtz', properties = ['dipole'])
--------------------------------------------------------------------------

    Molecular point group: c1
  Charge       = -3
  Multiplicity = 1
  Basis Set: AUG-CC-PVTZ
    Blend: AUG-CC-PVTZ
  Basis Set: (AUG-CC-PVTZ AUX)
    Blend: AUG-CC-PVTZ-JKFIT

    Orbital Energies [Eh]
    ---------------------

    Doubly Occupied:

       1A    -79.593164     2A    -79.554787     3A    -20.155435
       4A    -20.065410     5A    -20.036088     6A    -20.031988
       7A    -19.997055     8A    -19.994446     9A    -19.994154
      10A    -10.945459    11A     -7.112296    12A     -7.068501
      13A     -5.012603    14A     -5.009734    15A     -5.008705
      16A     -4.967994    17A     -4.965683    18A     -4.965572
      19A     -1.001516    20A     -0.871441    21A     -0.828293
      22A     -0.790985    23A     -0.787886    24A     -0.738677
      25A     -0.736755    26A     -0.595807    27A     -0.340077
      28A     -0.282367    29A     -0.266005    30A     -0.249619
      31A     -0.182777    32A     -0.157305    33A     -0.152397
      34A     -0.113581    35A     -0.092190    36A     -0.084546
      37A     -0.065746    38A     -0.049486    39A     -0.035557
      40A     -0.025777    41A     -0.011057    42A      0.022615
      43A      0.026693    44A      0.028385    45A      0.032365
      46A      0.040963    47A      0.069288    48A      0.072766
      49A      0.096365

  @DF-RHF Final Energy: -1245.31624367975655

   => Energetics <=

    Nuclear Repulsion Energy =            827.5631582235470205
    One-Electron Energy =               -3420.6598395722739951
    Two-Electron Energy =                1347.7804376689705350
    Total Energy =                      -1245.3162436797565533
  Basis Set: (AUG-CC-PVTZ AUX)
    Blend: AUG-CC-PVTZ-RI
    Molecular point group: c1

    Geometry (in Angstrom), charge = -3, multiplicity = 1:

       Center              X                  Y                   Z               Mass
    ------------   -----------------  -----------------  -----------------  -----------------
         P            1.244543887722    -0.561228237671     0.006058842232    30.973761998420
         P           -1.782764112278     0.212104762329     0.000736842232    30.973761998420
         O            1.387998687722     0.870606562329    -0.330170057768    15.994914619570
         O           -0.337188112278    -0.783670237671    -0.198523157768    15.994914619570
         O            1.978772887722    -1.367176237671    -1.050754157768    15.994914619570
         O            1.668278887722    -0.735796237671     1.453320842232    15.994914619570
         O           -1.781817112278     1.138879762329    -1.221580157768    15.994914619570
         O           -1.604800112278     0.903580762329     1.361089842232    15.994914619570
         O           -2.845468112278    -0.893792237671    -0.031986157768    15.994914619570
         C            2.677293887722     1.612565762329    -0.011290157768    12.000000000000
         H            2.786412887722     1.659657762329     1.075432842232     1.007825032230
         H            3.499366887722     1.016200762329    -0.423254157768     1.007825032230
         H            2.726641887722     2.619061762329    -0.431359157768     1.007825032230

  Basis Set: AUG-CC-PVTZ
    Blend: AUG-CC-PVTZ
  Basis Set: (AUG-CC-PVTZ AUX)
    Blend: AUG-CC-PVTZ-JKFIT
	 Reference Energy          =   -1245.3162436797565533 [Eh]
	 Singles Energy            =      -0.0000000000000000 [Eh]
	 Same-Spin Energy          =      -0.6446212545346524 [Eh]
	 Opposite-Spin Energy      =      -1.8025179055681315 [Eh]
	 Correlation Energy        =      -2.4471391601027839 [Eh]
	 Total Energy              =   -1247.7633828398593323 [Eh]

	 ================> DF-SCS-MP2 Energies <==================
	-----------------------------------------------------------
	 SCS Same-Spin Scale       =       0.3333333333333333 [-]
	 SCS Opposite-Spin Scale   =       1.2000000000000000 [-]
	 SCS Same-Spin Energy      =      -0.2148737515115508 [Eh]
	 SCS Opposite-Spin Energy  =      -2.1630214866817576 [Eh]
	 SCS Correlation Energy    =      -2.3778952381933083 [Eh]
	 SCS Total Energy          =   -1247.6941389179498856 [Eh]
	-----------------------------------------------------------

  Dipole Moment: [D]
     X:     8.4839      Y:     3.4835      Z:    -0.6052     Total:     9.1911

*** Psi4 exiting successfully. Buy a developer a beer!
