                               Psi4 1.3.2 release

  ==> Input File <==

--------------------------------------------------------------------------
#psi4
#
memory 32 gb

molecule  {
-3 1
  P        1.1931290    -0.6069630     0.0087730
  P       -1.8341790     0.1663700     0.0034510
  O        1.3559990     1.0186560    -0.3729610
  O       -0.3886030    -0.8294050    -0.1958090
  O        1.8966259    -1.3906505    -1.0850387
  O        1.5798029    -0.7463899     1.4701546
  O       -1.8332320     1.0931450    -1.2188660
  O       -1.6562150     0.8578460     1.3638040
  O       -2.8968830    -0.9395270    -0.0292720
  C        2.6258790     1.5668310    -0.0085760
  H        2.7349980     1.6139230     1.0781470
  H        3.4479520     0.9704660    -0.4205400
  H        2.6752270     2.5733270    -0.4286450
units angstrom
no_reorient  #important for SAPT in psi4, default
symmetry c1  #important for SAPT in psi4, default
}

set PROPERTIES_ORIGIN ["COM"]
properties('MP2/aug-cc-pvtz', properties = ['dipole'])
--------------------------------------------------------------------------

    Molecular point group: c1
  Charge       = -3
  Multiplicity = 1
  Basis Set: AUG-CC-PVTZ
    Blend: AUG-CC-PVTZ
  Basis Set: (AUG-CC-PVTZ AUX)
    Blend: AUG-CC-PVTZ-JKFIT

    Orbital Energies [Eh]
    ---------------------

    Doubly Occupied:

       1A    -79.622162     2A    -79.557208     3A    -20.149934
       4A    -20.076674     5A    -20.057766     6A    -20.053896
       7A    -19.997588     8A    -19.997212     9A    -19.995382
      10A    -10.916209    11A     -7.136227    12A     -7.070999
      13A     -5.035548    14A     -5.034137    15A     -5.033100
      16A     -4.970550    17A     -4.968131    18A     -4.967994
      19A     -0.963739    20A     -0.884958    21A     -0.840387
      22A     -0.807385    23A     -0.796630    24A     -0.740100
      25A     -0.738387    26A     -0.559513    27A     -0.334485
      28A     -0.280719    29A     -0.253093    30A     -0.226740
      31A     -0.187128    32A     -0.146414    33A     -0.144276
      34A     -0.113023    35A     -0.090655    36A     -0.087689
      37A     -0.063086    38A     -0.056856    39A     -0.042130
      40A     -0.037545    41A     -0.021685    42A      0.005480
      43A      0.019670    44A      0.024280    45A      0.027392
      46A      0.028930    47A      0.066868    48A      0.070500
      49A      0.094966

  @DF-RHF Final Energy: -1245.34279660787479

   => Energetics <=

    Nuclear Repulsion Energy =            821.1765770570723362
    One-Electron Energy =               -3407.6002407647742984
    Two-Electron Energy =                1341.0808670998271737
    Total Energy =                      -1245.3427966078747886
  Basis Set: (AUG-CC-PVTZ AUX)
    Blend: AUG-CC-PVTZ-RI
    Molecular point group: c1

    Geometry (in Angstrom), charge = -3, multiplicity = 1:

       Center              X                  Y                   Z               Mass
    ------------   -----------------  -----------------  -----------------  -----------------
         P            1.248639477926    -0.582493153585     0.011848119583    30.973761998420
         P           -1.778668522074     0.190839846415     0.006526119583    30.973761998420
         O            1.411509477926     1.043125846415    -0.369885880417    15.994914619570
         O           -0.333092522074    -0.804935153585    -0.192733880417    15.994914619570
         O            1.952136377926    -1.366180653585    -1.081963580417    15.994914619570
         O            1.635313377926    -0.721920053585     1.473229719583    15.994914619570
         O           -1.777721522074     1.117614846415    -1.215790880417    15.994914619570
         O           -1.600704522074     0.882315846415     1.366879119583    15.994914619570
         O           -2.841372522074    -0.915057153585    -0.026196880417    15.994914619570
         C            2.681389477926     1.591300846415    -0.005500880417    12.000000000000
         H            2.790508477926     1.638392846415     1.081222119583     1.007825032230
         H            3.503462477926     0.994935846415    -0.417464880417     1.007825032230
         H            2.730737477926     2.597796846415    -0.425569880417     1.007825032230

  Basis Set: AUG-CC-PVTZ
    Blend: AUG-CC-PVTZ
  Basis Set: (AUG-CC-PVTZ AUX)
    Blend: AUG-CC-PVTZ-JKFIT
	 Reference Energy          =   -1245.3427966078747886 [Eh]
	 Singles Energy            =      -0.0000000000000000 [Eh]
	 Same-Spin Energy          =      -0.6462607942672091 [Eh]
	 Opposite-Spin Energy      =      -1.8067309558487912 [Eh]
	 Correlation Energy        =      -2.4529917501160003 [Eh]
	 Total Energy              =   -1247.7957883579908867 [Eh]

	 ================> DF-SCS-MP2 Energies <==================
	-----------------------------------------------------------
	 SCS Same-Spin Scale       =       0.3333333333333333 [-]
	 SCS Opposite-Spin Scale   =       1.2000000000000000 [-]
	 SCS Same-Spin Energy      =      -0.2154202647557363 [Eh]
	 SCS Opposite-Spin Energy  =      -2.1680771470185491 [Eh]
	 SCS Correlation Energy    =      -2.3834974117742855 [Eh]
	 SCS Total Energy          =   -1247.7262940196490035 [Eh]
	-----------------------------------------------------------

  Dipole Moment: [D]
     X:     8.1012      Y:     2.1748      Z:    -0.4155     Total:     8.3984

*** Psi4 exiting successfully. Buy a developer a beer!
