                               Psi4 1.3.2 release

  ==> Input File <==

--------------------------------------------------------------------------
#psi4
#
memory 32 gb

molecule  {
-3 1
  P        1.1931290    -0.6069630     0.0087730
  P       -1.8341790     0.1663700     0.0034510
  O        1.3503539     1.0162189    -0.3487663
  O       -0.3886030    -0.8294050    -0.1958090
  O        1.9273580    -1.4129110    -1.0480400
  O        1.6168640    -0.7815310     1.4560350
  O       -1.8332320     1.0931450    -1.2188660
  O       -1.6562150     0.8578460     1.3638040
  O       -2.8968830    -0.9395270    -0.0292720
  C        2.6258790     1.5668310    -0.0085760
  H        2.7175686     1.6063991     1.0800557
  H        3.4479520     0.9704660    -0.4205400
  H        2.6752270     2.5733270    -0.4286450
units angstrom
no_reorient  #important for SAPT in psi4, default
symmetry c1  #important for SAPT in psi4, default
}

set PROPERTIES_ORIGIN ["COM"]
properties('MP2/aug-cc-pvtz', properties = ['dipole'])
--------------------------------------------------------------------------

    Molecular point group: c1
  Charge       = -3
  Multiplicity = 1
  Basis Set: AUG-CC-PVTZ
    Blend: AUG-CC-PVTZ
  Basis Set: (AUG-CC-PVTZ AUX)
    Blend: AUG-CC-PVTZ-JKFIT

    Orbital Energies [Eh]
    ---------------------

    Doubly Occupied:

       1A    -79.621080     2A    -79.558838     3A    -20.152294
       4A    -20.079947     5A    -20.055047     6A    -20.049155
       7A    -19.999136     8A    -19.998539     9A    -19.996920
      10A    -10.917463    11A     -7.135214    12A     -7.072646
      13A     -5.034539    14A     -5.033011    15A     -5.032198
      16A     -4.972208    17A     -4.969764    18A     -4.969632
      19A     -0.966729    20A     -0.886131    21A     -0.841091
      22A     -0.802235    23A     -0.798620    24A     -0.741551
      25A     -0.739900    26A     -0.561311    27A     -0.336120
      28A     -0.282101    29A     -0.255842    30A     -0.229848
      31A     -0.186351    32A     -0.147141    33A     -0.143725
      34A     -0.113831    35A     -0.092526    36A     -0.088622
      37A     -0.062909    38A     -0.057348    39A     -0.042676
      40A     -0.037721    41A     -0.022205    42A      0.008231
      43A      0.021571    44A      0.022894    45A      0.026096
      46A      0.028638    47A      0.065378    48A      0.068848
      49A      0.093512

  @DF-RHF Final Energy: -1245.34532662889433

   => Energetics <=

    Nuclear Repulsion Energy =            820.8889350050709481
    One-Electron Energy =               -3406.9705256831753104
    Two-Electron Energy =                1340.7362640492101491
    Total Energy =                      -1245.3453266288943269
  Basis Set: (AUG-CC-PVTZ AUX)
    Blend: AUG-CC-PVTZ-RI
    Molecular point group: c1

    Geometry (in Angstrom), charge = -3, multiplicity = 1:

       Center              X                  Y                   Z               Mass
    ------------   -----------------  -----------------  -----------------  -----------------
         P            1.243471109477    -0.577387187922     0.007852759044    30.973761998420
         P           -1.783836890523     0.195945812078     0.002530759044    30.973761998420
         O            1.400696009477     1.045794712078    -0.349686540956    15.994914619570
         O           -0.338260890523    -0.799829187922    -0.196729240956    15.994914619570
         O            1.977700109477    -1.383335187922    -1.048960240956    15.994914619570
         O            1.667206109477    -0.751955187922     1.455114759044    15.994914619570
         O           -1.782889890523     1.122720812078    -1.219786240956    15.994914619570
         O           -1.605872890523     0.887421812078     1.362883759044    15.994914619570
         O           -2.846540890523    -0.909951187922    -0.030192240956    15.994914619570
         C            2.676221109477     1.596406812078    -0.009496240956    12.000000000000
         H            2.767910709477     1.635974912078     1.079135459044     1.007825032230
         H            3.498294109477     1.000041812078    -0.421460240956     1.007825032230
         H            2.725569109477     2.602902812078    -0.429565240956     1.007825032230

  Basis Set: AUG-CC-PVTZ
    Blend: AUG-CC-PVTZ
  Basis Set: (AUG-CC-PVTZ AUX)
    Blend: AUG-CC-PVTZ-JKFIT
	 Reference Energy          =   -1245.3453266288943269 [Eh]
	 Singles Energy            =      -0.0000000000000000 [Eh]
	 Same-Spin Energy          =      -0.6459560392014571 [Eh]
	 Opposite-Spin Energy      =      -1.8060709465452507 [Eh]
	 Correlation Energy        =      -2.4520269857467079 [Eh]
	 Total Energy              =   -1247.7973536146409970 [Eh]

	 ================> DF-SCS-MP2 Energies <==================
	-----------------------------------------------------------
	 SCS Same-Spin Scale       =       0.3333333333333333 [-]
	 SCS Opposite-Spin Scale   =       1.2000000000000000 [-]
	 SCS Same-Spin Energy      =      -0.2153186797338190 [Eh]
	 SCS Opposite-Spin Energy  =      -2.1672851358543008 [Eh]
	 SCS Correlation Energy    =      -2.3826038155881197 [Eh]
	 SCS Total Energy          =   -1247.7279304444823538 [Eh]
	-----------------------------------------------------------

  Dipole Moment: [D]
     X:     7.9355      Y:     2.3672      Z:    -0.5070     Total:     8.2965

*** Psi4 exiting successfully. Buy a developer a beer!
