                               Psi4 1.3.2 release

  ==> Input File <==

--------------------------------------------------------------------------
#psi4
#
memory 32 gb

molecule  {
-3 1
  P        1.1976627    -0.6334735     0.0006147
  P       -1.8515107     0.1425584    -0.0056755
  O        1.3559990     1.0186560    -0.3729610
  O       -0.3886030    -0.8294050    -0.1958090
  O        1.9273580    -1.4129110    -1.0480400
  O        1.6168640    -0.7815310     1.4560350
  O       -1.8332320     1.0931450    -1.2188660
  O       -1.6562150     0.8578460     1.3638040
  O       -2.8968830    -0.9395270    -0.0292720
  C        2.6258790     1.5668310    -0.0085760
  H        2.7349980     1.6139230     1.0781470
  H        3.4479520     0.9704660    -0.4205400
  H        2.6752270     2.5733270    -0.4286450
units angstrom
no_reorient  #important for SAPT in psi4, default
symmetry c1  #important for SAPT in psi4, default
}

set PROPERTIES_ORIGIN ["COM"]
properties('MP2/aug-cc-pvtz', properties = ['dipole'])
--------------------------------------------------------------------------

    Molecular point group: c1
  Charge       = -3
  Multiplicity = 1
  Basis Set: AUG-CC-PVTZ
    Blend: AUG-CC-PVTZ
  Basis Set: (AUG-CC-PVTZ AUX)
    Blend: AUG-CC-PVTZ-JKFIT

    Orbital Energies [Eh]
    ---------------------

    Doubly Occupied:

       1A    -79.621403     2A    -79.558788     3A    -20.145838
       4A    -20.079446     5A    -20.059273     6A    -20.050119
       7A    -20.004398     8A    -19.997537     9A    -19.992547
      10A    -10.912317    11A     -7.135631    12A     -7.072709
      13A     -5.034888    14A     -5.033399    15A     -5.032686
      16A     -4.972271    17A     -4.969988    18A     -4.969506
      19A     -0.956456    20A     -0.886234    21A     -0.846453
      22A     -0.807436    23A     -0.800504    24A     -0.748241
      25A     -0.730673    26A     -0.554249    27A     -0.332762
      28A     -0.279167    29A     -0.248493    30A     -0.221686
      31A     -0.187588    32A     -0.147760    33A     -0.144380
      34A     -0.112059    35A     -0.092979    36A     -0.087816
      37A     -0.060729    38A     -0.056364    39A     -0.042978
      40A     -0.041259    41A     -0.023398    42A      0.006666
      43A      0.016736    44A      0.020364    45A      0.026504
      46A      0.030068    47A      0.061957    48A      0.073819
      49A      0.094604

  @DF-RHF Final Energy: -1245.34334225170028

   => Energetics <=

    Nuclear Repulsion Energy =            819.5954614032293648
    One-Electron Energy =               -3404.4342295678584378
    Two-Electron Energy =                1339.4954259129287948
    Total Energy =                      -1245.3433422517002782
  Basis Set: (AUG-CC-PVTZ AUX)
    Blend: AUG-CC-PVTZ-RI
    Molecular point group: c1

    Geometry (in Angstrom), charge = -3, multiplicity = 1:

       Center              X                  Y                   Z               Mass
    ------------   -----------------  -----------------  -----------------  -----------------
         P            1.249532016797    -0.595894419313     0.004586560104    30.973761998420
         P           -1.799641383203     0.180137480687    -0.001703639896    30.973761998420
         O            1.407868316797     1.056235080687    -0.368989139896    15.994914619570
         O           -0.336733683203    -0.791825919313    -0.191837139896    15.994914619570
         O            1.979227316797    -1.375331919313    -1.044068139896    15.994914619570
         O            1.668733316797    -0.743951919313     1.460006860104    15.994914619570
         O           -1.781362683203     1.130724080687    -1.214894139896    15.994914619570
         O           -1.604345683203     0.895425080687     1.367775860104    15.994914619570
         O           -2.845013683203    -0.901947919313    -0.025300139896    15.994914619570
         C            2.677748316797     1.604410080687    -0.004604139896    12.000000000000
         H            2.786867316797     1.651502080687     1.082118860104     1.007825032230
         H            3.499821316797     1.008045080687    -0.416568139896     1.007825032230
         H            2.727096316797     2.610906080687    -0.424673139896     1.007825032230

  Basis Set: AUG-CC-PVTZ
    Blend: AUG-CC-PVTZ
  Basis Set: (AUG-CC-PVTZ AUX)
    Blend: AUG-CC-PVTZ-JKFIT
	 Reference Energy          =   -1245.3433422517002782 [Eh]
	 Singles Energy            =      -0.0000000000000000 [Eh]
	 Same-Spin Energy          =      -0.6458914397895453 [Eh]
	 Opposite-Spin Energy      =      -1.8060904711332810 [Eh]
	 Correlation Energy        =      -2.4519819109228265 [Eh]
	 Total Energy              =   -1247.7953241626230465 [Eh]

	 ================> DF-SCS-MP2 Energies <==================
	-----------------------------------------------------------
	 SCS Same-Spin Scale       =       0.3333333333333333 [-]
	 SCS Opposite-Spin Scale   =       1.2000000000000000 [-]
	 SCS Same-Spin Energy      =      -0.2152971465965151 [Eh]
	 SCS Opposite-Spin Energy  =      -2.1673085653599373 [Eh]
	 SCS Correlation Energy    =      -2.3826057119564523 [Eh]
	 SCS Total Energy          =   -1247.7259479636568358 [Eh]
	-----------------------------------------------------------

  Dipole Moment: [D]
     X:     7.6941      Y:     1.6632      Z:    -0.7235     Total:     7.9050

*** Psi4 exiting successfully. Buy a developer a beer!
