                               Psi4 1.3.2 release

  ==> Input File <==

--------------------------------------------------------------------------
#psi4
#
memory 32 gb

molecule  {
-3 1
  P        1.1931290    -0.6069630     0.0087730
  P       -1.8341790     0.1663700     0.0034510
  O        1.3559990     1.0186560    -0.3729610
  O       -0.3871222    -0.8268540    -0.2095488
  O        1.9273580    -1.4129110    -1.0480400
  O        1.6293953    -0.7789219     1.4526201
  O       -1.8332320     1.0931450    -1.2188660
  O       -1.6562150     0.8578460     1.3638040
  O       -2.8968830    -0.9395270    -0.0292720
  C        2.6258790     1.5668310    -0.0085760
  H        2.7349980     1.6139230     1.0781470
  H        3.4479520     0.9704660    -0.4205400
  H        2.6752270     2.5733270    -0.4286450
units angstrom
no_reorient  #important for SAPT in psi4, default
symmetry c1  #important for SAPT in psi4, default
}

set PROPERTIES_ORIGIN ["COM"]
properties('MP2/aug-cc-pvtz', properties = ['dipole'])
--------------------------------------------------------------------------

    Molecular point group: c1
  Charge       = -3
  Multiplicity = 1
  Basis Set: AUG-CC-PVTZ
    Blend: AUG-CC-PVTZ
  Basis Set: (AUG-CC-PVTZ AUX)
    Blend: AUG-CC-PVTZ-JKFIT

    Orbital Energies [Eh]
    ---------------------

    Doubly Occupied:

       1A    -79.621929     2A    -79.559492     3A    -20.152270
       4A    -20.081322     5A    -20.053680     6A    -20.051514
       7A    -19.999241     8A    -19.999060     9A    -19.998125
      10A    -10.916549    11A     -7.135969    12A     -7.073309
      13A     -5.035280    14A     -5.033737    15A     -5.032969
      16A     -4.972871    17A     -4.970419    18A     -4.970291
      19A     -0.964838    20A     -0.886545    21A     -0.841650
      22A     -0.802949    23A     -0.799124    24A     -0.741896
      25A     -0.740753    26A     -0.560121    27A     -0.335903
      28A     -0.281832    29A     -0.253648    30A     -0.227961
      31A     -0.187306    32A     -0.147333    33A     -0.143533
      34A     -0.114198    35A     -0.092896    36A     -0.088731
      37A     -0.062744    38A     -0.057941    39A     -0.043419
      40A     -0.038261    41A     -0.021865    42A      0.007036
      43A      0.020540    44A      0.022597    45A      0.025574
      46A      0.028371    47A      0.064691    48A      0.068146
      49A      0.092924

  @DF-RHF Final Energy: -1245.34546183501220

   => Energetics <=

    Nuclear Repulsion Energy =            820.3501477821746448
    One-Electron Energy =               -3405.8640343919969382
    Two-Electron Energy =                1340.1684247748100915
    Total Energy =                      -1245.3454618350122018
  Basis Set: (AUG-CC-PVTZ AUX)
    Blend: AUG-CC-PVTZ-RI
    Molecular point group: c1

    Geometry (in Angstrom), charge = -3, multiplicity = 1:

       Center              X                  Y                   Z               Mass
    ------------   -----------------  -----------------  -----------------  -----------------
         P            1.241713995571    -0.578070486759     0.011363502680    30.973761998420
         P           -1.785594004429     0.195262513241     0.006041502680    30.973761998420
         O            1.404583995571     1.047548513241    -0.370370497320    15.994914619570
         O           -0.338537204429    -0.797961486759    -0.206958297320    15.994914619570
         O            1.975942995571    -1.384018486759    -1.045449497320    15.994914619570
         O            1.677980295571    -0.750029386759     1.455210602680    15.994914619570
         O           -1.784647004429     1.122037513241    -1.216275497320    15.994914619570
         O           -1.607630004429     0.886738513241     1.366394502680    15.994914619570
         O           -2.848298004429    -0.910634486759    -0.026681497320    15.994914619570
         C            2.674463995571     1.595723513241    -0.005985497320    12.000000000000
         H            2.783582995571     1.642815513241     1.080737502680     1.007825032230
         H            3.496536995571     0.999358513241    -0.417949497320     1.007825032230
         H            2.723811995571     2.602219513241    -0.426054497320     1.007825032230

  Basis Set: AUG-CC-PVTZ
    Blend: AUG-CC-PVTZ
  Basis Set: (AUG-CC-PVTZ AUX)
    Blend: AUG-CC-PVTZ-JKFIT
	 Reference Energy          =   -1245.3454618350122018 [Eh]
	 Singles Energy            =      -0.0000000000000000 [Eh]
	 Same-Spin Energy          =      -0.6460503899587017 [Eh]
	 Opposite-Spin Energy      =      -1.8063781642991892 [Eh]
	 Correlation Energy        =      -2.4524285542578910 [Eh]
	 Total Energy              =   -1247.7978903892701510 [Eh]

	 ================> DF-SCS-MP2 Energies <==================
	-----------------------------------------------------------
	 SCS Same-Spin Scale       =       0.3333333333333333 [-]
	 SCS Opposite-Spin Scale   =       1.2000000000000000 [-]
	 SCS Same-Spin Energy      =      -0.2153501299862339 [Eh]
	 SCS Opposite-Spin Energy  =      -2.1676537971590268 [Eh]
	 SCS Correlation Energy    =      -2.3830039271452605 [Eh]
	 SCS Total Energy          =   -1247.7284657621573842 [Eh]
	-----------------------------------------------------------

  Dipole Moment: [D]
     X:     7.8642      Y:     2.3279      Z:    -0.4389     Total:     8.2132

*** Psi4 exiting successfully. Buy a developer a beer!
