                               Psi4 1.3.2 release

  ==> Input File <==

--------------------------------------------------------------------------
#psi4
#
memory 32 gb

molecule  {
-3 1
  P        1.1931290    -0.6069630     0.0087730
  P       -1.8341790     0.1663700     0.0034510
  O        1.3559990     1.0186560    -0.3729610
  O       -0.3886030    -0.8294050    -0.1958090
  O        1.9197574    -1.4074369    -1.0574122
  O        1.6076454    -0.7727640     1.4597309
  O       -1.8332320     1.0931450    -1.2188660
  O       -1.6562150     0.8578460     1.3638040
  O       -2.8968830    -0.9395270    -0.0292720
  C        2.6258790     1.5668310    -0.0085760
  H        2.7349980     1.6139230     1.0781470
  H        3.4479520     0.9704660    -0.4205400
  H        2.6752270     2.5733270    -0.4286450
units angstrom
no_reorient  #important for SAPT in psi4, default
symmetry c1  #important for SAPT in psi4, default
}

set PROPERTIES_ORIGIN ["COM"]
properties('MP2/aug-cc-pvtz', properties = ['dipole'])
--------------------------------------------------------------------------

    Molecular point group: c1
  Charge       = -3
  Multiplicity = 1
  Basis Set: AUG-CC-PVTZ
    Blend: AUG-CC-PVTZ
  Basis Set: (AUG-CC-PVTZ AUX)
    Blend: AUG-CC-PVTZ-JKFIT

    Orbital Energies [Eh]
    ---------------------

    Doubly Occupied:

       1A    -79.622029     2A    -79.558608     3A    -20.152139
       4A    -20.079564     5A    -20.055496     6A    -20.051602
       7A    -19.998829     8A    -19.998367     9A    -19.996773
      10A    -10.916865    11A     -7.136073    12A     -7.072415
      13A     -5.035385    14A     -5.033891    15A     -5.033030
      16A     -4.971975    17A     -4.969535    18A     -4.969402
      19A     -0.964820    20A     -0.886157    21A     -0.841222
      22A     -0.804054    23A     -0.798343    24A     -0.741307
      25A     -0.739725    26A     -0.560344    27A     -0.335689
      28A     -0.281752    29A     -0.253882    30A     -0.227973
      31A     -0.187067    32A     -0.146946    33A     -0.143888
      34A     -0.114084    35A     -0.092225    36A     -0.088382
      37A     -0.063188    38A     -0.057421    39A     -0.042776
      40A     -0.037968    41A     -0.022057    42A      0.006828
      43A      0.020757    44A      0.023087    45A      0.026252
      46A      0.028304    47A      0.065582    48A      0.069069
      49A      0.093720

  @DF-RHF Final Energy: -1245.34480400154553

   => Energetics <=

    Nuclear Repulsion Energy =            820.6160674577952250
    One-Electron Energy =               -3406.4224424354652001
    Two-Electron Energy =                1340.4615709761246762
    Total Energy =                      -1245.3448040015455263
  Basis Set: (AUG-CC-PVTZ AUX)
    Blend: AUG-CC-PVTZ-RI
    Molecular point group: c1

    Geometry (in Angstrom), charge = -3, multiplicity = 1:

       Center              X                  Y                   Z               Mass
    ------------   -----------------  -----------------  -----------------  -----------------
         P            1.244324115259    -0.578839267086     0.010391762992    30.973761998420
         P           -1.782983884741     0.194493732914     0.005069762992    30.973761998420
         O            1.407194115259     1.046779732914    -0.371342237008    15.994914619570
         O           -0.337407884741    -0.801281267086    -0.194190237008    15.994914619570
         O            1.970952515259    -1.379313167086    -1.055793437008    15.994914619570
         O            1.658840515259    -0.744640267086     1.461349662992    15.994914619570
         O           -1.782036884741     1.121268732914    -1.217247237008    15.994914619570
         O           -1.605019884741     0.885969732914     1.365422762992    15.994914619570
         O           -2.845687884741    -0.911403267086    -0.027653237008    15.994914619570
         C            2.677074115259     1.594954732914    -0.006957237008    12.000000000000
         H            2.786193115259     1.642046732914     1.079765762992     1.007825032230
         H            3.499147115259     0.998589732914    -0.418921237008     1.007825032230
         H            2.726422115259     2.601450732914    -0.427026237008     1.007825032230

  Basis Set: AUG-CC-PVTZ
    Blend: AUG-CC-PVTZ
  Basis Set: (AUG-CC-PVTZ AUX)
    Blend: AUG-CC-PVTZ-JKFIT
	 Reference Energy          =   -1245.3448040015455263 [Eh]
	 Singles Energy            =      -0.0000000000000000 [Eh]
	 Same-Spin Energy          =      -0.6460813151251626 [Eh]
	 Opposite-Spin Energy      =      -1.8064189510332400 [Eh]
	 Correlation Energy        =      -2.4525002661584026 [Eh]
	 Total Energy              =   -1247.7973042677040212 [Eh]

	 ================> DF-SCS-MP2 Energies <==================
	-----------------------------------------------------------
	 SCS Same-Spin Scale       =       0.3333333333333333 [-]
	 SCS Opposite-Spin Scale   =       1.2000000000000000 [-]
	 SCS Same-Spin Energy      =      -0.2153604383750542 [Eh]
	 SCS Opposite-Spin Energy  =      -2.1677027412398879 [Eh]
	 SCS Correlation Energy    =      -2.3830631796149420 [Eh]
	 SCS Total Energy          =   -1247.7278671811604909 [Eh]
	-----------------------------------------------------------

  Dipole Moment: [D]
     X:     7.9600      Y:     2.2930      Z:    -0.4578     Total:     8.2963

*** Psi4 exiting successfully. Buy a developer a beer!
