                               Psi4 1.3.2 release

  ==> Input File <==

--------------------------------------------------------------------------
#psi4
#
memory 32 gb

molecule  {
-3 1
  P        1.1931290    -0.6069630     0.0087730
  P       -1.8341790     0.1663700     0.0034510
  O        1.3271997     1.0200799    -0.3780617
  O       -0.3912207    -0.8023706    -0.2030345
  O        1.9273580    -1.4129110    -1.0480400
  O        1.6168640    -0.7815310     1.4560350
  O       -1.8332320     1.0931450    -1.2188660
  O       -1.6562150     0.8578460     1.3638040
  O       -2.8968830    -0.9395270    -0.0292720
  C        2.6258790     1.5668310    -0.0085760
  H        2.7349980     1.6139230     1.0781470
  H        3.4479520     0.9704660    -0.4205400
  H        2.6752270     2.5733270    -0.4286450
units angstrom
no_reorient  #important for SAPT in psi4, default
symmetry c1  #important for SAPT in psi4, default
}

set PROPERTIES_ORIGIN ["COM"]
properties('MP2/aug-cc-pvtz', properties = ['dipole'])
--------------------------------------------------------------------------

    Molecular point group: c1
  Charge       = -3
  Multiplicity = 1
  Basis Set: AUG-CC-PVTZ
    Blend: AUG-CC-PVTZ
  Basis Set: (AUG-CC-PVTZ AUX)
    Blend: AUG-CC-PVTZ-JKFIT

    Orbital Energies [Eh]
    ---------------------

    Doubly Occupied:

       1A    -79.622661     2A    -79.556690     3A    -20.153968
       4A    -20.078868     5A    -20.056408     6A    -20.052488
       7A    -19.997528     8A    -19.996195     9A    -19.994981
      10A    -10.918833    11A     -7.136640    12A     -7.070565
      13A     -5.036005    14A     -5.034385    15A     -5.033652
      16A     -4.970151    17A     -4.967711    18A     -4.967571
      19A     -0.959489    20A     -0.885167    21A     -0.842245
      22A     -0.804220    23A     -0.797764    24A     -0.739864
      25A     -0.738157    26A     -0.562149    27A     -0.336073
      28A     -0.281036    29A     -0.251168    30A     -0.222325
      31A     -0.187896    32A     -0.147071    33A     -0.144111
      34A     -0.116710    35A     -0.092050    36A     -0.088393
      37A     -0.064256    38A     -0.055661    39A     -0.042172
      40A     -0.038956    41A     -0.023429    42A      0.006217
      43A      0.020400    44A      0.024015    45A      0.027767
      46A      0.028589    47A      0.067116    48A      0.070977
      49A      0.095293

  @DF-RHF Final Energy: -1245.34306217385483

   => Energetics <=

    Nuclear Repulsion Energy =            821.0208227536218146
    One-Electron Energy =               -3407.2771889940363508
    Two-Electron Energy =                1340.9133040665597036
    Total Energy =                      -1245.3430621738548325
  Basis Set: (AUG-CC-PVTZ AUX)
    Blend: AUG-CC-PVTZ-RI
    Molecular point group: c1

    Geometry (in Angstrom), charge = -3, multiplicity = 1:

       Center              X                  Y                   Z               Mass
    ------------   -----------------  -----------------  -----------------  -----------------
         P            1.245559937466    -0.580042868414     0.010954730980    30.973761998420
         P           -1.781748062534     0.193290131586     0.005632730980    30.973761998420
         O            1.379630637466     1.047000031586    -0.375879969020    15.994914619570
         O           -0.338789762534    -0.775450468414    -0.200852769020    15.994914619570
         O            1.979788937466    -1.385990868414    -1.045858269020    15.994914619570
         O            1.669294937466    -0.754610868414     1.458216730980    15.994914619570
         O           -1.780801062534     1.120065131586    -1.216684269020    15.994914619570
         O           -1.603784062534     0.884766131586     1.365985730980    15.994914619570
         O           -2.844452062534    -0.912606868414    -0.027090269020    15.994914619570
         C            2.678309937466     1.593751131586    -0.006394269020    12.000000000000
         H            2.787428937466     1.640843131586     1.080328730980     1.007825032230
         H            3.500382937466     0.997386131586    -0.418358269020     1.007825032230
         H            2.727657937466     2.600247131586    -0.426463269020     1.007825032230

  Basis Set: AUG-CC-PVTZ
    Blend: AUG-CC-PVTZ
  Basis Set: (AUG-CC-PVTZ AUX)
    Blend: AUG-CC-PVTZ-JKFIT
	 Reference Energy          =   -1245.3430621738548325 [Eh]
	 Singles Energy            =      -0.0000000000000000 [Eh]
	 Same-Spin Energy          =      -0.6461857769929346 [Eh]
	 Opposite-Spin Energy      =      -1.8068943799412776 [Eh]
	 Correlation Energy        =      -2.4530801569342122 [Eh]
	 Total Energy              =   -1247.7961423307890527 [Eh]

	 ================> DF-SCS-MP2 Energies <==================
	-----------------------------------------------------------
	 SCS Same-Spin Scale       =       0.3333333333333333 [-]
	 SCS Opposite-Spin Scale   =       1.2000000000000000 [-]
	 SCS Same-Spin Energy      =      -0.2153952589976448 [Eh]
	 SCS Opposite-Spin Energy  =      -2.1682732559295328 [Eh]
	 SCS Correlation Energy    =      -2.3836685149271775 [Eh]
	 SCS Total Energy          =   -1247.7267306887820268 [Eh]
	-----------------------------------------------------------

  Dipole Moment: [D]
     X:     8.1092      Y:     2.2816      Z:    -0.4553     Total:     8.4363

*** Psi4 exiting successfully. Buy a developer a beer!
