                               Psi4 1.4a3.dev225

  ==> Input File <==

--------------------------------------------------------------------------
#psi4
#
memory 32 gb

molecule  {
-3 1
  P       -1.1253500     0.3591720     0.0081310
  P        2.0878660    -0.1053470     0.0007630
  O       -2.1391380    -1.0979190    -0.1147190
  O        0.2405970    -0.4148950    -0.1339660
  O       -1.5628960     1.1822930    -1.2021870
  O       -1.4752280     0.9069340     1.3887990
  O        2.4385690    -0.8874190     1.2758270
  O        2.1989840     1.4211450     0.0869110
  O        2.5676630    -0.7478960    -1.3107960
  C       -3.5391862    -0.7607619    -0.0112021
  H       -3.7335280    -0.2943150     0.9495100
  H       -3.8114220    -0.0788120    -0.8111520
  H       -4.0969940    -1.6975630    -0.1019980
units angstrom
no_reorient  #important for SAPT in psi4, default
symmetry c1  #important for SAPT in psi4, default
}

set PROPERTIES_ORIGIN ["COM"]
properties('MP2/aug-cc-pvtz', properties = ['dipole'])
--------------------------------------------------------------------------

    Molecular point group: c1
  Charge       = -3
  Multiplicity = 1
  Basis Set: AUG-CC-PVTZ
    Blend: AUG-CC-PVTZ
  Basis Set: (AUG-CC-PVTZ AUX)
    Blend: AUG-CC-PVTZ-JKFIT

    Orbital Energies [Eh]
    ---------------------

    Doubly Occupied:

       1A    -79.626836     2A    -79.584908     3A    -20.142949
       4A    -20.087149     5A    -20.054430     6A    -20.054050
       7A    -20.021991     8A    -20.021861     9A    -20.021010
      10A    -10.908745    11A     -7.139704    12A     -7.098213
      13A     -5.039107    14A     -5.037349    15A     -5.036525
      16A     -4.997912    17A     -4.994911    18A     -4.994894
      19A     -0.941061    20A     -0.881305    21A     -0.845306
      22A     -0.814947    23A     -0.799947    24A     -0.762618
      25A     -0.761395    26A     -0.550460    27A     -0.329031
      28A     -0.267348    29A     -0.248101    30A     -0.206297
      31A     -0.196783    32A     -0.156588    33A     -0.142833
      34A     -0.117406    35A     -0.099004    36A     -0.096851
      37A     -0.078112    38A     -0.055558    39A     -0.048713
      40A     -0.029236    41A     -0.011566    42A      0.000055
      43A      0.002335    44A      0.004208    45A      0.010036
      46A      0.023182    47A      0.043864    48A      0.048941
      49A      0.071532

  @DF-RHF Final Energy: -1245.33869363963981

   => Energetics <=

    Nuclear Repulsion Energy =            795.8207859478255841
    One-Electron Energy =               -3356.1212455835748187
    Two-Electron Energy =                1314.9617659961093068
    Total Energy =                      -1245.3386936396398141
  Basis Set: (AUG-CC-PVTZ AUX)
    Blend: AUG-CC-PVTZ-RI
    Molecular point group: c1

    Geometry (in Angstrom), charge = -3, multiplicity = 1:

       Center              X                  Y                   Z               Mass
    ------------   -----------------  -----------------  -----------------  -----------------
         P           -1.188306671866     0.346257930105     0.008048138465    30.973761998420
         P            2.024909328134    -0.118261069895     0.000680138465    30.973761998420
         O           -2.202094671866    -1.110833069895    -0.114801861535    15.994914619570
         O            0.177640328134    -0.427809069895    -0.134048861535    15.994914619570
         O           -1.625852671866     1.169378930105    -1.202269861535    15.994914619570
         O           -1.538184671866     0.894019930105     1.388716138465    15.994914619570
         O            2.375612328134    -0.900333069895     1.275744138465    15.994914619570
         O            2.136027328134     1.408230930105     0.086828138465    15.994914619570
         O            2.504706328134    -0.760810069895    -1.310878861535    15.994914619570
         C           -3.602142871866    -0.773675969895    -0.011284961535    12.000000000000
         H           -3.796484671866    -0.307229069895     0.949427138465     1.007825032230
         H           -3.874378671866    -0.091726069895    -0.811234861535     1.007825032230
         H           -4.159950671866    -1.710477069895    -0.102080861535     1.007825032230

  Basis Set: AUG-CC-PVTZ
    Blend: AUG-CC-PVTZ
  Basis Set: (AUG-CC-PVTZ AUX)
    Blend: AUG-CC-PVTZ-JKFIT
	 Reference Energy          =   -1245.3386936396398141 [Eh]
	 Singles Energy            =      -0.0000000000000000 [Eh]
	 Same-Spin Energy          =      -0.6475670696997482 [Eh]
	 Opposite-Spin Energy      =      -1.8110057414460299 [Eh]
	 Correlation Energy        =      -2.4585728111457783 [Eh]
	 Total Energy              =   -1247.7972664507856280 [Eh]

	 ================> DF-SCS-MP2 Energies <==================
	-----------------------------------------------------------
	 SCS Same-Spin Scale       =       0.3333333333333333 [-]
	 SCS Opposite-Spin Scale   =       1.2000000000000000 [-]
	 SCS Same-Spin Energy      =      -0.2158556898999160 [Eh]
	 SCS Opposite-Spin Energy  =      -2.1732068897352357 [Eh]
	 SCS Correlation Energy    =      -2.3890625796351519 [Eh]
	 SCS Total Energy          =   -1247.7277562192750793 [Eh]
	-----------------------------------------------------------

  Dipole Moment: [D]
     X:    -7.9641      Y:    -1.8291      Z:    -0.1600     Total:     8.1730

*** Psi4 exiting successfully. Buy a developer a beer!
