                               Psi4 1.3.2 release

  ==> Input File <==

--------------------------------------------------------------------------
#psi4
#
memory 32 gb

molecule  {
-3 1
  P        1.1931290    -0.6069630     0.0087730
  P       -1.8341790     0.1663700     0.0034510
  O        1.3559990     1.0186560    -0.3729610
  O       -0.3886030    -0.8294050    -0.1958090
  O        1.9273580    -1.4129110    -1.0480400
  O        1.5610392    -0.7585326     1.2653660
  O       -1.8332320     1.0931450    -1.2188660
  O       -1.6562150     0.8578460     1.3638040
  O       -2.8968830    -0.9395270    -0.0292720
  C        2.6258790     1.5668310    -0.0085760
  H        2.7349980     1.6139230     1.0781470
  H        3.4479520     0.9704660    -0.4205400
  H        2.6752270     2.5733270    -0.4286450
units angstrom
no_reorient  #important for SAPT in psi4, default
symmetry c1  #important for SAPT in psi4, default
}

set PROPERTIES_ORIGIN ["COM"]
properties('MP2/aug-cc-pvtz', properties = ['dipole'])
--------------------------------------------------------------------------

    Molecular point group: c1
  Charge       = -3
  Multiplicity = 1
  Basis Set: AUG-CC-PVTZ
    Blend: AUG-CC-PVTZ
  Basis Set: (AUG-CC-PVTZ AUX)
    Blend: AUG-CC-PVTZ-JKFIT

    Orbital Energies [Eh]
    ---------------------

    Doubly Occupied:

       1A    -79.574849     2A    -79.553617     3A    -20.137878
       4A    -20.064219     5A    -20.039127     6A    -20.036026
       7A    -19.994195     8A    -19.994112     9A    -19.993804
      10A    -10.912919    11A     -7.101960    12A     -7.067314
      13A     -5.002159    14A     -4.999065    15A     -4.997296
      16A     -4.966804    17A     -4.964509    18A     -4.964386
      19A     -0.976259    20A     -0.908472    21A     -0.858868
      22A     -0.809128    23A     -0.788898    24A     -0.736781
      25A     -0.736421    26A     -0.555017    27A     -0.321538
      28A     -0.279132    29A     -0.249409    30A     -0.220085
      31A     -0.192659    32A     -0.154385    33A     -0.146809
      34A     -0.124696    35A     -0.088041    36A     -0.084808
      37A     -0.071028    38A     -0.058226    39A     -0.048342
      40A     -0.038219    41A     -0.025436    42A      0.007750
      43A      0.022336    44A      0.027645    45A      0.029980
      46A      0.035339    47A      0.070050    48A      0.073949
      49A      0.097463

  @DF-RHF Final Energy: -1245.30238767762603

   => Energetics <=

    Nuclear Repulsion Energy =            830.8321012129189285
    One-Electron Energy =               -3427.3242160989348122
    Two-Electron Energy =                1351.1897272083897406
    Total Energy =                      -1245.3023876776260295
  Basis Set: (AUG-CC-PVTZ AUX)
    Blend: AUG-CC-PVTZ-RI
    Molecular point group: c1

    Geometry (in Angstrom), charge = -3, multiplicity = 1:

       Center              X                  Y                   Z               Mass
    ------------   -----------------  -----------------  -----------------  -----------------
         P            1.247626255763    -0.579580643582     0.026052895947    30.973761998420
         P           -1.779681744237     0.193752356418     0.020730895947    30.973761998420
         O            1.410496255763     1.046038356418    -0.355681104053    15.994914619570
         O           -0.334105744237    -0.802022643582    -0.178529104053    15.994914619570
         O            1.981855255763    -1.385528643582    -1.030760104053    15.994914619570
         O            1.615536455763    -0.731150243582     1.282645895947    15.994914619570
         O           -1.778734744237     1.120527356418    -1.201586104053    15.994914619570
         O           -1.601717744237     0.885228356418     1.381083895947    15.994914619570
         O           -2.842385744237    -0.912144643582    -0.011992104053    15.994914619570
         C            2.680376255763     1.594213356418     0.008703895947    12.000000000000
         H            2.789495255763     1.641305356418     1.095426895947     1.007825032230
         H            3.502449255763     0.997848356418    -0.403260104053     1.007825032230
         H            2.729724255763     2.600709356418    -0.411365104053     1.007825032230

  Basis Set: AUG-CC-PVTZ
    Blend: AUG-CC-PVTZ
  Basis Set: (AUG-CC-PVTZ AUX)
    Blend: AUG-CC-PVTZ-JKFIT
	 Reference Energy          =   -1245.3023876776260295 [Eh]
	 Singles Energy            =      -0.0000000000000000 [Eh]
	 Same-Spin Energy          =      -0.6422495233309465 [Eh]
	 Opposite-Spin Energy      =      -1.7969393676295946 [Eh]
	 Correlation Energy        =      -2.4391888909605410 [Eh]
	 Total Energy              =   -1247.7415765685866518 [Eh]

	 ================> DF-SCS-MP2 Energies <==================
	-----------------------------------------------------------
	 SCS Same-Spin Scale       =       0.3333333333333333 [-]
	 SCS Opposite-Spin Scale   =       1.2000000000000000 [-]
	 SCS Same-Spin Energy      =      -0.2140831744436488 [Eh]
	 SCS Opposite-Spin Energy  =      -2.1563272411555134 [Eh]
	 SCS Correlation Energy    =      -2.3704104155991623 [Eh]
	 SCS Total Energy          =   -1247.6727980932250830 [Eh]
	-----------------------------------------------------------

  Dipole Moment: [D]
     X:     8.3793      Y:     2.0681      Z:     0.6150     Total:     8.6527

*** Psi4 exiting successfully. Buy a developer a beer!
