                               Psi4 1.3.2 release

  ==> Input File <==

--------------------------------------------------------------------------
#psi4
#
memory 32 gb

molecule  {
-3 1
  P        1.1931290    -0.6069630     0.0087730
  P       -1.8341790     0.1663700     0.0034510
  O        1.3559990     1.0186560    -0.3729610
  O       -0.3886030    -0.8294050    -0.1958090
  O        1.9273580    -1.4129110    -1.0480400
  O        1.6168640    -0.7815310     1.4560350
  O       -1.8331085     1.2139809    -1.3782356
  O       -1.6562150     0.8578460     1.3638040
  O       -2.8968830    -0.9395270    -0.0292720
  C        2.6258790     1.5668310    -0.0085760
  H        2.7349980     1.6139230     1.0781470
  H        3.4479520     0.9704660    -0.4205400
  H        2.6752270     2.5733270    -0.4286450
units angstrom
no_reorient  #important for SAPT in psi4, default
symmetry c1  #important for SAPT in psi4, default
}

set PROPERTIES_ORIGIN ["COM"]
properties('MP2/aug-cc-pvtz', properties = ['dipole'])
--------------------------------------------------------------------------

    Molecular point group: c1
  Charge       = -3
  Multiplicity = 1
  Basis Set: AUG-CC-PVTZ
    Blend: AUG-CC-PVTZ
  Basis Set: (AUG-CC-PVTZ AUX)
    Blend: AUG-CC-PVTZ-JKFIT

    Orbital Energies [Eh]
    ---------------------

    Doubly Occupied:

       1A    -79.627621     2A    -79.589162     3A    -20.155046
       4A    -20.093163     5A    -20.058502     6A    -20.055700
       7A    -20.016295     8A    -20.015006     9A    -20.009500
      10A    -10.918539    11A     -7.141660    12A     -7.099385
      13A     -5.040952    14A     -5.039492    15A     -5.038602
      16A     -4.998943    17A     -4.996563    18A     -4.995783
      19A     -0.968212    20A     -0.893059    21A     -0.843797
      22A     -0.807322    23A     -0.802174    24A     -0.755960
      25A     -0.696479    26A     -0.562278    27A     -0.342513
      28A     -0.289341    29A     -0.255907    30A     -0.232026
      31A     -0.192304    32A     -0.153044    33A     -0.149121
      34A     -0.117286    35A     -0.097497    36A     -0.092590
      37A     -0.064756    38A     -0.061139    39A     -0.043598
      40A     -0.041201    41A     -0.024487    42A      0.002089
      43A      0.012424    44A      0.022880    45A      0.027621
      46A      0.041847    47A      0.053675    48A      0.077364
      49A      0.088814

  @DF-RHF Final Energy: -1245.31158891635619

   => Energetics <=

    Nuclear Repulsion Energy =            812.2809777319682780
    One-Electron Energy =               -3389.0865564467649165
    Two-Electron Energy =                1331.4939897984406798
    Total Energy =                      -1245.3115889163561860
  Basis Set: (AUG-CC-PVTZ AUX)
    Blend: AUG-CC-PVTZ-RI
    Molecular point group: c1

    Geometry (in Angstrom), charge = -3, multiplicity = 1:

       Center              X                  Y                   Z               Mass
    ------------   -----------------  -----------------  -----------------  -----------------
         P            1.242889778243    -0.587863381741     0.023403147796    30.973761998420
         P           -1.784418221757     0.185469618259     0.018081147796    30.973761998420
         O            1.405759778243     1.037755618259    -0.358330852204    15.994914619570
         O           -0.338842221757    -0.810305381741    -0.181178852204    15.994914619570
         O            1.977118778243    -1.393811381741    -1.033409852204    15.994914619570
         O            1.666624778243    -0.762431381741     1.470665147796    15.994914619570
         O           -1.783347721757     1.233080518259    -1.363605452204    15.994914619570
         O           -1.606454221757     0.876945618259     1.378434147796    15.994914619570
         O           -2.847122221757    -0.920427381741    -0.014641852204    15.994914619570
         C            2.675639778243     1.585930618259     0.006054147796    12.000000000000
         H            2.784758778243     1.633022618259     1.092777147796     1.007825032230
         H            3.497712778243     0.989565618259    -0.405909852204     1.007825032230
         H            2.724987778243     2.592426618259    -0.414014852204     1.007825032230

  Basis Set: AUG-CC-PVTZ
    Blend: AUG-CC-PVTZ
  Basis Set: (AUG-CC-PVTZ AUX)
    Blend: AUG-CC-PVTZ-JKFIT
	 Reference Energy          =   -1245.3115889163561860 [Eh]
	 Singles Energy            =      -0.0000000000000000 [Eh]
	 Same-Spin Energy          =      -0.6493439404476140 [Eh]
	 Opposite-Spin Energy      =      -1.8155941641020013 [Eh]
	 Correlation Energy        =      -2.4649381045496153 [Eh]
	 Total Energy              =   -1247.7765270209058599 [Eh]

	 ================> DF-SCS-MP2 Energies <==================
	-----------------------------------------------------------
	 SCS Same-Spin Scale       =       0.3333333333333333 [-]
	 SCS Opposite-Spin Scale   =       1.2000000000000000 [-]
	 SCS Same-Spin Energy      =      -0.2164479801492047 [Eh]
	 SCS Opposite-Spin Energy  =      -2.1787129969224015 [Eh]
	 SCS Correlation Energy    =      -2.3951609770716060 [Eh]
	 SCS Total Energy          =   -1247.7067498934277410 [Eh]
	-----------------------------------------------------------

  Dipole Moment: [D]
     X:     8.1499      Y:     1.4295      Z:     0.7001     Total:     8.3039

*** Psi4 exiting successfully. Buy a developer a beer!
