                               Psi4 1.3.2 release

  ==> Input File <==

--------------------------------------------------------------------------
#psi4
#
memory 32 gb

molecule  {
-3 1
  P        1.1931290    -0.6069630     0.0087730
  P       -1.8341790     0.1663700     0.0034510
  O        1.3559990     1.0186560    -0.3729610
  O       -0.3685744    -0.8093808    -0.1410340
  O        1.9273580    -1.4129110    -1.0480400
  O        1.6168640    -0.7815310     1.4560350
  O       -1.8332320     1.0931450    -1.2188660
  O       -1.6092385     0.8326019     1.3694332
  O       -2.8968830    -0.9395270    -0.0292720
  C        2.6258790     1.5668310    -0.0085760
  H        2.7349980     1.6139230     1.0781470
  H        3.4479520     0.9704660    -0.4205400
  H        2.6752270     2.5733270    -0.4286450
units angstrom
no_reorient  #important for SAPT in psi4, default
symmetry c1  #important for SAPT in psi4, default
}

set PROPERTIES_ORIGIN ["COM"]
properties('MP2/aug-cc-pvtz', properties = ['dipole'])
--------------------------------------------------------------------------

    Molecular point group: c1
  Charge       = -3
  Multiplicity = 1
  Basis Set: AUG-CC-PVTZ
    Blend: AUG-CC-PVTZ
  Basis Set: (AUG-CC-PVTZ AUX)
    Blend: AUG-CC-PVTZ-JKFIT

    Orbital Energies [Eh]
    ---------------------

    Doubly Occupied:

       1A    -79.616377     2A    -79.561342     3A    -20.149494
       4A    -20.076172     5A    -20.053245     6A    -20.044265
       7A    -20.003443     8A    -20.002722     9A    -19.995340
      10A    -10.914666    11A     -7.130901    12A     -7.075057
      13A     -5.030262    14A     -5.028753    15A     -5.027842
      16A     -4.974711    17A     -4.972180    18A     -4.971955
      19A     -0.963224    20A     -0.889131    21A     -0.839993
      22A     -0.801321    23A     -0.798288    24A     -0.745148
      25A     -0.740905    26A     -0.558097    27A     -0.336124
      28A     -0.283402    29A     -0.251588    30A     -0.226608
      31A     -0.184235    32A     -0.147689    33A     -0.144045
      34A     -0.112158    35A     -0.094259    36A     -0.088283
      37A     -0.061441    38A     -0.056184    39A     -0.042726
      40A     -0.037269    41A     -0.019571    42A      0.011148
      43A      0.019159    44A      0.022261    45A      0.025018
      46A      0.030088    47A      0.062090    48A      0.069102
      49A      0.091114

  @DF-RHF Final Energy: -1245.34584672615892

   => Energetics <=

    Nuclear Repulsion Energy =            822.2678160806318601
    One-Electron Energy =               -3409.7864496117881572
    Two-Electron Energy =                1342.1727868049974859
    Total Energy =                      -1245.3458467261589249
  Basis Set: (AUG-CC-PVTZ AUX)
    Blend: AUG-CC-PVTZ-RI
    Molecular point group: c1

    Geometry (in Angstrom), charge = -3, multiplicity = 1:

       Center              X                  Y                   Z               Mass
    ------------   -----------------  -----------------  -----------------  -----------------
         P            1.237227708173    -0.577191735543     0.004797512537    30.973761998420
         P           -1.790080291827     0.196141264457    -0.000524487463    30.973761998420
         O            1.400097708173     1.048427264457    -0.376936487463    15.994914619570
         O           -0.324475691827    -0.779609535543    -0.145009487463    15.994914619570
         O            1.971456708173    -1.383139735543    -1.052015487463    15.994914619570
         O            1.660962708173    -0.751759735543     1.452059512537    15.994914619570
         O           -1.789133291827     1.122916264457    -1.222841487463    15.994914619570
         O           -1.565139791827     0.862373164457     1.365457712537    15.994914619570
         O           -2.852784291827    -0.909755735543    -0.033247487463    15.994914619570
         C            2.669977708173     1.596602264457    -0.012551487463    12.000000000000
         H            2.779096708173     1.643694264457     1.074171512537     1.007825032230
         H            3.492050708173     1.000237264457    -0.424515487463     1.007825032230
         H            2.719325708173     2.603098264457    -0.432620487463     1.007825032230

  Basis Set: AUG-CC-PVTZ
    Blend: AUG-CC-PVTZ
  Basis Set: (AUG-CC-PVTZ AUX)
    Blend: AUG-CC-PVTZ-JKFIT
	 Reference Energy          =   -1245.3458467261589249 [Eh]
	 Singles Energy            =      -0.0000000000000000 [Eh]
	 Same-Spin Energy          =      -0.6458070895994463 [Eh]
	 Opposite-Spin Energy      =      -1.8055063422573991 [Eh]
	 Correlation Energy        =      -2.4513134318568452 [Eh]
	 Total Energy              =   -1247.7971601580156857 [Eh]

	 ================> DF-SCS-MP2 Energies <==================
	-----------------------------------------------------------
	 SCS Same-Spin Scale       =       0.3333333333333333 [-]
	 SCS Opposite-Spin Scale   =       1.2000000000000000 [-]
	 SCS Same-Spin Energy      =      -0.2152690298664821 [Eh]
	 SCS Opposite-Spin Energy  =      -2.1666076107088790 [Eh]
	 SCS Correlation Energy    =      -2.3818766405753609 [Eh]
	 SCS Total Energy          =   -1247.7277233667343808 [Eh]
	-----------------------------------------------------------

  Dipole Moment: [D]
     X:     7.5501      Y:     2.3638      Z:    -0.5923     Total:     7.9337

*** Psi4 exiting successfully. Buy a developer a beer!
