                               Psi4 1.3.2 release

  ==> Input File <==

--------------------------------------------------------------------------
#psi4
#
memory 32 gb

molecule  {
-3 1
  P        1.2746770    -0.6051081     0.0413595
  P       -1.8341790     0.1663700     0.0034510
  O        1.3559990     1.0186560    -0.3729610
  O       -0.3886030    -0.8294050    -0.1958090
  O        1.9273580    -1.4129110    -1.0480400
  O        1.6168640    -0.7815310     1.4560350
  O       -1.8332320     1.0931450    -1.2188660
  O       -1.6562150     0.8578460     1.3638040
  O       -2.8968830    -0.9395270    -0.0292720
  C        2.6451792     1.4994625     0.0178165
  H        2.7349980     1.6139230     1.0781470
  H        3.4479520     0.9704660    -0.4205400
  H        2.6752270     2.5733270    -0.4286450
units angstrom
no_reorient  #important for SAPT in psi4, default
symmetry c1  #important for SAPT in psi4, default
}

set PROPERTIES_ORIGIN ["COM"]
properties('MP2/aug-cc-pvtz', properties = ['dipole'])
--------------------------------------------------------------------------

    Molecular point group: c1
  Charge       = -3
  Multiplicity = 1
  Basis Set: AUG-CC-PVTZ
    Blend: AUG-CC-PVTZ
  Basis Set: (AUG-CC-PVTZ AUX)
    Blend: AUG-CC-PVTZ-JKFIT

    Orbital Energies [Eh]
    ---------------------

    Doubly Occupied:

       1A    -79.622618     2A    -79.548551     3A    -20.161325
       4A    -20.066275     5A    -20.062865     6A    -20.060269
       7A    -19.991030     8A    -19.990709     9A    -19.989792
      10A    -10.922289    11A     -7.138349    12A     -7.062291
      13A     -5.037398    14A     -5.035952    15A     -5.035454
      16A     -4.961709    17A     -4.959543    18A     -4.959416
      19A     -0.974201    20A     -0.884939    21A     -0.841016
      22A     -0.825804    23A     -0.779477    24A     -0.733461
      25A     -0.732516    26A     -0.564071    27A     -0.335361
      28A     -0.275977    29A     -0.264601    30A     -0.216570
      31A     -0.192718    32A     -0.150449    33A     -0.136458
      34A     -0.123611    35A     -0.083705    36A     -0.080358
      37A     -0.072726    38A     -0.060567    39A     -0.046733
      40A     -0.032021    41A     -0.025103    42A     -0.005611
      43A      0.013396    44A      0.031167    45A      0.033194
      46A      0.037293    47A      0.074960    48A      0.078359
      49A      0.100864

  @DF-RHF Final Energy: -1245.32432308967168

   => Energetics <=

    Nuclear Repulsion Energy =            819.5730306668559706
    One-Electron Energy =               -3404.4453907105412327
    Two-Electron Energy =                1339.5480369540134689
    Total Energy =                      -1245.3243230896716796
  Basis Set: (AUG-CC-PVTZ AUX)
    Blend: AUG-CC-PVTZ-RI
    Molecular point group: c1

    Geometry (in Angstrom), charge = -3, multiplicity = 1:

       Center              X                  Y                   Z               Mass
    ------------   -----------------  -----------------  -----------------  -----------------
         P            1.309853558713    -0.571804004168     0.035479253180    30.973761998420
         P           -1.799002441287     0.199674095832    -0.002429246820    30.973761998420
         O            1.391175558713     1.051960095832    -0.378841246820    15.994914619570
         O           -0.353426441287    -0.796100904168    -0.201689246820    15.994914619570
         O            1.962534558713    -1.379606904168    -1.053920246820    15.994914619570
         O            1.652040558713    -0.748226904168     1.450154753180    15.994914619570
         O           -1.798055441287     1.126449095832    -1.224746246820    15.994914619570
         O           -1.621038441287     0.891150095832     1.357923753180    15.994914619570
         O           -2.861706441287    -0.906222904168    -0.035152246820    15.994914619570
         C            2.680355758713     1.532766595832     0.011936253180    12.000000000000
         H            2.770174558713     1.647227095832     1.072266753180     1.007825032230
         H            3.483128558713     1.003770095832    -0.426420246820     1.007825032230
         H            2.710403558713     2.606631095832    -0.434525246820     1.007825032230

  Basis Set: AUG-CC-PVTZ
    Blend: AUG-CC-PVTZ
  Basis Set: (AUG-CC-PVTZ AUX)
    Blend: AUG-CC-PVTZ-JKFIT
	 Reference Energy          =   -1245.3243230896716796 [Eh]
	 Singles Energy            =      -0.0000000000000000 [Eh]
	 Same-Spin Energy          =      -0.6465869419102187 [Eh]
	 Opposite-Spin Energy      =      -1.8077283816064800 [Eh]
	 Correlation Energy        =      -2.4543153235166986 [Eh]
	 Total Energy              =   -1247.7786384131884461 [Eh]

	 ================> DF-SCS-MP2 Energies <==================
	-----------------------------------------------------------
	 SCS Same-Spin Scale       =       0.3333333333333333 [-]
	 SCS Opposite-Spin Scale   =       1.2000000000000000 [-]
	 SCS Same-Spin Energy      =      -0.2155289806367396 [Eh]
	 SCS Opposite-Spin Energy  =      -2.1692740579277761 [Eh]
	 SCS Correlation Energy    =      -2.3848030385645158 [Eh]
	 SCS Total Energy          =   -1247.7091261282362211 [Eh]
	-----------------------------------------------------------

  Dipole Moment: [D]
     X:     9.2845      Y:     1.9756      Z:    -0.0083     Total:     9.4923

*** Psi4 exiting successfully. Buy a developer a beer!
