                               Psi4 1.3.2 release

  ==> Input File <==

--------------------------------------------------------------------------
#psi4
#
memory 32 gb

molecule  {
-3 1
  P        1.1931290    -0.6069630     0.0087730
  P       -1.8341790     0.1663700     0.0034510
  O        1.3559990     1.0186560    -0.3729610
  O       -0.3886030    -0.8294050    -0.1958090
  O        1.9273580    -1.4129110    -1.0480400
  O        1.6168640    -0.7815310     1.4560350
  O       -1.8228898     1.1553090    -1.1690864
  O       -1.6519225     0.9282208     1.3250926
  O       -2.8968830    -0.9395270    -0.0292720
  C        2.6258790     1.5668310    -0.0085760
  H        2.7349980     1.6139230     1.0781470
  H        3.4479520     0.9704660    -0.4205400
  H        2.6752270     2.5733270    -0.4286450
units angstrom
no_reorient  #important for SAPT in psi4, default
symmetry c1  #important for SAPT in psi4, default
}

set PROPERTIES_ORIGIN ["COM"]
properties('MP2/aug-cc-pvtz', properties = ['dipole'])
--------------------------------------------------------------------------

    Molecular point group: c1
  Charge       = -3
  Multiplicity = 1
  Basis Set: AUG-CC-PVTZ
    Blend: AUG-CC-PVTZ
  Basis Set: (AUG-CC-PVTZ AUX)
    Blend: AUG-CC-PVTZ-JKFIT

    Orbital Energies [Eh]
    ---------------------

    Doubly Occupied:

       1A    -79.623144     2A    -79.558943     3A    -20.152190
       4A    -20.083724     5A    -20.055650     6A    -20.051693
       7A    -20.005480     8A    -19.994049     9A    -19.992030
      10A    -10.916453    11A     -7.137164    12A     -7.072757
      13A     -5.036460    14A     -5.034968    15A     -5.034147
      16A     -4.972267    17A     -4.969915    18A     -4.969708
      19A     -0.964891    20A     -0.887868    21A     -0.842016
      22A     -0.803804    23A     -0.800128    24A     -0.746278
      25A     -0.732469    26A     -0.559999    27A     -0.336901
      28A     -0.282896    29A     -0.253506    30A     -0.227886
      31A     -0.187384    32A     -0.147265    33A     -0.144277
      34A     -0.114360    35A     -0.094246    36A     -0.087697
      37A     -0.062725    38A     -0.058993    39A     -0.043256
      40A     -0.038959    41A     -0.022497    42A      0.006876
      43A      0.018729    44A      0.023384    45A      0.026753
      46A      0.028667    47A      0.061677    48A      0.073647
      49A      0.096451

  @DF-RHF Final Energy: -1245.34338567180498

   => Energetics <=

    Nuclear Repulsion Energy =            820.4096775034633993
    One-Electron Energy =               -3405.9764090624435084
    Two-Electron Energy =                1340.2233458871749008
    Total Energy =                      -1245.3433856718049810
  Basis Set: (AUG-CC-PVTZ AUX)
    Blend: AUG-CC-PVTZ-RI
    Molecular point group: c1

    Geometry (in Angstrom), charge = -3, multiplicity = 1:

       Center              X                  Y                   Z               Mass
    ------------   -----------------  -----------------  -----------------  -----------------
         P            1.241661287430    -0.588854127175     0.008974205214    30.973761998420
         P           -1.785646712570     0.184478872825     0.003652205214    30.973761998420
         O            1.404531287430     1.036764872825    -0.372759794786    15.994914619570
         O           -0.340070712570    -0.811296127175    -0.195607794786    15.994914619570
         O            1.975890287430    -1.394802127175    -1.047838794786    15.994914619570
         O            1.665396287430    -0.763422127175     1.456236205214    15.994914619570
         O           -1.774357512570     1.173417872825    -1.168885194786    15.994914619570
         O           -1.603390212570     0.946329672825     1.325293805214    15.994914619570
         O           -2.848350712570    -0.921418127175    -0.029070794786    15.994914619570
         C            2.674411287430     1.584939872825    -0.008374794786    12.000000000000
         H            2.783530287430     1.632031872825     1.078348205214     1.007825032230
         H            3.496484287430     0.988574872825    -0.420338794786     1.007825032230
         H            2.723759287430     2.591435872825    -0.428443794786     1.007825032230

  Basis Set: AUG-CC-PVTZ
    Blend: AUG-CC-PVTZ
  Basis Set: (AUG-CC-PVTZ AUX)
    Blend: AUG-CC-PVTZ-JKFIT
	 Reference Energy          =   -1245.3433856718049810 [Eh]
	 Singles Energy            =      -0.0000000000000000 [Eh]
	 Same-Spin Energy          =      -0.6460587624138689 [Eh]
	 Opposite-Spin Energy      =      -1.8063775221553968 [Eh]
	 Correlation Energy        =      -2.4524362845692655 [Eh]
	 Total Energy              =   -1247.7958219563743114 [Eh]

	 ================> DF-SCS-MP2 Energies <==================
	-----------------------------------------------------------
	 SCS Same-Spin Scale       =       0.3333333333333333 [-]
	 SCS Opposite-Spin Scale   =       1.2000000000000000 [-]
	 SCS Same-Spin Energy      =      -0.2153529208046230 [Eh]
	 SCS Opposite-Spin Energy  =      -2.1676530265864762 [Eh]
	 SCS Correlation Energy    =      -2.3830059473910992 [Eh]
	 SCS Total Energy          =   -1247.7263916191961926 [Eh]
	-----------------------------------------------------------

  Dipole Moment: [D]
     X:     7.8840      Y:     2.0021      Z:    -0.4981     Total:     8.1495

*** Psi4 exiting successfully. Buy a developer a beer!
