                               Psi4 1.3.2 release

  ==> Input File <==

--------------------------------------------------------------------------
#psi4
#
memory 32 gb

molecule  {
-3 1
  P        1.1931290    -0.6069630     0.0087730
  P       -1.8341790     0.1663700     0.0034510
  O        1.3559990     1.0186560    -0.3729610
  O       -0.3886030    -0.8294050    -0.1958090
  O        1.9273580    -1.4129110    -1.0480400
  O        1.6168640    -0.7815310     1.4560350
  O       -1.8944576     1.0505192    -1.2485947
  O       -1.6562150     0.8578460     1.3638040
  O       -2.9210354    -0.9112946    -0.1004770
  C        2.6258790     1.5668310    -0.0085760
  H        2.7349980     1.6139230     1.0781470
  H        3.4479520     0.9704660    -0.4205400
  H        2.6752270     2.5733270    -0.4286450
units angstrom
no_reorient  #important for SAPT in psi4, default
symmetry c1  #important for SAPT in psi4, default
}

set PROPERTIES_ORIGIN ["COM"]
properties('MP2/aug-cc-pvtz', properties = ['dipole'])
--------------------------------------------------------------------------

    Molecular point group: c1
  Charge       = -3
  Multiplicity = 1
  Basis Set: AUG-CC-PVTZ
    Blend: AUG-CC-PVTZ
  Basis Set: (AUG-CC-PVTZ AUX)
    Blend: AUG-CC-PVTZ-JKFIT

    Orbital Energies [Eh]
    ---------------------

    Doubly Occupied:

       1A    -79.624066     2A    -79.559007     3A    -20.155081
       4A    -20.083799     5A    -20.056252     6A    -20.052720
       7A    -20.004030     8A    -19.993932     9A    -19.993523
      10A    -10.918805    11A     -7.138117    12A     -7.072833
      13A     -5.037423    14A     -5.035910    15A     -5.035088
      16A     -4.972343    17A     -4.970100    18A     -4.969667
      19A     -0.967371    20A     -0.888525    21A     -0.842468
      22A     -0.804657    23A     -0.800237    24A     -0.745351
      25A     -0.733424    26A     -0.562423    27A     -0.338161
      28A     -0.283933    29A     -0.255990    30A     -0.230397
      31A     -0.188354    32A     -0.148470    33A     -0.144811
      34A     -0.116264    35A     -0.092249    36A     -0.090376
      37A     -0.064848    38A     -0.058802    39A     -0.042891
      40A     -0.039557    41A     -0.023836    42A      0.005300
      43A      0.019161    44A      0.023473    45A      0.026130
      46A      0.028261    47A      0.063669    48A      0.071851
      49A      0.096373

  @DF-RHF Final Energy: -1245.34330523943117

   => Energetics <=

    Nuclear Repulsion Energy =            819.6100539499910838
    One-Electron Energy =               -3404.3029734566721345
    Two-Electron Energy =                1339.3496142672497626
    Total Energy =                      -1245.3433052394311744
  Basis Set: (AUG-CC-PVTZ AUX)
    Blend: AUG-CC-PVTZ-RI
    Molecular point group: c1

    Geometry (in Angstrom), charge = -3, multiplicity = 1:

       Center              X                  Y                   Z               Mass
    ------------   -----------------  -----------------  -----------------  -----------------
         P            1.250128173917    -0.576415124341     0.018456074753    30.973761998420
         P           -1.777179826083     0.196917875659     0.013134074753    30.973761998420
         O            1.412998173917     1.049203875659    -0.363277925247    15.994914619570
         O           -0.331603826083    -0.798857124341    -0.186125925247    15.994914619570
         O            1.984357173917    -1.382363124341    -1.038356925247    15.994914619570
         O            1.673863173917    -0.750983124341     1.465718074753    15.994914619570
         O           -1.837458426083     1.081067075659    -1.238911625247    15.994914619570
         O           -1.599215826083     0.888393875659     1.373487074753    15.994914619570
         O           -2.864036226083    -0.880746724341    -0.090793925247    15.994914619570
         C            2.682878173917     1.597378875659     0.001107074753    12.000000000000
         H            2.791997173917     1.644470875659     1.087830074753     1.007825032230
         H            3.504951173917     1.001013875659    -0.410856925247     1.007825032230
         H            2.732226173917     2.603874875659    -0.418961925247     1.007825032230

  Basis Set: AUG-CC-PVTZ
    Blend: AUG-CC-PVTZ
  Basis Set: (AUG-CC-PVTZ AUX)
    Blend: AUG-CC-PVTZ-JKFIT
	 Reference Energy          =   -1245.3433052394311744 [Eh]
	 Singles Energy            =      -0.0000000000000000 [Eh]
	 Same-Spin Energy          =      -0.6460450908670308 [Eh]
	 Opposite-Spin Energy      =      -1.8063867213106883 [Eh]
	 Correlation Energy        =      -2.4524318121777191 [Eh]
	 Total Energy              =   -1247.7957370516089668 [Eh]

	 ================> DF-SCS-MP2 Energies <==================
	-----------------------------------------------------------
	 SCS Same-Spin Scale       =       0.3333333333333333 [-]
	 SCS Opposite-Spin Scale   =       1.2000000000000000 [-]
	 SCS Same-Spin Energy      =      -0.2153483636223436 [Eh]
	 SCS Opposite-Spin Energy  =      -2.1676640655728261 [Eh]
	 SCS Correlation Energy    =      -2.3830124291951695 [Eh]
	 SCS Total Energy          =   -1247.7263176686262796 [Eh]
	-----------------------------------------------------------

  Dipole Moment: [D]
     X:     8.1862      Y:     2.3737      Z:    -0.1906     Total:     8.5256

*** Psi4 exiting successfully. Buy a developer a beer!
