                               Psi4 1.3.2 release

  ==> Input File <==

--------------------------------------------------------------------------
#psi4
#
memory 32 gb

molecule  {
-3 1
  P        1.1906814    -0.5937327     0.0128289
  P       -1.8253477     0.1781625     0.0079917
  O        1.3559990     1.0186560    -0.3729610
  O       -0.3886030    -0.8294050    -0.1958090
  O        1.9273580    -1.4129110    -1.0480400
  O        1.6168640    -0.7815310     1.4560350
  O       -1.8332320     1.0931450    -1.2188660
  O       -1.6562150     0.8578460     1.3638040
  O       -2.8968830    -0.9395270    -0.0292720
  C        2.6258790     1.5668310    -0.0085760
  H        2.7349980     1.6139230     1.0781470
  H        3.4479520     0.9704660    -0.4205400
  H        2.6752270     2.5733270    -0.4286450
units angstrom
no_reorient  #important for SAPT in psi4, default
symmetry c1  #important for SAPT in psi4, default
}

set PROPERTIES_ORIGIN ["COM"]
properties('MP2/aug-cc-pvtz', properties = ['dipole'])
--------------------------------------------------------------------------

    Molecular point group: c1
  Charge       = -3
  Multiplicity = 1
  Basis Set: AUG-CC-PVTZ
    Blend: AUG-CC-PVTZ
  Basis Set: (AUG-CC-PVTZ AUX)
    Blend: AUG-CC-PVTZ-JKFIT

    Orbital Energies [Eh]
    ---------------------

    Doubly Occupied:

       1A    -79.622306     2A    -79.559171     3A    -20.156366
       4A    -20.081172     5A    -20.052434     6A    -20.051193
       7A    -20.000155     8A    -19.999630     9A    -19.995951
      10A    -10.919478    11A     -7.136299    12A     -7.073019
      13A     -5.035628    14A     -5.034097    15A     -5.033237
      16A     -4.972569    17A     -4.970090    18A     -4.970056
      19A     -0.969927    20A     -0.886934    21A     -0.840048
      22A     -0.801647    23A     -0.797549    24A     -0.745102
      25A     -0.736609    26A     -0.563846    27A     -0.338109
      28A     -0.283384    29A     -0.257014    30A     -0.231804
      31A     -0.187065    32A     -0.147513    33A     -0.143469
      34A     -0.115678    35A     -0.093097    36A     -0.089245
      37A     -0.064912    38A     -0.057888    39A     -0.043646
      40A     -0.036162    41A     -0.021474    42A      0.007854
      43A      0.021865    44A      0.023886    45A      0.025014
      46A      0.029269    47A      0.065732    48A      0.067843
      49A      0.093352

  @DF-RHF Final Energy: -1245.34449402543873

   => Energetics <=

    Nuclear Repulsion Energy =            820.8717889300882007
    One-Electron Energy =               -3406.8722512067138268
    Two-Electron Energy =                1340.6559682511867777
    Total Energy =                      -1245.3444940254387348
  Basis Set: (AUG-CC-PVTZ AUX)
    Blend: AUG-CC-PVTZ-RI
    Molecular point group: c1

    Geometry (in Angstrom), charge = -3, multiplicity = 1:

       Center              X                  Y                   Z               Mass
    ------------   -----------------  -----------------  -----------------  -----------------
         P            1.239406100139    -0.568505539507     0.012557805541    30.973761998420
         P           -1.776622999861     0.203389660493     0.007720605541    30.973761998420
         O            1.404723700139     1.043883160493    -0.373232094459    15.994914619570
         O           -0.339878299861    -0.804177839507    -0.196080094459    15.994914619570
         O            1.976082700139    -1.387683839507    -1.048311094459    15.994914619570
         O            1.665588700139    -0.756303839507     1.455763905541    15.994914619570
         O           -1.784507299861     1.118372160493    -1.219137094459    15.994914619570
         O           -1.607490299861     0.883073160493     1.363532905541    15.994914619570
         O           -2.848158299861    -0.914299839507    -0.029543094459    15.994914619570
         C            2.674603700139     1.592058160493    -0.008847094459    12.000000000000
         H            2.783722700139     1.639150160493     1.077875905541     1.007825032230
         H            3.496676700139     0.995693160493    -0.420811094459     1.007825032230
         H            2.723951700139     2.598554160493    -0.428916094459     1.007825032230

  Basis Set: AUG-CC-PVTZ
    Blend: AUG-CC-PVTZ
  Basis Set: (AUG-CC-PVTZ AUX)
    Blend: AUG-CC-PVTZ-JKFIT
	 Reference Energy          =   -1245.3444940254387348 [Eh]
	 Singles Energy            =      -0.0000000000000000 [Eh]
	 Same-Spin Energy          =      -0.6461430069265034 [Eh]
	 Opposite-Spin Energy      =      -1.8065518506709299 [Eh]
	 Correlation Energy        =      -2.4526948575974332 [Eh]
	 Total Energy              =   -1247.7971888830361422 [Eh]

	 ================> DF-SCS-MP2 Energies <==================
	-----------------------------------------------------------
	 SCS Same-Spin Scale       =       0.3333333333333333 [-]
	 SCS Opposite-Spin Scale   =       1.2000000000000000 [-]
	 SCS Same-Spin Energy      =      -0.2153810023088344 [Eh]
	 SCS Opposite-Spin Energy  =      -2.1678622208051159 [Eh]
	 SCS Correlation Energy    =      -2.3832432231139502 [Eh]
	 SCS Total Energy          =   -1247.7277372485527849 [Eh]
	-----------------------------------------------------------

  Dipole Moment: [D]
     X:     8.0245      Y:     2.6666      Z:    -0.3468     Total:     8.4631

*** Psi4 exiting successfully. Buy a developer a beer!
