                               Psi4 1.3.2 release

  ==> Input File <==

--------------------------------------------------------------------------
#psi4
#
memory 32 gb

molecule  {
-3 1
  P        1.1931290    -0.6069630     0.0087730
  P       -1.8341790     0.1663700     0.0034510
  O        1.3559990     1.0186560    -0.3729610
  O       -0.5850494    -0.8570316    -0.2212175
  O        1.9273580    -1.4129110    -1.0480400
  O        1.6168640    -0.7815310     1.4560350
  O       -1.8332320     1.0931450    -1.2188660
  O       -1.6562150     0.8578460     1.3638040
  O       -2.8968830    -0.9395270    -0.0292720
  C        2.6258790     1.5668310    -0.0085760
  H        2.7349980     1.6139230     1.0781470
  H        3.4479520     0.9704660    -0.4205400
  H        2.6752270     2.5733270    -0.4286450
units angstrom
no_reorient  #important for SAPT in psi4, default
symmetry c1  #important for SAPT in psi4, default
}

set PROPERTIES_ORIGIN ["COM"]
properties('MP2/aug-cc-pvtz', properties = ['dipole'])
--------------------------------------------------------------------------

    Molecular point group: c1
  Charge       = -3
  Multiplicity = 1
  Basis Set: AUG-CC-PVTZ
    Blend: AUG-CC-PVTZ
  Basis Set: (AUG-CC-PVTZ AUX)
    Blend: AUG-CC-PVTZ-JKFIT

    Orbital Energies [Eh]
    ---------------------

    Doubly Occupied:

       1A    -79.652618     2A    -79.532209     3A    -20.167959
       4A    -20.083193     5A    -20.077488     6A    -20.072599
       7A    -19.984019     8A    -19.982225     9A    -19.973822
      10A    -10.927946    11A     -7.164469    12A     -7.048137
      13A     -5.063522    14A     -5.062005    15A     -5.061313
      16A     -4.947788    17A     -4.945421    18A     -4.945285
      19A     -0.975873    20A     -0.883994    21A     -0.857421
      22A     -0.822319    23A     -0.774954    24A     -0.726990
      25A     -0.722367    26A     -0.571982    27A     -0.344153
      28A     -0.278667    29A     -0.265437    30A     -0.234014
      31A     -0.199358    32A     -0.150010    33A     -0.138519
      34A     -0.124554    35A     -0.093269    36A     -0.089988
      37A     -0.074841    38A     -0.062353    39A     -0.042741
      40A     -0.031970    41A     -0.026681    42A     -0.008077
      43A      0.006070    44A      0.036488    45A      0.039342
      46A      0.042044    47A      0.084154    48A      0.089603
      49A      0.109737

  @DF-RHF Final Energy: -1245.30997183773479

   => Energetics <=

    Nuclear Repulsion Energy =            818.1763427090639880
    One-Electron Energy =               -3401.4024064032896604
    Two-Electron Energy =                1337.9160918564907661
    Total Energy =                      -1245.3099718377347926
  Basis Set: (AUG-CC-PVTZ AUX)
    Blend: AUG-CC-PVTZ-RI
    Molecular point group: c1

    Geometry (in Angstrom), charge = -3, multiplicity = 1:

       Center              X                  Y                   Z               Mass
    ------------   -----------------  -----------------  -----------------  -----------------
         P            1.259531015108    -0.575294826596     0.012062253815    30.973761998420
         P           -1.767776984892     0.198038173404     0.006740253815    30.973761998420
         O            1.422401015108     1.050324173404    -0.369671746185    15.994914619570
         O           -0.518647384892    -0.825363426596    -0.217928246185    15.994914619570
         O            1.993760015108    -1.381242826596    -1.044750746185    15.994914619570
         O            1.683266015108    -0.749862826596     1.459324253815    15.994914619570
         O           -1.766829984892     1.124813173404    -1.215576746185    15.994914619570
         O           -1.589812984892     0.889514173404     1.367093253815    15.994914619570
         O           -2.830480984892    -0.907858826596    -0.025982746185    15.994914619570
         C            2.692281015108     1.598499173404    -0.005286746185    12.000000000000
         H            2.801400015108     1.645591173404     1.081436253815     1.007825032230
         H            3.514354015108     1.002134173404    -0.417250746185     1.007825032230
         H            2.741629015108     2.604995173404    -0.425355746185     1.007825032230

  Basis Set: AUG-CC-PVTZ
    Blend: AUG-CC-PVTZ
  Basis Set: (AUG-CC-PVTZ AUX)
    Blend: AUG-CC-PVTZ-JKFIT
	 Reference Energy          =   -1245.3099718377347926 [Eh]
	 Singles Energy            =      -0.0000000000000000 [Eh]
	 Same-Spin Energy          =      -0.6477190941670363 [Eh]
	 Opposite-Spin Energy      =      -1.8106447001616206 [Eh]
	 Correlation Energy        =      -2.4583637943286569 [Eh]
	 Total Energy              =   -1247.7683356320635539 [Eh]

	 ================> DF-SCS-MP2 Energies <==================
	-----------------------------------------------------------
	 SCS Same-Spin Scale       =       0.3333333333333333 [-]
	 SCS Opposite-Spin Scale   =       1.2000000000000000 [-]
	 SCS Same-Spin Energy      =      -0.2159063647223454 [Eh]
	 SCS Opposite-Spin Energy  =      -2.1727736401939448 [Eh]
	 SCS Correlation Energy    =      -2.3886800049162904 [Eh]
	 SCS Total Energy          =   -1247.6986518426510884 [Eh]
	-----------------------------------------------------------

  Dipole Moment: [D]
     X:     9.9798      Y:     2.0013      Z:    -0.4058     Total:    10.1866

*** Psi4 exiting successfully. Buy a developer a beer!
