                               Psi4 1.3.2 release

  ==> Input File <==

--------------------------------------------------------------------------
#psi4
#
memory 32 gb

molecule  {
-3 1
  P        1.1931290    -0.6069630     0.0087730
  P       -1.8341790     0.1663700     0.0034510
  O        1.3559990     1.0186560    -0.3729610
  O       -0.3543077    -0.7782225    -0.1932423
  O        1.9273580    -1.4129110    -1.0480400
  O        1.6168640    -0.7815310     1.4560350
  O       -1.8332320     1.0931450    -1.2188660
  O       -1.6562150     0.8578460     1.3638040
  O       -2.9346646    -0.9021117    -0.0229536
  C        2.6258790     1.5668310    -0.0085760
  H        2.7349980     1.6139230     1.0781470
  H        3.4479520     0.9704660    -0.4205400
  H        2.6752270     2.5733270    -0.4286450
units angstrom
no_reorient  #important for SAPT in psi4, default
symmetry c1  #important for SAPT in psi4, default
}

set PROPERTIES_ORIGIN ["COM"]
properties('MP2/aug-cc-pvtz', properties = ['dipole'])
--------------------------------------------------------------------------

    Molecular point group: c1
  Charge       = -3
  Multiplicity = 1
  Basis Set: AUG-CC-PVTZ
    Blend: AUG-CC-PVTZ
  Basis Set: (AUG-CC-PVTZ AUX)
    Blend: AUG-CC-PVTZ-JKFIT

    Orbital Energies [Eh]
    ---------------------

    Doubly Occupied:

       1A    -79.618014     2A    -79.561946     3A    -20.149167
       4A    -20.081969     5A    -20.053615     6A    -20.048757
       7A    -20.003514     8A    -19.998250     9A    -19.995980
      10A    -10.914537    11A     -7.132730    12A     -7.075601
      13A     -5.032124    14A     -5.030605    15A     -5.029671
      16A     -4.975178    17A     -4.972732    18A     -4.972516
      19A     -0.964860    20A     -0.893567    21A     -0.841272
      22A     -0.804301    23A     -0.801514    24A     -0.743086
      25A     -0.739822    26A     -0.558203    27A     -0.340418
      28A     -0.285927    29A     -0.251816    30A     -0.226898
      31A     -0.186487    32A     -0.149261    33A     -0.146460
      34A     -0.113502    35A     -0.095569    36A     -0.088960
      37A     -0.061524    38A     -0.056572    39A     -0.046176
      40A     -0.040069    41A     -0.020896    42A      0.008056
      43A      0.017835    44A      0.020848    45A      0.026223
      46A      0.028315    47A      0.063256    48A      0.068692
      49A      0.093023

  @DF-RHF Final Energy: -1245.34808315771443

   => Energetics <=

    Nuclear Repulsion Energy =            821.7711796391026837
    One-Electron Energy =               -3408.6828843814259926
    Two-Electron Energy =                1341.5636215846088817
    Total Energy =                      -1245.3480831577144272
  Basis Set: (AUG-CC-PVTZ AUX)
    Blend: AUG-CC-PVTZ-RI
    Molecular point group: c1

    Geometry (in Angstrom), charge = -3, multiplicity = 1:

       Center              X                  Y                   Z               Mass
    ------------   -----------------  -----------------  -----------------  -----------------
         P            1.243195377101    -0.585134165019     0.009159022341    30.973761998420
         P           -1.784112622899     0.188198834981     0.003837022341    30.973761998420
         O            1.406065377101     1.040484834981    -0.372574977659    15.994914619570
         O           -0.304241322899    -0.756393665019    -0.192856277659    15.994914619570
         O            1.977424377101    -1.391082165019    -1.047653977659    15.994914619570
         O            1.666930377101    -0.759702165019     1.456421022341    15.994914619570
         O           -1.783165622899     1.114973834981    -1.218479977659    15.994914619570
         O           -1.606148622899     0.879674834981     1.364190022341    15.994914619570
         O           -2.884598222899    -0.880282865019    -0.022567577659    15.994914619570
         C            2.675945377101     1.588659834981    -0.008189977659    12.000000000000
         H            2.785064377101     1.635751834981     1.078533022341     1.007825032230
         H            3.498018377101     0.992294834981    -0.420153977659     1.007825032230
         H            2.725293377101     2.595155834981    -0.428258977659     1.007825032230

  Basis Set: AUG-CC-PVTZ
    Blend: AUG-CC-PVTZ
  Basis Set: (AUG-CC-PVTZ AUX)
    Blend: AUG-CC-PVTZ-JKFIT
	 Reference Energy          =   -1245.3480831577144272 [Eh]
	 Singles Energy            =      -0.0000000000000000 [Eh]
	 Same-Spin Energy          =      -0.6454888030379426 [Eh]
	 Opposite-Spin Energy      =      -1.8048137127773709 [Eh]
	 Correlation Energy        =      -2.4503025158153138 [Eh]
	 Total Energy              =   -1247.7983856735297650 [Eh]

	 ================> DF-SCS-MP2 Energies <==================
	-----------------------------------------------------------
	 SCS Same-Spin Scale       =       0.3333333333333333 [-]
	 SCS Opposite-Spin Scale   =       1.2000000000000000 [-]
	 SCS Same-Spin Energy      =      -0.2151629343459809 [Eh]
	 SCS Opposite-Spin Energy  =      -2.1657764553328449 [Eh]
	 SCS Correlation Energy    =      -2.3809393896788258 [Eh]
	 SCS Total Energy          =   -1247.7290225473932423 [Eh]
	-----------------------------------------------------------

  Dipole Moment: [D]
     X:     7.7238      Y:     2.1725      Z:    -0.5075     Total:     8.0396

*** Psi4 exiting successfully. Buy a developer a beer!
