                               Psi4 1.3.2 release

  ==> Input File <==

--------------------------------------------------------------------------
#psi4
#
memory 32 gb

molecule  {
-3 1
  P        1.1931290    -0.6069630     0.0087730
  P       -1.8341790     0.1663700     0.0034510
  O        1.3559990     1.0186560    -0.3729610
  O       -0.3886030    -0.8294050    -0.1958090
  O        1.9273580    -1.4129110    -1.0480400
  O        1.6168640    -0.7815310     1.4560350
  O       -1.8332320     1.0931450    -1.2188660
  O       -1.6562150     0.8578460     1.3638040
  O       -2.8968830    -0.9395270    -0.0292720
  C        2.6258790     1.5668310    -0.0085760
  H        2.7507467     1.6032290     1.0768616
  H        3.4547271     0.9678845    -0.4028391
  H        2.6752270     2.5733270    -0.4286450
units angstrom
no_reorient  #important for SAPT in psi4, default
symmetry c1  #important for SAPT in psi4, default
}

set PROPERTIES_ORIGIN ["COM"]
properties('MP2/aug-cc-pvtz', properties = ['dipole'])
--------------------------------------------------------------------------

    Molecular point group: c1
  Charge       = -3
  Multiplicity = 1
  Basis Set: AUG-CC-PVTZ
    Blend: AUG-CC-PVTZ
  Basis Set: (AUG-CC-PVTZ AUX)
    Blend: AUG-CC-PVTZ-JKFIT

    Orbital Energies [Eh]
    ---------------------

    Doubly Occupied:

       1A    -79.622092     2A    -79.559101     3A    -20.153410
       4A    -20.080589     5A    -20.054713     6A    -20.050901
       7A    -19.999282     8A    -19.998776     9A    -19.997249
      10A    -10.917164    11A     -7.136132    12A     -7.072915
      13A     -5.035442    14A     -5.033916    15A     -5.033114
      16A     -4.972478    17A     -4.970030    18A     -4.969899
      19A     -0.965342    20A     -0.886634    21A     -0.841531
      22A     -0.802949    23A     -0.798933    24A     -0.741742
      25A     -0.740189    26A     -0.560992    27A     -0.336951
      28A     -0.282997    29A     -0.251412    30A     -0.228497
      31A     -0.187624    32A     -0.147308    33A     -0.143534
      34A     -0.115572    35A     -0.092783    36A     -0.088541
      37A     -0.062918    38A     -0.057667    39A     -0.043122
      40A     -0.038076    41A     -0.022256    42A      0.007256
      43A      0.021005    44A      0.022681    45A      0.025837
      46A      0.028277    47A      0.065125    48A      0.068568
      49A      0.093281

  @DF-RHF Final Energy: -1245.34510482140354

   => Energetics <=

    Nuclear Repulsion Energy =            820.4149477202718117
    One-Electron Energy =               -3405.9946157824956572
    Two-Electron Energy =                1340.2345632408203073
    Total Energy =                      -1245.3451048214035382
  Basis Set: (AUG-CC-PVTZ AUX)
    Blend: AUG-CC-PVTZ-RI
    Molecular point group: c1

    Geometry (in Angstrom), charge = -3, multiplicity = 1:

       Center              X                  Y                   Z               Mass
    ------------   -----------------  -----------------  -----------------  -----------------
         P            1.242780086373    -0.577562827848     0.009823654078    30.973761998420
         P           -1.784527913627     0.195770172152     0.004501654078    30.973761998420
         O            1.405650086373     1.048056172152    -0.371910345922    15.994914619570
         O           -0.338951913627    -0.800004827848    -0.194758345922    15.994914619570
         O            1.977009086373    -1.383510827848    -1.046989345922    15.994914619570
         O            1.666515086373    -0.752130827848     1.457085654078    15.994914619570
         O           -1.783580913627     1.122545172152    -1.217815345922    15.994914619570
         O           -1.606563913627     0.887246172152     1.364854654078    15.994914619570
         O           -2.847231913627    -0.910126827848    -0.028221345922    15.994914619570
         C            2.675530086373     1.596231172152    -0.007525345922    12.000000000000
         H            2.800397786373     1.632629172152     1.077912254078     1.007825032230
         H            3.504378186373     0.997284672152    -0.401788445922     1.007825032230
         H            2.724878086373     2.602727172152    -0.427594345922     1.007825032230

  Basis Set: AUG-CC-PVTZ
    Blend: AUG-CC-PVTZ
  Basis Set: (AUG-CC-PVTZ AUX)
    Blend: AUG-CC-PVTZ-JKFIT
	 Reference Energy          =   -1245.3451048214035382 [Eh]
	 Singles Energy            =      -0.0000000000000000 [Eh]
	 Same-Spin Energy          =      -0.6460555150090286 [Eh]
	 Opposite-Spin Energy      =      -1.8063621925252273 [Eh]
	 Correlation Energy        =      -2.4524177075342557 [Eh]
	 Total Energy              =   -1247.7975225289378614 [Eh]

	 ================> DF-SCS-MP2 Energies <==================
	-----------------------------------------------------------
	 SCS Same-Spin Scale       =       0.3333333333333333 [-]
	 SCS Opposite-Spin Scale   =       1.2000000000000000 [-]
	 SCS Same-Spin Energy      =      -0.2153518383363429 [Eh]
	 SCS Opposite-Spin Energy  =      -2.1676346310302725 [Eh]
	 SCS Correlation Energy    =      -2.3829864693666156 [Eh]
	 SCS Total Energy          =   -1247.7280912907701804 [Eh]
	-----------------------------------------------------------

  Dipole Moment: [D]
     X:     7.9125      Y:     2.3250      Z:    -0.4682     Total:     8.2603

*** Psi4 exiting successfully. Buy a developer a beer!
