                               Psi4 1.3.2 release

  ==> Input File <==

--------------------------------------------------------------------------
#psi4
#
memory 32 gb

molecule  {
-3 1
  P        1.1931290    -0.6069630     0.0087730
  P       -1.8341790     0.1663700     0.0034510
  O        1.3607275     1.0213099    -0.3593609
  O       -0.3886030    -0.8294050    -0.1958090
  O        1.9273580    -1.4129110    -1.0480400
  O        1.6193647    -0.7685444     1.4568086
  O       -1.8332320     1.0931450    -1.2188660
  O       -1.6562150     0.8578460     1.3638040
  O       -2.8968830    -0.9395270    -0.0292720
  C        2.6258790     1.5668310    -0.0085760
  H        2.7349980     1.6139230     1.0781470
  H        3.4479520     0.9704660    -0.4205400
  H        2.6752270     2.5733270    -0.4286450
units angstrom
no_reorient  #important for SAPT in psi4, default
symmetry c1  #important for SAPT in psi4, default
}

set PROPERTIES_ORIGIN ["COM"]
properties('MP2/aug-cc-pvtz', properties = ['dipole'])
--------------------------------------------------------------------------

    Molecular point group: c1
  Charge       = -3
  Multiplicity = 1
  Basis Set: AUG-CC-PVTZ
    Blend: AUG-CC-PVTZ
  Basis Set: (AUG-CC-PVTZ AUX)
    Blend: AUG-CC-PVTZ-JKFIT

    Orbital Energies [Eh]
    ---------------------

    Doubly Occupied:

       1A    -79.622364     2A    -79.559312     3A    -20.151422
       4A    -20.081316     5A    -20.055760     6A    -20.050216
       7A    -19.999488     8A    -19.998996     9A    -19.997301
      10A    -10.915769    11A     -7.136369    12A     -7.073129
      13A     -5.035682    14A     -5.034168    15A     -5.033344
      16A     -4.972696    17A     -4.970242    18A     -4.970108
      19A     -0.966787    20A     -0.887393    21A     -0.841761
      22A     -0.803196    23A     -0.799278    24A     -0.741950
      25A     -0.740287    26A     -0.559465    27A     -0.336682
      28A     -0.282726    29A     -0.254549    30A     -0.229784
      31A     -0.186938    32A     -0.147330    33A     -0.143831
      34A     -0.113469    35A     -0.093091    36A     -0.088824
      37A     -0.062209    38A     -0.057979    39A     -0.043194
      40A     -0.038382    41A     -0.022159    42A      0.007306
      43A      0.020817    44A      0.022460    45A      0.025670
      46A      0.027942    47A      0.064921    48A      0.068388
      49A      0.093136

  @DF-RHF Final Energy: -1245.34588795778404

   => Energetics <=

    Nuclear Repulsion Energy =            820.5841927963676881
    One-Electron Energy =               -3406.3235472849987673
    Two-Electron Energy =                1340.3934665308468084
    Total Energy =                      -1245.3458879577840435
  Basis Set: (AUG-CC-PVTZ AUX)
    Blend: AUG-CC-PVTZ-RI
    Molecular point group: c1

    Geometry (in Angstrom), charge = -3, multiplicity = 1:

       Center              X                  Y                   Z               Mass
    ------------   -----------------  -----------------  -----------------  -----------------
         P            1.242288223088    -0.578957737650     0.008694367821    30.973761998420
         P           -1.785019776912     0.194375262350     0.003372367821    30.973761998420
         O            1.409886723088     1.049315162350    -0.359439532179    15.994914619570
         O           -0.339443776912    -0.801399737650    -0.195887632179    15.994914619570
         O            1.976517223088    -1.384905737650    -1.048118632179    15.994914619570
         O            1.668523923088    -0.740539137650     1.456729967821    15.994914619570
         O           -1.784072776912     1.121150262350    -1.218944632179    15.994914619570
         O           -1.607055776912     0.885851262350     1.363725367821    15.994914619570
         O           -2.847723776912    -0.911521737650    -0.029350632179    15.994914619570
         C            2.675038223088     1.594836262350    -0.008654632179    12.000000000000
         H            2.784157223088     1.641928262350     1.078068367821     1.007825032230
         H            3.497111223088     0.998471262350    -0.420618632179     1.007825032230
         H            2.724386223088     2.601332262350    -0.428723632179     1.007825032230

  Basis Set: AUG-CC-PVTZ
    Blend: AUG-CC-PVTZ
  Basis Set: (AUG-CC-PVTZ AUX)
    Blend: AUG-CC-PVTZ-JKFIT
	 Reference Energy          =   -1245.3458879577840435 [Eh]
	 Singles Energy            =      -0.0000000000000000 [Eh]
	 Same-Spin Energy          =      -0.6459851038429123 [Eh]
	 Opposite-Spin Energy      =      -1.8060848720030627 [Eh]
	 Correlation Energy        =      -2.4520699758459750 [Eh]
	 Total Energy              =   -1247.7979579336299594 [Eh]

	 ================> DF-SCS-MP2 Energies <==================
	-----------------------------------------------------------
	 SCS Same-Spin Scale       =       0.3333333333333333 [-]
	 SCS Opposite-Spin Scale   =       1.2000000000000000 [-]
	 SCS Same-Spin Energy      =      -0.2153283679476374 [Eh]
	 SCS Opposite-Spin Energy  =      -2.1673018464036753 [Eh]
	 SCS Correlation Energy    =      -2.3826302143513125 [Eh]
	 SCS Total Energy          =   -1247.7285181721354093 [Eh]
	-----------------------------------------------------------

  Dipole Moment: [D]
     X:     7.8763      Y:     2.2840      Z:    -0.4932     Total:     8.2156

*** Psi4 exiting successfully. Buy a developer a beer!
