                               Psi4 1.3.2 release

  ==> Input File <==

--------------------------------------------------------------------------
#psi4
#
memory 32 gb

molecule  {
-3 1
  P        1.1931290    -0.6069630     0.0087730
  P       -1.8341790     0.1663700     0.0034510
  O        1.3559990     1.0186560    -0.3729610
  O       -0.4868262    -0.8432183    -0.2085132
  O        1.9273580    -1.4129110    -1.0480400
  O        1.6168640    -0.7815310     1.4560350
  O       -1.8332320     1.0931450    -1.2188660
  O       -1.6562150     0.8578460     1.3638040
  O       -2.8968830    -0.9395270    -0.0292720
  C        2.6258790     1.5668310    -0.0085760
  H        2.7349980     1.6139230     1.0781470
  H        3.4479520     0.9704660    -0.4205400
  H        2.6752270     2.5733270    -0.4286450
units angstrom
no_reorient  #important for SAPT in psi4, default
symmetry c1  #important for SAPT in psi4, default
}

set PROPERTIES_ORIGIN ["COM"]
properties('MP2/aug-cc-pvtz', properties = ['dipole'])
--------------------------------------------------------------------------

    Molecular point group: c1
  Charge       = -3
  Multiplicity = 1
  Basis Set: AUG-CC-PVTZ
    Blend: AUG-CC-PVTZ
  Basis Set: (AUG-CC-PVTZ AUX)
    Blend: AUG-CC-PVTZ-JKFIT

    Orbital Energies [Eh]
    ---------------------

    Doubly Occupied:

       1A    -79.639175     2A    -79.545495     3A    -20.160923
       4A    -20.083020     5A    -20.066785     6A    -20.062289
       7A    -19.990166     8A    -19.989964     9A    -19.985887
      10A    -10.922883    11A     -7.151701    12A     -7.060151
      13A     -5.050924    14A     -5.049326    15A     -5.048682
      16A     -4.959725    17A     -4.957390    18A     -4.957272
      19A     -0.970414    20A     -0.882900    21A     -0.849001
      22A     -0.813145    23A     -0.786427    24A     -0.733310
      25A     -0.731476    26A     -0.566683    27A     -0.340348
      28A     -0.280862    29A     -0.260148    30A     -0.231661
      31A     -0.193220    32A     -0.146757    33A     -0.140986
      34A     -0.120200    35A     -0.091454    36A     -0.089995
      37A     -0.068975    38A     -0.058565    39A     -0.039473
      40A     -0.034706    41A     -0.029855    42A     -0.001199
      43A      0.014052    44A      0.031329    45A      0.032181
      46A      0.033510    47A      0.076155    48A      0.077659
      49A      0.101993

  @DF-RHF Final Energy: -1245.33258413875046

   => Energetics <=

    Nuclear Repulsion Energy =            819.1113273659025253
    One-Electron Energy =               -3403.3345434547700279
    Two-Electron Energy =                1338.8906319501170401
    Total Energy =                      -1245.3325841387504624
  Basis Set: (AUG-CC-PVTZ AUX)
    Blend: AUG-CC-PVTZ-RI
    Molecular point group: c1

    Geometry (in Angstrom), charge = -3, multiplicity = 1:

       Center              X                  Y                   Z               Mass
    ------------   -----------------  -----------------  -----------------  -----------------
         P            1.251215624314    -0.576464234513     0.010986731747    30.973761998420
         P           -1.776092375686     0.196868765487     0.005664731747    30.973761998420
         O            1.414085624314     1.049154765487    -0.370747268253    15.994914619570
         O           -0.428739575686    -0.812719534513    -0.206299468253    15.994914619570
         O            1.985444624314    -1.382412234513    -1.045826268253    15.994914619570
         O            1.674950624314    -0.751032234513     1.458248731747    15.994914619570
         O           -1.775145375686     1.123643765487    -1.216652268253    15.994914619570
         O           -1.598128375686     0.888344765487     1.366017731747    15.994914619570
         O           -2.838796375686    -0.909028234513    -0.027058268253    15.994914619570
         C            2.683965624314     1.597329765487    -0.006362268253    12.000000000000
         H            2.793084624314     1.644421765487     1.080360731747     1.007825032230
         H            3.506038624314     1.000964765487    -0.418326268253     1.007825032230
         H            2.733313624314     2.603825765487    -0.426431268253     1.007825032230

  Basis Set: AUG-CC-PVTZ
    Blend: AUG-CC-PVTZ
  Basis Set: (AUG-CC-PVTZ AUX)
    Blend: AUG-CC-PVTZ-JKFIT
	 Reference Energy          =   -1245.3325841387504624 [Eh]
	 Singles Energy            =      -0.0000000000000000 [Eh]
	 Same-Spin Energy          =      -0.6467808515828620 [Eh]
	 Opposite-Spin Energy      =      -1.8083246154348647 [Eh]
	 Correlation Energy        =      -2.4551054670177268 [Eh]
	 Total Energy              =   -1247.7876896057682643 [Eh]

	 ================> DF-SCS-MP2 Energies <==================
	-----------------------------------------------------------
	 SCS Same-Spin Scale       =       0.3333333333333333 [-]
	 SCS Opposite-Spin Scale   =       1.2000000000000000 [-]
	 SCS Same-Spin Energy      =      -0.2155936171942873 [Eh]
	 SCS Opposite-Spin Energy  =      -2.1699895385218375 [Eh]
	 SCS Correlation Energy    =      -2.3855831557161249 [Eh]
	 SCS Total Energy          =   -1247.7181672944666389 [Eh]
	-----------------------------------------------------------

  Dipole Moment: [D]
     X:     9.0173      Y:     2.1631      Z:    -0.4389     Total:     9.2835

*** Psi4 exiting successfully. Buy a developer a beer!
