                               Psi4 1.4a3.dev225

  ==> Input File <==

--------------------------------------------------------------------------
#psi4
#
memory 32 gb

molecule  {
-3 1
  P       -1.1253500     0.3591720     0.0081310
  P        2.0878660    -0.1053470     0.0007630
  O       -2.1391380    -1.0979190    -0.1147190
  O        0.2405970    -0.4148950    -0.1339660
  O       -1.5628960     1.1822930    -1.2021870
  O       -1.4637642     0.8889865     1.3435611
  O        2.4385690    -0.8874190     1.2758270
  O        2.1989840     1.4211450     0.0869110
  O        2.5676630    -0.7478960    -1.3107960
  C       -3.4907010    -0.7724380    -0.0147870
  H       -3.7335280    -0.2943150     0.9495100
  H       -3.8114220    -0.0788120    -0.8111520
  H       -4.0969940    -1.6975630    -0.1019980
units angstrom
no_reorient  #important for SAPT in psi4, default
symmetry c1  #important for SAPT in psi4, default
}

set PROPERTIES_ORIGIN ["COM"]
properties('MP2/aug-cc-pvtz', properties = ['dipole'])
--------------------------------------------------------------------------

    Molecular point group: c1
  Charge       = -3
  Multiplicity = 1
  Basis Set: AUG-CC-PVTZ
    Blend: AUG-CC-PVTZ
  Basis Set: (AUG-CC-PVTZ AUX)
    Blend: AUG-CC-PVTZ-JKFIT

    Orbital Energies [Eh]
    ---------------------

    Doubly Occupied:

       1A    -79.619184     2A    -79.584525     3A    -20.141876
       4A    -20.084468     5A    -20.053325     6A    -20.051243
       7A    -20.021730     8A    -20.021455     9A    -20.020814
      10A    -10.910074    11A     -7.134091    12A     -7.097800
      13A     -5.033343    14A     -5.031745    15A     -5.030946
      16A     -4.997489    17A     -4.994509    18A     -4.994498
      19A     -0.955285    20A     -0.887525    21A     -0.852427
      22A     -0.818661    23A     -0.803954    24A     -0.762405
      25A     -0.761064    26A     -0.541248    27A     -0.330847
      28A     -0.267225    29A     -0.244752    30A     -0.210119
      31A     -0.204242    32A     -0.157138    33A     -0.143939
      34A     -0.117386    35A     -0.098774    36A     -0.097036
      37A     -0.080231    38A     -0.052559    39A     -0.049560
      40A     -0.032041    41A     -0.016045    42A     -0.000313
      43A      0.002345    44A      0.004472    45A      0.008644
      46A      0.021916    47A      0.044190    48A      0.049455
      49A      0.071782

  @DF-RHF Final Energy: -1245.34324068354363

   => Energetics <=

    Nuclear Repulsion Energy =            799.3387337617784851
    One-Electron Energy =               -3363.1537775889901241
    Two-Electron Energy =                1318.4718031436677848
    Total Energy =                      -1245.3432406835436268
  Basis Set: (AUG-CC-PVTZ AUX)
    Blend: AUG-CC-PVTZ-RI
    Molecular point group: c1

    Geometry (in Angstrom), charge = -3, multiplicity = 1:

       Center              X                  Y                   Z               Mass
    ------------   -----------------  -----------------  -----------------  -----------------
         P           -1.192356653481     0.348518924746     0.012105584249    30.973761998420
         P            2.020859346519    -0.116000075254     0.004737584249    30.973761998420
         O           -2.206144653481    -1.108572075254    -0.110744415751    15.994914619570
         O            0.173590346519    -0.425548075254    -0.129991415751    15.994914619570
         O           -1.629902653481     1.171639924746    -1.198212415751    15.994914619570
         O           -1.530770853481     0.878333424746     1.347535684249    15.994914619570
         O            2.371562346519    -0.898072075254     1.279801584249    15.994914619570
         O            2.131977346519     1.410491924746     0.090885584249    15.994914619570
         O            2.500656346519    -0.758549075254    -1.306821415751    15.994914619570
         C           -3.557707653481    -0.783091075254    -0.010812415751    12.000000000000
         H           -3.800534653481    -0.304968075254     0.953484584249     1.007825032230
         H           -3.878428653481    -0.089465075254    -0.807177415751     1.007825032230
         H           -4.164000653481    -1.708216075254    -0.098023415751     1.007825032230

  Basis Set: AUG-CC-PVTZ
    Blend: AUG-CC-PVTZ
  Basis Set: (AUG-CC-PVTZ AUX)
    Blend: AUG-CC-PVTZ-JKFIT
	 Reference Energy          =   -1245.3432406835436268 [Eh]
	 Singles Energy            =      -0.0000000000000000 [Eh]
	 Same-Spin Energy          =      -0.6465005449787868 [Eh]
	 Opposite-Spin Energy      =      -1.8076577215488134 [Eh]
	 Correlation Energy        =      -2.4541582665276005 [Eh]
	 Total Energy              =   -1247.7973989500712833 [Eh]

	 ================> DF-SCS-MP2 Energies <==================
	-----------------------------------------------------------
	 SCS Same-Spin Scale       =       0.3333333333333333 [-]
	 SCS Opposite-Spin Scale   =       1.2000000000000000 [-]
	 SCS Same-Spin Energy      =      -0.2155001816595956 [Eh]
	 SCS Opposite-Spin Energy  =      -2.1691892658585759 [Eh]
	 SCS Correlation Energy    =      -2.3846894475181712 [Eh]
	 SCS Total Energy          =   -1247.7279301310618393 [Eh]
	-----------------------------------------------------------

  Dipole Moment: [D]
     X:    -7.7891      Y:    -1.6988      Z:     0.0986     Total:     7.9728

*** Psi4 exiting successfully. Buy a developer a beer!
