                               Psi4 1.4a3.dev225

  ==> Input File <==

--------------------------------------------------------------------------
#psi4
#
memory 32 gb

molecule  {
-3 1
  P       -1.1253500     0.3591720     0.0081310
  P        2.0878660    -0.1053470     0.0007630
  O       -2.1391380    -1.0979190    -0.1147190
  O        0.2602711    -0.4115982    -0.1325311
  O       -1.5628960     1.1822930    -1.2021870
  O       -1.4752280     0.9069340     1.3887990
  O        2.4385690    -0.8874190     1.2758270
  O        2.1989840     1.4211450     0.0869110
  O        2.5676630    -0.7478960    -1.3107960
  C       -3.4907010    -0.7724380    -0.0147870
  H       -3.7335280    -0.2943150     0.9495100
  H       -3.8114220    -0.0788120    -0.8111520
  H       -4.0969940    -1.6975630    -0.1019980
units angstrom
no_reorient  #important for SAPT in psi4, default
symmetry c1  #important for SAPT in psi4, default
}

set PROPERTIES_ORIGIN ["COM"]
properties('MP2/aug-cc-pvtz', properties = ['dipole'])
--------------------------------------------------------------------------

    Molecular point group: c1
  Charge       = -3
  Multiplicity = 1
  Basis Set: AUG-CC-PVTZ
    Blend: AUG-CC-PVTZ
  Basis Set: (AUG-CC-PVTZ AUX)
    Blend: AUG-CC-PVTZ-JKFIT

    Orbital Energies [Eh]
    ---------------------

    Doubly Occupied:

       1A    -79.632844     2A    -79.583069     3A    -20.147876
       4A    -20.089690     5A    -20.057974     6A    -20.057366
       7A    -20.020308     8A    -20.020161     9A    -20.019286
      10A    -10.912833    11A     -7.145311    12A     -7.096393
      13A     -5.044764    14A     -5.042884    15A     -5.042113
      16A     -4.996097    17A     -4.993136    18A     -4.993118
      19A     -0.957233    20A     -0.886815    21A     -0.847601
      22A     -0.814644    23A     -0.803199    24A     -0.761231
      25A     -0.760015    26A     -0.544434    27A     -0.336354
      28A     -0.270030    29A     -0.247895    30A     -0.213463
      31A     -0.204488    32A     -0.156409    33A     -0.143391
      34A     -0.118377    35A     -0.098770    36A     -0.096633
      37A     -0.078295    38A     -0.054293    39A     -0.049916
      40A     -0.031310    41A     -0.015273    42A      0.000283
      43A      0.001465    44A      0.005385    45A      0.008563
      46A      0.020621    47A      0.045422    48A      0.050104
      49A      0.073001

  @DF-RHF Final Energy: -1245.34112919329732

   => Energetics <=

    Nuclear Repulsion Energy =            796.9176854329454045
    One-Electron Energy =               -3358.1567347570639868
    Two-Electron Energy =                1315.8979201308213760
    Total Energy =                      -1245.3411291932973199
  Basis Set: (AUG-CC-PVTZ AUX)
    Blend: AUG-CC-PVTZ-RI
    Molecular point group: c1

    Geometry (in Angstrom), charge = -3, multiplicity = 1:

       Center              X                  Y                   Z               Mass
    ------------   -----------------  -----------------  -----------------  -----------------
         P           -1.193051721989     0.346720422389     0.008154353059    30.973761998420
         P            2.020164278011    -0.117798577611     0.000786353059    30.973761998420
         O           -2.206839721989    -1.110370577611    -0.114695646941    15.994914619570
         O            0.192569378011    -0.424049777611    -0.132507746941    15.994914619570
         O           -1.630597721989     1.169841422389    -1.202163646941    15.994914619570
         O           -1.542929721989     0.894482422389     1.388822353059    15.994914619570
         O            2.370867278011    -0.899870577611     1.275850353059    15.994914619570
         O            2.131282278011     1.408693422389     0.086934353059    15.994914619570
         O            2.499961278011    -0.760347577611    -1.310772646941    15.994914619570
         C           -3.558402721989    -0.784889577611    -0.014763646941    12.000000000000
         H           -3.801229721989    -0.306766577611     0.949533353059     1.007825032230
         H           -3.879123721989    -0.091263577611    -0.811128646941     1.007825032230
         H           -4.164695721989    -1.710014577611    -0.101974646941     1.007825032230

  Basis Set: AUG-CC-PVTZ
    Blend: AUG-CC-PVTZ
  Basis Set: (AUG-CC-PVTZ AUX)
    Blend: AUG-CC-PVTZ-JKFIT
	 Reference Energy          =   -1245.3411291932973199 [Eh]
	 Singles Energy            =      -0.0000000000000000 [Eh]
	 Same-Spin Energy          =      -0.6475330596768936 [Eh]
	 Opposite-Spin Energy      =      -1.8102723272309715 [Eh]
	 Correlation Energy        =      -2.4578053869078653 [Eh]
	 Total Energy              =   -1247.7989345802052412 [Eh]

	 ================> DF-SCS-MP2 Energies <==================
	-----------------------------------------------------------
	 SCS Same-Spin Scale       =       0.3333333333333333 [-]
	 SCS Opposite-Spin Scale   =       1.2000000000000000 [-]
	 SCS Same-Spin Energy      =      -0.2158443532256312 [Eh]
	 SCS Opposite-Spin Energy  =      -2.1723267926771657 [Eh]
	 SCS Correlation Energy    =      -2.3881711459027968 [Eh]
	 SCS Total Energy          =   -1247.7293003392001083 [Eh]
	-----------------------------------------------------------

  Dipole Moment: [D]
     X:    -7.9678      Y:    -1.7994      Z:    -0.1728     Total:     8.1703

*** Psi4 exiting successfully. Buy a developer a beer!
