                               Psi4 1.3.2 release

  ==> Input File <==

--------------------------------------------------------------------------
#psi4
#
memory 32 gb

molecule  {
-3 1
  P        1.1931290    -0.6069630     0.0087730
  P       -1.8341790     0.1663700     0.0034510
  O        1.3465051     1.0129769    -0.4000729
  O       -0.3886030    -0.8294050    -0.1958090
  O        1.9273580    -1.4129110    -1.0480400
  O        1.6117660    -0.8074633     1.4541571
  O       -1.8332320     1.0931450    -1.2188660
  O       -1.6562150     0.8578460     1.3638040
  O       -2.8968830    -0.9395270    -0.0292720
  C        2.6258790     1.5668310    -0.0085760
  H        2.7349980     1.6139230     1.0781470
  H        3.4479520     0.9704660    -0.4205400
  H        2.6752270     2.5733270    -0.4286450
units angstrom
no_reorient  #important for SAPT in psi4, default
symmetry c1  #important for SAPT in psi4, default
}

set PROPERTIES_ORIGIN ["COM"]
properties('MP2/aug-cc-pvtz', properties = ['dipole'])
--------------------------------------------------------------------------

    Molecular point group: c1
  Charge       = -3
  Multiplicity = 1
  Basis Set: AUG-CC-PVTZ
    Blend: AUG-CC-PVTZ
  Basis Set: (AUG-CC-PVTZ AUX)
    Blend: AUG-CC-PVTZ-JKFIT

    Orbital Energies [Eh]
    ---------------------

    Doubly Occupied:

       1A    -79.621260     2A    -79.558596     3A    -20.155697
       4A    -20.078927     5A    -20.052594     6A    -20.051942
       7A    -19.998753     8A    -19.998261     9A    -19.997110
      10A    -10.919695    11A     -7.135371    12A     -7.072399
      13A     -5.034671    14A     -5.033125    15A     -5.032370
      16A     -4.971954    17A     -4.969521    18A     -4.969393
      19A     -0.962063    20A     -0.884892    21A     -0.840962
      22A     -0.802247    23A     -0.798078    24A     -0.741227
      25A     -0.739936    26A     -0.562923    27A     -0.334909
      28A     -0.280844    29A     -0.253405    30A     -0.225481
      31A     -0.187240    32A     -0.147042    33A     -0.143306
      34A     -0.116311    35A     -0.092278    36A     -0.087995
      37A     -0.065147    38A     -0.056887    39A     -0.042734
      40A     -0.037248    41A     -0.022154    42A      0.007593
      43A      0.021563    44A      0.023217    45A      0.026263
      46A      0.029077    47A      0.065616    48A      0.069022
      49A      0.093644

  @DF-RHF Final Energy: -1245.34317532783484

   => Energetics <=

    Nuclear Repulsion Energy =            820.1536146887484620
    One-Electron Energy =               -3405.5116762152288175
    Two-Electron Energy =                1340.0148861986456268
    Total Energy =                      -1245.3431753278348424
  Basis Set: (AUG-CC-PVTZ AUX)
    Blend: AUG-CC-PVTZ-RI
    Molecular point group: c1

    Geometry (in Angstrom), charge = -3, multiplicity = 1:

       Center              X                  Y                   Z               Mass
    ------------   -----------------  -----------------  -----------------  -----------------
         P            1.244135556244    -0.574957480946     0.012365439916    30.973761998420
         P           -1.783172443756     0.198375519054     0.007043439916    30.973761998420
         O            1.397511656244     1.044982419054    -0.396480460084    15.994914619570
         O           -0.337596443756    -0.797399480946    -0.192216560084    15.994914619570
         O            1.978364556244    -1.380905480946    -1.044447560084    15.994914619570
         O            1.662772556244    -0.775457780946     1.457749539916    15.994914619570
         O           -1.782225443756     1.125150519054    -1.215273560084    15.994914619570
         O           -1.605208443756     0.889851519054     1.367396439916    15.994914619570
         O           -2.845876443756    -0.907521480946    -0.025679560084    15.994914619570
         C            2.676885556244     1.598836519054    -0.004983560084    12.000000000000
         H            2.786004556244     1.645928519054     1.081739439916     1.007825032230
         H            3.498958556244     1.002471519054    -0.416947560084     1.007825032230
         H            2.726233556244     2.605332519054    -0.425052560084     1.007825032230

  Basis Set: AUG-CC-PVTZ
    Blend: AUG-CC-PVTZ
  Basis Set: (AUG-CC-PVTZ AUX)
    Blend: AUG-CC-PVTZ-JKFIT
	 Reference Energy          =   -1245.3431753278348424 [Eh]
	 Singles Energy            =      -0.0000000000000000 [Eh]
	 Same-Spin Energy          =      -0.6461673413195494 [Eh]
	 Opposite-Spin Energy      =      -1.8069177259606164 [Eh]
	 Correlation Energy        =      -2.4530850672801661 [Eh]
	 Total Energy              =   -1247.7962603951150413 [Eh]

	 ================> DF-SCS-MP2 Energies <==================
	-----------------------------------------------------------
	 SCS Same-Spin Scale       =       0.3333333333333333 [-]
	 SCS Opposite-Spin Scale   =       1.2000000000000000 [-]
	 SCS Same-Spin Energy      =      -0.2153891137731831 [Eh]
	 SCS Opposite-Spin Energy  =      -2.1683012711527394 [Eh]
	 SCS Correlation Energy    =      -2.3836903849259228 [Eh]
	 SCS Total Energy          =   -1247.7268657127608549 [Eh]
	-----------------------------------------------------------

  Dipole Moment: [D]
     X:     7.9828      Y:     2.4270      Z:    -0.4296     Total:     8.3546

*** Psi4 exiting successfully. Buy a developer a beer!
