                               Psi4 1.3.2 release

  ==> Input File <==

--------------------------------------------------------------------------
#psi4
#
memory 32 gb

molecule  {
-3 1
  P        1.1931290    -0.6069630     0.0087730
  P       -1.8341790     0.1663700     0.0034510
  O        1.3559990     1.0186560    -0.3729610
  O       -0.3886030    -0.8294050    -0.1958090
  O        1.9273580    -1.4129110    -1.0480400
  O        1.6168640    -0.7815310     1.4560350
  O       -1.8332320     1.0931450    -1.2188660
  O       -1.6562150     0.8578460     1.3638040
  O       -2.8968830    -0.9395270    -0.0292720
  C        2.6258790     1.5668310    -0.0085760
  H        2.7549612     1.6225384     1.2769616
  H        3.4479520     0.9704660    -0.4205400
  H        2.6752270     2.5733270    -0.4286450
units angstrom
no_reorient  #important for SAPT in psi4, default
symmetry c1  #important for SAPT in psi4, default
}

set PROPERTIES_ORIGIN ["COM"]
properties('MP2/aug-cc-pvtz', properties = ['dipole'])
--------------------------------------------------------------------------

    Molecular point group: c1
  Charge       = -3
  Multiplicity = 1
  Basis Set: AUG-CC-PVTZ
    Blend: AUG-CC-PVTZ
  Basis Set: (AUG-CC-PVTZ AUX)
    Blend: AUG-CC-PVTZ-JKFIT

    Orbital Energies [Eh]
    ---------------------

    Doubly Occupied:

       1A    -79.623764     2A    -79.559868     3A    -20.159845
       4A    -20.081924     5A    -20.056418     6A    -20.051140
       7A    -20.000178     8A    -19.999442     9A    -19.997832
      10A    -10.941397    11A     -7.137834    12A     -7.073692
      13A     -5.037174    14A     -5.035596    15A     -5.034784
      16A     -4.973259    17A     -4.970803    18A     -4.970670
      19A     -0.969301    20A     -0.888327    21A     -0.842625
      22A     -0.803828    23A     -0.799930    24A     -0.742542
      25A     -0.740829    26A     -0.547358    27A     -0.336464
      28A     -0.284012    29A     -0.232963    30A     -0.230311
      31A     -0.186861    32A     -0.148685    33A     -0.141308
      34A     -0.114666    35A     -0.093953    36A     -0.088320
      37A     -0.058896    38A     -0.056839    39A     -0.044169
      40A     -0.039067    41A     -0.023826    42A      0.005960
      43A      0.020279    44A      0.021876    45A      0.025082
      46A      0.027350    47A      0.064379    48A      0.067791
      49A      0.092578

  @DF-RHF Final Energy: -1245.32608463948645

   => Energetics <=

    Nuclear Repulsion Energy =            819.6068735893644543
    One-Electron Energy =               -3404.2751067045569471
    Two-Electron Energy =                1339.3421484757059261
    Total Energy =                      -1245.3260846394864529
  Basis Set: (AUG-CC-PVTZ AUX)
    Blend: AUG-CC-PVTZ-RI
    Molecular point group: c1

    Geometry (in Angstrom), charge = -3, multiplicity = 1:

       Center              X                  Y                   Z               Mass
    ------------   -----------------  -----------------  -----------------  -----------------
         P            1.242793745205    -0.577679598961     0.008850695186    30.973761998420
         P           -1.784514254795     0.195653401039     0.003528695186    30.973761998420
         O            1.405663745205     1.047939401039    -0.372883304814    15.994914619570
         O           -0.338938254795    -0.800121598961    -0.195731304814    15.994914619570
         O            1.977022745205    -1.383627598961    -1.047962304814    15.994914619570
         O            1.666528745205    -0.752247598961     1.456112695186    15.994914619570
         O           -1.783567254795     1.122428401039    -1.218788304814    15.994914619570
         O           -1.606550254795     0.887129401039     1.363881695186    15.994914619570
         O           -2.847218254795    -0.910243598961    -0.029194304814    15.994914619570
         C            2.675543745205     1.596114401039    -0.008498304814    12.000000000000
         H            2.804625945205     1.651821801039     1.277039295186     1.007825032230
         H            3.497616745205     0.999749401039    -0.420462304814     1.007825032230
         H            2.724891745205     2.602610401039    -0.428567304814     1.007825032230

  Basis Set: AUG-CC-PVTZ
    Blend: AUG-CC-PVTZ
  Basis Set: (AUG-CC-PVTZ AUX)
    Blend: AUG-CC-PVTZ-JKFIT
	 Reference Energy          =   -1245.3260846394864529 [Eh]
	 Singles Energy            =      -0.0000000000000000 [Eh]
	 Same-Spin Energy          =      -0.6464489731014531 [Eh]
	 Opposite-Spin Energy      =      -1.8084140384747687 [Eh]
	 Correlation Energy        =      -2.4548630115762218 [Eh]
	 Total Energy              =   -1247.7809476510626610 [Eh]

	 ================> DF-SCS-MP2 Energies <==================
	-----------------------------------------------------------
	 SCS Same-Spin Scale       =       0.3333333333333333 [-]
	 SCS Opposite-Spin Scale   =       1.2000000000000000 [-]
	 SCS Same-Spin Energy      =      -0.2154829910338177 [Eh]
	 SCS Opposite-Spin Energy  =      -2.1700968461697223 [Eh]
	 SCS Correlation Energy    =      -2.3855798372035402 [Eh]
	 SCS Total Energy          =   -1247.7116644766899753 [Eh]
	-----------------------------------------------------------

  Dipole Moment: [D]
     X:     7.7451      Y:     2.1720      Z:    -0.7038     Total:     8.0746

*** Psi4 exiting successfully. Buy a developer a beer!
