                               Psi4 1.3.2 release

  ==> Input File <==

--------------------------------------------------------------------------
#psi4
#
memory 32 gb

molecule  {
-3 1
  P        1.1931290    -0.6069630     0.0087730
  P       -1.8341790     0.1663700     0.0034510
  O        1.3559990     1.0186560    -0.3729610
  O       -0.3886030    -0.8294050    -0.1958090
  O        1.9273580    -1.4129110    -1.0480400
  O        1.6168640    -0.7815310     1.4560350
  O       -1.8332320     1.0931450    -1.2188660
  O       -1.6562150     0.8578460     1.3638040
  O       -2.8968830    -0.9395270    -0.0292720
  C        2.6258790     1.5668310    -0.0085760
  H        2.7664574     1.5925239     1.0752455
  H        3.4612498     0.9654854    -0.3850181
  H        2.6752270     2.5733270    -0.4286450
units angstrom
no_reorient  #important for SAPT in psi4, default
symmetry c1  #important for SAPT in psi4, default
}

set PROPERTIES_ORIGIN ["COM"]
properties('MP2/aug-cc-pvtz', properties = ['dipole'])
--------------------------------------------------------------------------

    Molecular point group: c1
  Charge       = -3
  Multiplicity = 1
  Basis Set: AUG-CC-PVTZ
    Blend: AUG-CC-PVTZ
  Basis Set: (AUG-CC-PVTZ AUX)
    Blend: AUG-CC-PVTZ-JKFIT

    Orbital Energies [Eh]
    ---------------------

    Doubly Occupied:

       1A    -79.622202     2A    -79.559134     3A    -20.153953
       4A    -20.080664     5A    -20.054724     6A    -20.051003
       7A    -19.999325     8A    -19.998805     9A    -19.997266
      10A    -10.917253    11A     -7.136243    12A     -7.072949
      13A     -5.035555    14A     -5.034025    15A     -5.033223
      16A     -4.972512    17A     -4.970064    18A     -4.969932
      19A     -0.965503    20A     -0.886707    21A     -0.841582
      22A     -0.803012    23A     -0.798976    24A     -0.741779
      25A     -0.740212    26A     -0.561412    27A     -0.337847
      28A     -0.283905    29A     -0.248669    30A     -0.228606
      31A     -0.188223    32A     -0.147424    33A     -0.143367
      34A     -0.116684    35A     -0.092821    36A     -0.088468
      37A     -0.062560    38A     -0.057718    39A     -0.043204
      40A     -0.038131    41A     -0.022348    42A      0.007172
      43A      0.020955    44A      0.022644    45A      0.025805
      46A      0.028241    47A      0.065092    48A      0.068534
      49A      0.093252

  @DF-RHF Final Energy: -1245.34475029873443

   => Energetics <=

    Nuclear Repulsion Energy =            820.3928588964238315
    One-Electron Energy =               -3405.9426345732667869
    Two-Electron Energy =                1340.2050253781083029
    Total Energy =                      -1245.3447502987344251
  Basis Set: (AUG-CC-PVTZ AUX)
    Blend: AUG-CC-PVTZ-RI
    Molecular point group: c1

    Geometry (in Angstrom), charge = -3, multiplicity = 1:

       Center              X                  Y                   Z               Mass
    ------------   -----------------  -----------------  -----------------  -----------------
         P            1.242661488287    -0.577492927021     0.009737213402    30.973761998420
         P           -1.784646511713     0.195840072979     0.004415213402    30.973761998420
         O            1.405531488287     1.048126072979    -0.371996786598    15.994914619570
         O           -0.339070511713    -0.799934927021    -0.194844786598    15.994914619570
         O            1.976890488287    -1.383440927021    -1.047075786598    15.994914619570
         O            1.666396488287    -0.752060927021     1.456999213402    15.994914619570
         O           -1.783699511713     1.122615072979    -1.217901786598    15.994914619570
         O           -1.606682511713     0.887316072979     1.364768213402    15.994914619570
         O           -2.847350511713    -0.910056927021    -0.028307786598    15.994914619570
         C            2.675411488287     1.596301072979    -0.007611786598    12.000000000000
         H            2.815989888287     1.621993972979     1.076209713402     1.007825032230
         H            3.510782288287     0.994955472979    -0.384053886598     1.007825032230
         H            2.724759488287     2.602797072979    -0.427680786598     1.007825032230

  Basis Set: AUG-CC-PVTZ
    Blend: AUG-CC-PVTZ
  Basis Set: (AUG-CC-PVTZ AUX)
    Blend: AUG-CC-PVTZ-JKFIT
	 Reference Energy          =   -1245.3447502987344251 [Eh]
	 Singles Energy            =      -0.0000000000000000 [Eh]
	 Same-Spin Energy          =      -0.6460859534387031 [Eh]
	 Opposite-Spin Energy      =      -1.8063991250853555 [Eh]
	 Correlation Energy        =      -2.4524850785240586 [Eh]
	 Total Energy              =   -1247.7972353772584029 [Eh]

	 ================> DF-SCS-MP2 Energies <==================
	-----------------------------------------------------------
	 SCS Same-Spin Scale       =       0.3333333333333333 [-]
	 SCS Opposite-Spin Scale   =       1.2000000000000000 [-]
	 SCS Same-Spin Energy      =      -0.2153619844795677 [Eh]
	 SCS Opposite-Spin Energy  =      -2.1676789501024265 [Eh]
	 SCS Correlation Energy    =      -2.3830409345819943 [Eh]
	 SCS Total Energy          =   -1247.7277912333163385 [Eh]
	-----------------------------------------------------------

  Dipole Moment: [D]
     X:     7.9118      Y:     2.3174      Z:    -0.4645     Total:     8.2573

*** Psi4 exiting successfully. Buy a developer a beer!
