                               Psi4 1.3.2 release

  ==> Input File <==

--------------------------------------------------------------------------
#psi4
#
memory 32 gb

molecule  {
-3 1
  P        1.1931290    -0.6069630     0.0087730
  P       -1.8341790     0.1663700     0.0034510
  O        1.3559990     1.0186560    -0.3729610
  O       -0.3886030    -0.8294050    -0.1958090
  O        1.9273580    -1.4129110    -1.0480400
  O        1.6168640    -0.7815310     1.4560350
  O       -1.7720090     1.1332306    -1.1857870
  O       -1.6562150     0.8578460     1.3638040
  O       -2.8698178    -0.9647282     0.0420227
  C        2.6258790     1.5668310    -0.0085760
  H        2.7349980     1.6139230     1.0781470
  H        3.4479520     0.9704660    -0.4205400
  H        2.6752270     2.5733270    -0.4286450
units angstrom
no_reorient  #important for SAPT in psi4, default
symmetry c1  #important for SAPT in psi4, default
}

set PROPERTIES_ORIGIN ["COM"]
properties('MP2/aug-cc-pvtz', properties = ['dipole'])
--------------------------------------------------------------------------

    Molecular point group: c1
  Charge       = -3
  Multiplicity = 1
  Basis Set: AUG-CC-PVTZ
    Blend: AUG-CC-PVTZ
  Basis Set: (AUG-CC-PVTZ AUX)
    Blend: AUG-CC-PVTZ-JKFIT

    Orbital Energies [Eh]
    ---------------------

    Doubly Occupied:

       1A    -79.619874     2A    -79.559181     3A    -20.150603
       4A    -20.077211     5A    -20.053136     6A    -20.048856
       7A    -20.003917     8A    -20.003343     9A    -19.990210
      10A    -10.915323    11A     -7.133904    12A     -7.073031
      13A     -5.033213    14A     -5.031681    15A     -5.030901
      16A     -4.972633    17A     -4.970191    18A     -4.969937
      19A     -0.962964    20A     -0.884672    21A     -0.840642
      22A     -0.801091    23A     -0.797610    24A     -0.748674
      25A     -0.734629    26A     -0.558778    27A     -0.334012
      28A     -0.280282    29A     -0.252260    30A     -0.226343
      31A     -0.185756    32A     -0.146263    33A     -0.142120
      34A     -0.112582    35A     -0.093532    36A     -0.086564
      37A     -0.061737    38A     -0.056354    39A     -0.042866
      40A     -0.036046    41A     -0.020443    42A      0.009353
      43A      0.020733    44A      0.022327    45A      0.025492
      46A      0.030599    47A      0.061098    48A      0.072205
      49A      0.093701

  @DF-RHF Final Energy: -1245.34225143613435

   => Energetics <=

    Nuclear Repulsion Energy =            821.4116015597901423
    One-Electron Energy =               -3408.0919908065466188
    Two-Electron Energy =                1341.3381378106221291
    Total Energy =                      -1245.3422514361343474
  Basis Set: (AUG-CC-PVTZ AUX)
    Blend: AUG-CC-PVTZ-RI
    Molecular point group: c1

    Geometry (in Angstrom), charge = -3, multiplicity = 1:

       Center              X                  Y                   Z               Mass
    ------------   -----------------  -----------------  -----------------  -----------------
         P            1.235425921082    -0.578893727650     0.001075137624    30.973761998420
         P           -1.791882078918     0.194439272350    -0.004246862376    30.973761998420
         O            1.398295921082     1.046725272350    -0.380658862376    15.994914619570
         O           -0.346306078918    -0.801335727650    -0.203506862376    15.994914619570
         O            1.969654921082    -1.384841727650    -1.055737862376    15.994914619570
         O            1.659160921082    -0.753461727650     1.448337137624    15.994914619570
         O           -1.729712078918     1.161299872350    -1.193484862376    15.994914619570
         O           -1.613918078918     0.885915272350     1.356106137624    15.994914619570
         O           -2.827520878918    -0.936658927650     0.034324837624    15.994914619570
         C            2.668175921082     1.594900272350    -0.016273862376    12.000000000000
         H            2.777294921082     1.641992272350     1.070449137624     1.007825032230
         H            3.490248921082     0.998535272350    -0.428237862376     1.007825032230
         H            2.717523921082     2.601396272350    -0.436342862376     1.007825032230

  Basis Set: AUG-CC-PVTZ
    Blend: AUG-CC-PVTZ
  Basis Set: (AUG-CC-PVTZ AUX)
    Blend: AUG-CC-PVTZ-JKFIT
	 Reference Energy          =   -1245.3422514361343474 [Eh]
	 Singles Energy            =      -0.0000000000000000 [Eh]
	 Same-Spin Energy          =      -0.6462973099821394 [Eh]
	 Opposite-Spin Energy      =      -1.8068012868740579 [Eh]
	 Correlation Energy        =      -2.4530985968561971 [Eh]
	 Total Energy              =   -1247.7953500329906547 [Eh]

	 ================> DF-SCS-MP2 Energies <==================
	-----------------------------------------------------------
	 SCS Same-Spin Scale       =       0.3333333333333333 [-]
	 SCS Opposite-Spin Scale   =       1.2000000000000000 [-]
	 SCS Same-Spin Energy      =      -0.2154324366607131 [Eh]
	 SCS Opposite-Spin Energy  =      -2.1681615442488695 [Eh]
	 SCS Correlation Energy    =      -2.3835939809095827 [Eh]
	 SCS Total Energy          =   -1247.7258454170439563 [Eh]
	-----------------------------------------------------------

  Dipole Moment: [D]
     X:     7.6423      Y:     2.2903      Z:    -0.7573     Total:     8.0140

*** Psi4 exiting successfully. Buy a developer a beer!
