                               Psi4 1.3.2 release

  ==> Input File <==

--------------------------------------------------------------------------
#psi4
#
memory 32 gb

molecule  {
-3 1
  P        1.1931290    -0.6069630     0.0087730
  P       -1.8341790     0.1663700     0.0034510
  O        1.3559990     1.0186560    -0.3729610
  O       -0.3886030    -0.8294050    -0.1958090
  O        1.9273580    -1.4129110    -1.0480400
  O        1.6168640    -0.7815310     1.4560350
  O       -1.8332320     1.0931450    -1.2188660
  O       -1.6562150     0.8578460     1.3638040
  O       -2.7583374    -0.7953503    -0.0250059
  C        2.6258790     1.5668310    -0.0085760
  H        2.7349980     1.6139230     1.0781470
  H        3.4479520     0.9704660    -0.4205400
  H        2.6752270     2.5733270    -0.4286450
units angstrom
no_reorient  #important for SAPT in psi4, default
symmetry c1  #important for SAPT in psi4, default
}

set PROPERTIES_ORIGIN ["COM"]
properties('MP2/aug-cc-pvtz', properties = ['dipole'])
--------------------------------------------------------------------------

    Molecular point group: c1
  Charge       = -3
  Multiplicity = 1
  Basis Set: AUG-CC-PVTZ
    Blend: AUG-CC-PVTZ
  Basis Set: (AUG-CC-PVTZ AUX)
    Blend: AUG-CC-PVTZ-JKFIT

    Orbital Energies [Eh]
    ---------------------

    Doubly Occupied:

       1A    -79.613840     2A    -79.511256     3A    -20.146320
       4A    -20.067269     5A    -20.048842     6A    -20.044759
       7A    -19.984092     8A    -19.979842     9A    -19.977838
      10A    -10.911788    11A     -7.128003    12A     -7.037282
      13A     -5.027304    14A     -5.025734    15A     -5.025037
      16A     -4.937233    17A     -4.934694    18A     -4.932295
      19A     -0.958539    20A     -0.898744    21A     -0.860339
      22A     -0.810191    23A     -0.796915    24A     -0.751257
      25A     -0.723872    26A     -0.555057    27A     -0.328035
      28A     -0.272821    29A     -0.248507    30A     -0.221155
      31A     -0.180151    32A     -0.148764    33A     -0.137709
      34A     -0.109425    35A     -0.097718    36A     -0.091565
      37A     -0.059735    38A     -0.059231    39A     -0.041329
      40A     -0.036801    41A     -0.017407    42A      0.005588
      43A      0.012715    44A      0.019531    45A      0.032206
      46A      0.036007    47A      0.064805    48A      0.082584
      49A      0.104496

  @DF-RHF Final Energy: -1245.30421357663226

   => Energetics <=

    Nuclear Repulsion Energy =            830.6701254232183373
    One-Electron Energy =               -3427.1871508855906541
    Two-Electron Energy =                1351.2128118857399386
    Total Energy =                      -1245.3042135766322644
  Basis Set: (AUG-CC-PVTZ AUX)
    Blend: AUG-CC-PVTZ-RI
    Molecular point group: c1

    Geometry (in Angstrom), charge = -3, multiplicity = 1:

       Center              X                  Y                   Z               Mass
    ------------   -----------------  -----------------  -----------------  -----------------
         P            1.231171224419    -0.589839369832     0.009550058166    30.973761998420
         P           -1.796136775581     0.183493630168     0.004228058166    30.973761998420
         O            1.394041224419     1.035779630168    -0.372183941834    15.994914619570
         O           -0.350560775581    -0.812281369832    -0.195031941834    15.994914619570
         O            1.965400224419    -1.395787369832    -1.047262941834    15.994914619570
         O            1.654906224419    -0.764407369832     1.456812058166    15.994914619570
         O           -1.795189775581     1.110268630168    -1.218088941834    15.994914619570
         O           -1.618172775581     0.874969630168     1.364581058166    15.994914619570
         O           -2.720295175581    -0.778226669832    -0.024228841834    15.994914619570
         C            2.663921224419     1.583954630168    -0.007798941834    12.000000000000
         H            2.773040224419     1.631046630168     1.078924058166     1.007825032230
         H            3.485994224419     0.987589630168    -0.419762941834     1.007825032230
         H            2.713269224419     2.590450630168    -0.427867941834     1.007825032230

  Basis Set: AUG-CC-PVTZ
    Blend: AUG-CC-PVTZ
  Basis Set: (AUG-CC-PVTZ AUX)
    Blend: AUG-CC-PVTZ-JKFIT
	 Reference Energy          =   -1245.3042135766322644 [Eh]
	 Singles Energy            =      -0.0000000000000000 [Eh]
	 Same-Spin Energy          =      -0.6427660453997843 [Eh]
	 Opposite-Spin Energy      =      -1.7977690220730855 [Eh]
	 Correlation Energy        =      -2.4405350674728696 [Eh]
	 Total Energy              =   -1247.7447486441051296 [Eh]

	 ================> DF-SCS-MP2 Energies <==================
	-----------------------------------------------------------
	 SCS Same-Spin Scale       =       0.3333333333333333 [-]
	 SCS Opposite-Spin Scale   =       1.2000000000000000 [-]
	 SCS Same-Spin Energy      =      -0.2142553484665948 [Eh]
	 SCS Opposite-Spin Energy  =      -2.1573228264877025 [Eh]
	 SCS Correlation Energy    =      -2.3715781749542972 [Eh]
	 SCS Total Energy          =   -1247.6757917515865302 [Eh]
	-----------------------------------------------------------

  Dipole Moment: [D]
     X:     6.6649      Y:     1.2718      Z:    -0.5032     Total:     6.8037

*** Psi4 exiting successfully. Buy a developer a beer!
