                               Psi4 1.3.2 release

  ==> Input File <==

--------------------------------------------------------------------------
#psi4
#
memory 32 gb

molecule  {
-3 1
  P        1.1931290    -0.6069630     0.0087730
  P       -1.8341790     0.1663700     0.0034510
  O        1.3559990     1.0186560    -0.3729610
  O       -0.3378336    -0.7521957    -0.1918689
  O        1.9273580    -1.4129110    -1.0480400
  O        1.6168640    -0.7815310     1.4560350
  O       -1.8332320     1.0931450    -1.2188660
  O       -1.6562150     0.8578460     1.3638040
  O       -2.9530554    -0.8829129    -0.0197818
  C        2.6258790     1.5668310    -0.0085760
  H        2.7349980     1.6139230     1.0781470
  H        3.4479520     0.9704660    -0.4205400
  H        2.6752270     2.5733270    -0.4286450
units angstrom
no_reorient  #important for SAPT in psi4, default
symmetry c1  #important for SAPT in psi4, default
}

set PROPERTIES_ORIGIN ["COM"]
properties('MP2/aug-cc-pvtz', properties = ['dipole'])
--------------------------------------------------------------------------

    Molecular point group: c1
  Charge       = -3
  Multiplicity = 1
  Basis Set: AUG-CC-PVTZ
    Blend: AUG-CC-PVTZ
  Basis Set: (AUG-CC-PVTZ AUX)
    Blend: AUG-CC-PVTZ-JKFIT

    Orbital Energies [Eh]
    ---------------------

    Doubly Occupied:

       1A    -79.615873     2A    -79.563406     3A    -20.147200
       4A    -20.082605     5A    -20.053098     6A    -20.047739
       7A    -20.005822     8A    -19.997787     9A    -19.995392
      10A    -10.913183    11A     -7.130986    12A     -7.076993
      13A     -5.030425    14A     -5.028902    15A     -5.027892
      16A     -4.976579    17A     -4.974125    18A     -4.973869
      19A     -0.965085    20A     -0.896920    21A     -0.841135
      22A     -0.806664    23A     -0.800874    24A     -0.743754
      25A     -0.739600    26A     -0.556931    27A     -0.343175
      28A     -0.287115    29A     -0.250597    30A     -0.226075
      31A     -0.186317    32A     -0.150694    33A     -0.147726
      34A     -0.113055    35A     -0.096669    36A     -0.088991
      37A     -0.060725    38A     -0.056187    39A     -0.047613
      40A     -0.040733    41A     -0.020227    42A      0.008347
      43A      0.015837    44A      0.020210    45A      0.026420
      46A      0.028596    47A      0.062622    48A      0.068759
      49A      0.092912

  @DF-RHF Final Energy: -1245.34787876170753

   => Energetics <=

    Nuclear Repulsion Energy =            822.4470695224360952
    One-Electron Energy =               -3410.0198251748415714
    Two-Electron Energy =                1342.2248768906977148
    Total Energy =                      -1245.3478787617075341
  Basis Set: (AUG-CC-PVTZ AUX)
    Blend: AUG-CC-PVTZ-RI
    Molecular point group: c1

    Geometry (in Angstrom), charge = -3, multiplicity = 1:

       Center              X                  Y                   Z               Mass
    ------------   -----------------  -----------------  -----------------  -----------------
         P            1.243357641306    -0.588962878987     0.008774234285    30.973761998420
         P           -1.783950358694     0.184370121013     0.003452234285    30.973761998420
         O            1.406227641306     1.036656121013    -0.372959765715    15.994914619570
         O           -0.287604958694    -0.734195578987    -0.191867665715    15.994914619570
         O            1.977586641306    -1.394910878987    -1.048038765715    15.994914619570
         O            1.667092641306    -0.763530878987     1.456036234285    15.994914619570
         O           -1.783003358694     1.111145121013    -1.218864765715    15.994914619570
         O           -1.605986358694     0.875846121013     1.363805234285    15.994914619570
         O           -2.902826758694    -0.864912778987    -0.019780565715    15.994914619570
         C            2.676107641306     1.584831121013    -0.008574765715    12.000000000000
         H            2.785226641306     1.631923121013     1.078148234285     1.007825032230
         H            3.498180641306     0.988466121013    -0.420538765715     1.007825032230
         H            2.725455641306     2.591327121013    -0.428643765715     1.007825032230

  Basis Set: AUG-CC-PVTZ
    Blend: AUG-CC-PVTZ
  Basis Set: (AUG-CC-PVTZ AUX)
    Blend: AUG-CC-PVTZ-JKFIT
	 Reference Energy          =   -1245.3478787617075341 [Eh]
	 Singles Energy            =      -0.0000000000000000 [Eh]
	 Same-Spin Energy          =      -0.6452897589345801 [Eh]
	 Opposite-Spin Energy      =      -1.8042111010402682 [Eh]
	 Correlation Energy        =      -2.4495008599748482 [Eh]
	 Total Energy              =   -1247.7973796216824667 [Eh]

	 ================> DF-SCS-MP2 Energies <==================
	-----------------------------------------------------------
	 SCS Same-Spin Scale       =       0.3333333333333333 [-]
	 SCS Opposite-Spin Scale   =       1.2000000000000000 [-]
	 SCS Same-Spin Energy      =      -0.2150965863115267 [Eh]
	 SCS Opposite-Spin Energy  =      -2.1650533212483216 [Eh]
	 SCS Correlation Energy    =      -2.3801499075598485 [Eh]
	 SCS Total Energy          =   -1247.7280286692673599 [Eh]
	-----------------------------------------------------------

  Dipole Moment: [D]
     X:     7.6251      Y:     2.0914      Z:    -0.5252     Total:     7.9241

*** Psi4 exiting successfully. Buy a developer a beer!
