                               Psi4 1.3.2 release

  ==> Input File <==

--------------------------------------------------------------------------
#psi4
#
memory 32 gb

molecule  {
-3 1
  P        1.1931290    -0.6069630     0.0087730
  P       -1.8341790     0.1663700     0.0034510
  O        1.3559990     1.0186560    -0.3729610
  O       -0.3886030    -0.8294050    -0.1958090
  O        1.9273580    -1.4129110    -1.0480400
  O        1.6168640    -0.7815310     1.4560350
  O       -1.8332320     1.0931450    -1.2188660
  O       -1.6562150     0.8578460     1.3638040
  O       -2.8968830    -0.9395270    -0.0292720
  C        2.6258790     1.5668310    -0.0085760
  H        2.7449796     1.6182307     1.1775543
  H        3.4479520     0.9704660    -0.4205400
  H        2.6752270     2.5733270    -0.4286450
units angstrom
no_reorient  #important for SAPT in psi4, default
symmetry c1  #important for SAPT in psi4, default
}

set PROPERTIES_ORIGIN ["COM"]
properties('MP2/aug-cc-pvtz', properties = ['dipole'])
--------------------------------------------------------------------------

    Molecular point group: c1
  Charge       = -3
  Multiplicity = 1
  Basis Set: AUG-CC-PVTZ
    Blend: AUG-CC-PVTZ
  Basis Set: (AUG-CC-PVTZ AUX)
    Blend: AUG-CC-PVTZ-JKFIT

    Orbital Energies [Eh]
    ---------------------

    Doubly Occupied:

       1A    -79.622769     2A    -79.559425     3A    -20.155991
       4A    -20.081141     5A    -20.055461     6A    -20.050929
       7A    -19.999657     8A    -19.999057     9A    -19.997501
      10A    -10.929508    11A     -7.136823    12A     -7.073243
      13A     -5.036145    14A     -5.034598    15A     -5.033792
      16A     -4.972808    17A     -4.970357    18A     -4.970225
      19A     -0.966931    20A     -0.887320    21A     -0.841979
      22A     -0.803293    23A     -0.799356    24A     -0.742077
      25A     -0.740463    26A     -0.552259    27A     -0.335807
      28A     -0.282613    29A     -0.241329    30A     -0.230321
      31A     -0.186971    32A     -0.147856    33A     -0.142486
      34A     -0.114378    35A     -0.093277    36A     -0.088485
      37A     -0.060739    38A     -0.057992    39A     -0.043550
      40A     -0.038484    41A     -0.022920    42A      0.006700
      43A      0.020712    44A      0.022343    45A      0.025517
      46A      0.027885    47A      0.064811    48A      0.068238
      49A      0.092983

  @DF-RHF Final Energy: -1245.33909127119068

   => Energetics <=

    Nuclear Repulsion Energy =            820.0029861261832593
    One-Electron Energy =               -3405.1418978519095617
    Two-Electron Energy =                1339.7998204545356202
    Total Energy =                      -1245.3390912711906822
  Basis Set: (AUG-CC-PVTZ AUX)
    Blend: AUG-CC-PVTZ-RI
    Molecular point group: c1

    Geometry (in Angstrom), charge = -3, multiplicity = 1:

       Center              X                  Y                   Z               Mass
    ------------   -----------------  -----------------  -----------------  -----------------
         P            1.242846989362    -0.577656620695     0.009380956665    30.973761998420
         P           -1.784461010638     0.195676379305     0.004058956665    30.973761998420
         O            1.405716989362     1.047962379305    -0.372353043335    15.994914619570
         O           -0.338885010638    -0.800098620695    -0.195201043335    15.994914619570
         O            1.977075989362    -1.383604620695    -1.047432043335    15.994914619570
         O            1.666581989362    -0.752224620695     1.456642956665    15.994914619570
         O           -1.783514010638     1.122451379305    -1.218258043335    15.994914619570
         O           -1.606497010638     0.887152379305     1.364411956665    15.994914619570
         O           -2.847165010638    -0.910220620695    -0.028664043335    15.994914619570
         C            2.675596989362     1.596137379305    -0.007968043335    12.000000000000
         H            2.794697589362     1.647537079305     1.178162256665     1.007825032230
         H            3.497669989362     0.999772379305    -0.419932043335     1.007825032230
         H            2.724944989362     2.602633379305    -0.428037043335     1.007825032230

  Basis Set: AUG-CC-PVTZ
    Blend: AUG-CC-PVTZ
  Basis Set: (AUG-CC-PVTZ AUX)
    Blend: AUG-CC-PVTZ-JKFIT
	 Reference Energy          =   -1245.3390912711906822 [Eh]
	 Singles Energy            =      -0.0000000000000000 [Eh]
	 Same-Spin Energy          =      -0.6462254110103143 [Eh]
	 Opposite-Spin Energy      =      -1.8072673490628128 [Eh]
	 Correlation Energy        =      -2.4534927600731269 [Eh]
	 Total Energy              =   -1247.7925840312639139 [Eh]

	 ================> DF-SCS-MP2 Energies <==================
	-----------------------------------------------------------
	 SCS Same-Spin Scale       =       0.3333333333333333 [-]
	 SCS Opposite-Spin Scale   =       1.2000000000000000 [-]
	 SCS Same-Spin Energy      =      -0.2154084703367714 [Eh]
	 SCS Opposite-Spin Energy  =      -2.1687208188753755 [Eh]
	 SCS Correlation Energy    =      -2.3841292892121468 [Eh]
	 SCS Total Energy          =   -1247.7232205604027513 [Eh]
	-----------------------------------------------------------

  Dipole Moment: [D]
     X:     7.8373      Y:     2.2596      Z:    -0.5724     Total:     8.1766

*** Psi4 exiting successfully. Buy a developer a beer!
