                               Psi4 1.3.2 release

  ==> Input File <==

--------------------------------------------------------------------------
#psi4
#
memory 32 gb

molecule  {
-3 1
  P        1.1931290    -0.6069630     0.0087730
  P       -1.8341790     0.1663700     0.0034510
  O        1.2983597     1.0210082    -0.3830445
  O       -0.3933557    -0.7752767    -0.2101954
  O        1.9273580    -1.4129110    -1.0480400
  O        1.6168640    -0.7815310     1.4560350
  O       -1.8332320     1.0931450    -1.2188660
  O       -1.6562150     0.8578460     1.3638040
  O       -2.8968830    -0.9395270    -0.0292720
  C        2.6258790     1.5668310    -0.0085760
  H        2.7349980     1.6139230     1.0781470
  H        3.4479520     0.9704660    -0.4205400
  H        2.6752270     2.5733270    -0.4286450
units angstrom
no_reorient  #important for SAPT in psi4, default
symmetry c1  #important for SAPT in psi4, default
}

set PROPERTIES_ORIGIN ["COM"]
properties('MP2/aug-cc-pvtz', properties = ['dipole'])
--------------------------------------------------------------------------

    Molecular point group: c1
  Charge       = -3
  Multiplicity = 1
  Basis Set: AUG-CC-PVTZ
    Blend: AUG-CC-PVTZ
  Basis Set: (AUG-CC-PVTZ AUX)
    Blend: AUG-CC-PVTZ-JKFIT

    Orbital Energies [Eh]
    ---------------------

    Doubly Occupied:

       1A    -79.623451     2A    -79.554389     3A    -20.155056
       4A    -20.077161     5A    -20.058143     6A    -20.054190
       7A    -19.996411     8A    -19.993231     9A    -19.992819
      10A    -10.920407    11A     -7.137360    12A     -7.068334
      13A     -5.036789    14A     -5.035061    15A     -5.034398
      16A     -4.967947    17A     -4.965507    18A     -4.965360
      19A     -0.954711    20A     -0.883388    21A     -0.843162
      22A     -0.805591    23A     -0.796548    24A     -0.738236
      25A     -0.736090    26A     -0.563621    27A     -0.336649
      28A     -0.279558    29A     -0.248437    30A     -0.216463
      31A     -0.188898    32A     -0.147928    33A     -0.143489
      34A     -0.118738    35A     -0.091311    36A     -0.088113
      37A     -0.065303    38A     -0.054214    39A     -0.040928
      40A     -0.039666    41A     -0.024600    42A      0.005085
      43A      0.019486    44A      0.025022    45A      0.028898
      46A      0.030061    47A      0.069009    48A      0.073335
      49A      0.097201

  @DF-RHF Final Energy: -1245.33946422923236

   => Energetics <=

    Nuclear Repulsion Energy =            821.6205254012253363
    One-Electron Energy =               -3408.5328619966971928
    Two-Electron Energy =                1341.5728723662396078
    Total Energy =                      -1245.3394642292323624
  Basis Set: (AUG-CC-PVTZ AUX)
    Blend: AUG-CC-PVTZ-RI
    Molecular point group: c1

    Geometry (in Angstrom), charge = -3, multiplicity = 1:

       Center              X                  Y                   Z               Mass
    ------------   -----------------  -----------------  -----------------  -----------------
         P            1.248182222525    -0.582415174997     0.011982793710    30.973761998420
         P           -1.779125777475     0.190917825003     0.006660793710    30.973761998420
         O            1.353412922525     1.045556025003    -0.379834706290    15.994914619570
         O           -0.338302477475    -0.750728874997    -0.206985606290    15.994914619570
         O            1.982411222525    -1.388363174997    -1.044830206290    15.994914619570
         O            1.671917222525    -0.756983174997     1.459244793710    15.994914619570
         O           -1.778178777475     1.117692825003    -1.215656206290    15.994914619570
         O           -1.601161777475     0.882393825003     1.367013793710    15.994914619570
         O           -2.841829777475    -0.914979174997    -0.026062206290    15.994914619570
         C            2.680932222525     1.591378825003    -0.005366206290    12.000000000000
         H            2.790051222525     1.638470825003     1.081356793710     1.007825032230
         H            3.503005222525     0.995013825003    -0.417330206290     1.007825032230
         H            2.730280222525     2.597874825003    -0.425435206290     1.007825032230

  Basis Set: AUG-CC-PVTZ
    Blend: AUG-CC-PVTZ
  Basis Set: (AUG-CC-PVTZ AUX)
    Blend: AUG-CC-PVTZ-JKFIT
	 Reference Energy          =   -1245.3394642292323624 [Eh]
	 Singles Energy            =      -0.0000000000000000 [Eh]
	 Same-Spin Energy          =      -0.6464071578118806 [Eh]
	 Opposite-Spin Energy      =      -1.8075969686362119 [Eh]
	 Correlation Energy        =      -2.4540041264480923 [Eh]
	 Total Energy              =   -1247.7934683556804885 [Eh]

	 ================> DF-SCS-MP2 Energies <==================
	-----------------------------------------------------------
	 SCS Same-Spin Scale       =       0.3333333333333333 [-]
	 SCS Opposite-Spin Scale   =       1.2000000000000000 [-]
	 SCS Same-Spin Energy      =      -0.2154690526039602 [Eh]
	 SCS Opposite-Spin Energy  =      -2.1691163623634542 [Eh]
	 SCS Correlation Energy    =      -2.3845854149674146 [Eh]
	 SCS Total Energy          =   -1247.7240496441997948 [Eh]
	-----------------------------------------------------------

  Dipole Moment: [D]
     X:     8.2915      Y:     2.2247      Z:    -0.4398     Total:     8.5960

*** Psi4 exiting successfully. Buy a developer a beer!
