                               Psi4 1.4a3.dev225

  ==> Input File <==

--------------------------------------------------------------------------
#psi4
#
memory 32 gb

molecule  {
-3 1
  P       -1.1253500     0.3591720     0.0081310
  P        2.0878660    -0.1053470     0.0007630
  O       -2.1391380    -1.0979190    -0.1147190
  O        0.2405970    -0.4148950    -0.1339660
  O       -1.5628960     1.1822930    -1.2021870
  O       -1.4752280     0.9069340     1.3887990
  O        2.4385690    -0.8874190     1.2758270
  O        2.1989840     1.4211450     0.0869110
  O        2.5676630    -0.7478960    -1.3107960
  C       -3.4422158    -0.7841141    -0.0183719
  H       -3.7335280    -0.2943150     0.9495100
  H       -3.8114220    -0.0788120    -0.8111520
  H       -4.0969940    -1.6975630    -0.1019980
units angstrom
no_reorient  #important for SAPT in psi4, default
symmetry c1  #important for SAPT in psi4, default
}

set PROPERTIES_ORIGIN ["COM"]
properties('MP2/aug-cc-pvtz', properties = ['dipole'])
--------------------------------------------------------------------------

    Molecular point group: c1
  Charge       = -3
  Multiplicity = 1
  Basis Set: AUG-CC-PVTZ
    Blend: AUG-CC-PVTZ
  Basis Set: (AUG-CC-PVTZ AUX)
    Blend: AUG-CC-PVTZ-JKFIT

    Orbital Energies [Eh]
    ---------------------

    Doubly Occupied:

       1A    -79.631423     2A    -79.586667     3A    -20.148555
       4A    -20.090144     5A    -20.057650     6A    -20.057266
       7A    -20.023612     8A    -20.023486     9A    -20.022627
      10A    -10.914385    11A     -7.144394    12A     -7.099988
      13A     -5.043900    14A     -5.041945    15A     -5.041121
      16A     -4.999697    17A     -4.996673    18A     -4.996656
      19A     -0.975116    20A     -0.892254    21A     -0.849484
      22A     -0.817647    23A     -0.803092    24A     -0.764232
      25A     -0.763015    26A     -0.534531    27A     -0.340973
      28A     -0.270896    29A     -0.246815    30A     -0.226774
      31A     -0.204719    32A     -0.157514    33A     -0.143427
      34A     -0.116454    35A     -0.098127    36A     -0.096828
      37A     -0.080402    38A     -0.053142    39A     -0.045901
      40A     -0.031050    41A     -0.016401    42A     -0.002450
      43A     -0.000286    44A      0.002544    45A      0.006655
      46A      0.020504    47A      0.042100    48A      0.047040
      49A      0.069940

  @DF-RHF Final Energy: -1245.33942425371743

   => Energetics <=

    Nuclear Repulsion Energy =            798.1637145364295520
    One-Electron Energy =               -3360.4804031884268625
    Two-Electron Energy =                1316.9772643982801128
    Total Energy =                      -1245.3394242537174250
  Basis Set: (AUG-CC-PVTZ AUX)
    Blend: AUG-CC-PVTZ-RI
    Molecular point group: c1

    Geometry (in Angstrom), charge = -3, multiplicity = 1:

       Center              X                  Y                   Z               Mass
    ------------   -----------------  -----------------  -----------------  -----------------
         P           -1.194465627738     0.347741116410     0.008503519507    30.973761998420
         P            2.018750372262    -0.116777883590     0.001135519507    30.973761998420
         O           -2.208253627738    -1.109349883590    -0.114346480493    15.994914619570
         O            0.171481372262    -0.426325883590    -0.133593480493    15.994914619570
         O           -1.632011627738     1.170862116410    -1.201814480493    15.994914619570
         O           -1.544343627738     0.895503116410     1.389171519507    15.994914619570
         O            2.369453372262    -0.898849883590     1.276199519507    15.994914619570
         O            2.129868372262     1.409714116410     0.087283519507    15.994914619570
         O            2.498547372262    -0.759326883590    -1.310423480493    15.994914619570
         C           -3.511331427738    -0.795544983590    -0.017999380493    12.000000000000
         H           -3.802643627738    -0.305745883590     0.949882519507     1.007825032230
         H           -3.880537627738    -0.090242883590    -0.810779480493     1.007825032230
         H           -4.166109627738    -1.708993883590    -0.101625480493     1.007825032230

  Basis Set: AUG-CC-PVTZ
    Blend: AUG-CC-PVTZ
  Basis Set: (AUG-CC-PVTZ AUX)
    Blend: AUG-CC-PVTZ-JKFIT
	 Reference Energy          =   -1245.3394242537174250 [Eh]
	 Singles Energy            =      -0.0000000000000000 [Eh]
	 Same-Spin Energy          =      -0.6475861498379030 [Eh]
	 Opposite-Spin Energy      =      -1.8096494432864341 [Eh]
	 Correlation Energy        =      -2.4572355931243370 [Eh]
	 Total Energy              =   -1247.7966598468417487 [Eh]

	 ================> DF-SCS-MP2 Energies <==================
	-----------------------------------------------------------
	 SCS Same-Spin Scale       =       0.3333333333333333 [-]
	 SCS Opposite-Spin Scale   =       1.2000000000000000 [-]
	 SCS Same-Spin Energy      =      -0.2158620499459676 [Eh]
	 SCS Opposite-Spin Energy  =      -2.1715793319437209 [Eh]
	 SCS Correlation Energy    =      -2.3874413818896887 [Eh]
	 SCS Total Energy          =   -1247.7268656356070551 [Eh]
	-----------------------------------------------------------

  Dipole Moment: [D]
     X:    -7.3845      Y:    -1.7924      Z:    -0.1803     Total:     7.6010

*** Psi4 exiting successfully. Buy a developer a beer!
